<event>
 7    1  0.2641580E-009  0.1262663E+03  0.7561462E-02  0.1233103E+00
         -1   -1    0    0    0  501 -0.00000000000E+00  0.00000000000E+00  0.12182179943E+03  0.12182179943E+03  0.00000000000E+00 0.  1.
          1   -1    0    0  501    0  0.00000000000E+00 -0.00000000000E+00 -0.17846455625E+03  0.17846455625E+03  0.00000000000E+00 0. -1.
         25    2    1    2    0    0  0.14015730083E+02 -0.97642622549E+02 -0.16383917843E+02  0.16014658175E+03  0.12509185607E+03 0.  0.
          5    1    3    3  502    0 -0.17942152470E+02 -0.97865963411E+02  0.29691522262E+02  0.10391692126E+03  0.41800000000E+01 0. -1.
         -5    1    3    3    0  502  0.31957882553E+02  0.22334086168E+00 -0.46075440106E+02  0.56229660495E+02  0.41800000000E+01 0. -1.
        -11    1    1    2    0    0 -0.33473222110E+02  0.95434545694E+02 -0.55466124792E+02  0.11534600171E+03  0.00000000000E+00 0.  1.
         11    1    1    2    0    0  0.19457492027E+02  0.22080768554E+01  0.15207285811E+02  0.24793772224E+02  0.00000000000E+00 0. -1.
</event>
<event>
 7    1  0.3788004E-009  0.1993374E+03  0.7561462E-02  0.1150299E+00
          1   -1    0    0  501    0  0.00000000000E+00  0.00000000000E+00  0.11574248111E+04  0.11574248111E+04  0.00000000000E+00 0. -1.
         -1   -1    0    0    0  501 -0.00000000000E+00 -0.00000000000E+00 -0.38499355861E+02  0.38499355861E+02  0.00000000000E+00 0.  1.
         25    2    1    2    0    0 -0.17856184142E+03 -0.20297975771E+02  0.63390079225E+03  0.67065295934E+03  0.12509531735E+03 0.  0.
          5    1    3    3  502    0 -0.15740379843E+03  0.33483415305E+02  0.46046328219E+03  0.48779196540E+03  0.41800000000E+01 0.  1.
         -5    1    3    3    0  502 -0.21158042986E+02 -0.53781391076E+02  0.17343751006E+03  0.18286099394E+03  0.41800000000E+01 0.  1.
        -11    1    1    2    0    0  0.11515389912E+03  0.14877025105E+02  0.18384386851E+03  0.21744036964E+03  0.00000000000E+00 0.  1.
         11    1    1    2    0    0  0.63407942297E+02  0.54209506657E+01  0.30118079444E+03  0.30783083795E+03  0.00000000000E+00 0. -1.
</event>
<event>
 7    1  0.2641580E-009  0.1988939E+03  0.7561462E-02  0.1150676E+00
         -1   -1    0    0    0  501 -0.00000000000E+00  0.00000000000E+00  0.13732752782E+04  0.13732752782E+04  0.00000000000E+00 0.  1.
          1   -1    0    0  501    0  0.00000000000E+00 -0.00000000000E+00 -0.35593465096E+02  0.35593465096E+02  0.00000000000E+00 0. -1.
         25    2    1    2    0    0  0.24496878274E+02  0.18855313756E+03  0.78606926018E+03  0.81835432928E+03  0.12508614522E+03 0.  0.
          5    1    3    3  502    0 -0.23184023508E+02  0.59610263896E+02  0.46028736399E+03  0.46472875138E+03  0.41800000000E+01 0.  1.
         -5    1    3    3    0  502  0.47680901782E+02  0.12894287367E+03  0.32578189619E+03  0.35362557790E+03  0.41800000000E+01 0.  1.
        -11    1    1    2    0    0 -0.38161769832E+02 -0.11032250784E+03  0.42763897457E+03  0.44328599006E+03  0.00000000000E+00 0.  1.
         11    1    1    2    0    0  0.13664891558E+02 -0.78230629717E+02  0.12397357831E+03  0.14722842391E+03  0.00000000000E+00 0. -1.
</event>
<event>
 7    1  0.2641580E-009  0.1080808E+03  0.7561462E-02  0.1264166E+00
         -2   -1    0    0    0  501 -0.00000000000E+00  0.00000000000E+00  0.13977761886E+02  0.13977761886E+02  0.00000000000E+00 0.  1.
          2   -1    0    0  501    0  0.00000000000E+00 -0.00000000000E+00 -0.99982976112E+03  0.99982976112E+03  0.00000000000E+00 0. -1.
         25    2    1    2    0    0 -0.13282048748E+02 -0.12762376587E+02 -0.74124034416E+03  0.75194718600E+03  0.12509209266E+03 0.  0.
          5    1    3    3  502    0  0.38995405220E+02  0.35525182852E+02 -0.24807737950E+03  0.25365831125E+03  0.41800000000E+01 0.  1.
         -5    1    3    3    0  502 -0.52277453968E+02 -0.48287559439E+02 -0.49316296466E+03  0.49828887475E+03  0.41800000000E+01 0.  1.
        -11    1    1    2    0    0 -0.25055924162E+02  0.38388843866E+02 -0.98514980172E+02  0.10865865813E+03  0.00000000000E+00 0.  1.
         11    1    1    2    0    0  0.38337972910E+02 -0.25626467279E+02 -0.14609667490E+03  0.15320167887E+03  0.00000000000E+00 0. -1.
</event>
<event>
 7    1  0.2641580E-009  0.1196902E+03  0.7561462E-02  0.1243609E+00
          1   -1    0    0  501    0  0.00000000000E+00  0.00000000000E+00  0.14280125323E+04  0.14280125323E+04  0.00000000000E+00 0. -1.
         -1   -1    0    0    0  501 -0.00000000000E+00 -0.00000000000E+00 -0.29184798369E+02  0.29184798369E+02  0.00000000000E+00 0.  1.
         25    2    1    2    0    0 -0.60861715261E+02  0.78051933169E+02  0.12339351249E+04  0.12442022942E+04  0.12508878312E+03 0.  0.
          5    1    3    3  502    0  0.19058606509E+02  0.39081851891E+02  0.14011289691E+03  0.14676415744E+03  0.41800000000E+01 0. -1.
         -5    1    3    3    0  502 -0.79920321770E+02  0.38970081278E+02  0.10938222280E+04  0.10974381367E+04  0.41800000000E+01 0. -1.
        -11    1    1    2    0    0  0.39239374097E+02 -0.18602358327E+02  0.84411833473E+01  0.44238329435E+02  0.00000000000E+00 0.  1.
         11    1    1    2    0    0  0.21622341164E+02 -0.59449574841E+02  0.15645142571E+03  0.16875670711E+03  0.00000000000E+00 0. -1.
</event>
<event>
 7    1  0.2641580E-009  0.1324572E+03  0.7561462E-02  0.1223855E+00
          1   -1    0    0  501    0  0.00000000000E+00  0.00000000000E+00  0.15292890923E+03  0.15292890923E+03  0.00000000000E+00 0. -1.
         -1   -1    0    0    0  501 -0.00000000000E+00 -0.00000000000E+00 -0.16837562864E+03  0.16837562864E+03  0.00000000000E+00 0.  1.
         25    2    1    2    0    0  0.10276834743E+03  0.45298818985E+02  0.24127096776E+02  0.16981560089E+03  0.12506760280E+03 0.  0.
          5    1    3    3  502    0  0.60424970730E+02  0.57935565760E+02  0.67605111044E+02  0.10768300844E+03  0.41800000000E+01 0.  1.
         -5    1    3    3    0  502  0.42343376704E+02 -0.12636746775E+02 -0.43478014268E+02  0.62132592449E+02  0.41800000000E+01 0.  1.
        -11    1    1    2    0    0 -0.71085316505E+02 -0.67497860059E+02 -0.51859957866E+02  0.11089877621E+03  0.00000000000E+00 0.  1.
         11    1    1    2    0    0 -0.31683030929E+02  0.22199041074E+02  0.12286141683E+02  0.40590160765E+02  0.00000000000E+00 0. -1.
</event>
<event>
 7    1  0.2641580E-009  0.1100045E+03  0.7561462E-02  0.1260561E+00
         -2   -1    0    0    0  501 -0.00000000000E+00  0.00000000000E+00  0.39777531719E+02  0.39777531719E+02  0.00000000000E+00 0.  1.
          2   -1    0    0  501    0  0.00000000000E+00 -0.00000000000E+00 -0.43183104780E+03  0.43183104780E+03  0.00000000000E+00 0. -1.
         25    2    1    2    0    0  0.21249748042E+02  0.62532835146E+02 -0.15962452632E+03  0.21328330762E+03  0.12509145712E+03 0.  0.
          5    1    3    3  502    0  0.47507010463E+02 -0.50994761712E+01 -0.13086850616E+02  0.49715779782E+02  0.41800000000E+01 0.  1.
         -5    1    3    3    0  502 -0.26257262421E+02  0.67632311317E+02 -0.14653767570E+03  0.16356752784E+03  0.41800000000E+01 0.  1.
        -11    1    1    2    0    0 -0.48484702336E+02 -0.30284469799E+02 -0.69359513770E+02  0.89881353027E+02  0.00000000000E+00 0.  1.
         11    1    1    2    0    0  0.27234954294E+02 -0.32248365347E+02 -0.16306947599E+03  0.16844391887E+03  0.00000000000E+00 0. -1.
</event>
<event>
 7    1  0.2641580E-009  0.8975588E+02  0.7561462E-02  0.1303444E+00
         -2   -1    0    0    0  501 -0.00000000000E+00  0.00000000000E+00  0.31205124009E+03  0.31205124009E+03  0.00000000000E+00 0.  1.
          2   -1    0    0  501    0  0.00000000000E+00 -0.00000000000E+00 -0.39466037753E+02  0.39466037753E+02  0.00000000000E+00 0. -1.
         25    2    1    2    0    0 -0.18557111201E+02 -0.19727076569E+02  0.13281881269E+03  0.18443777410E+03  0.12507170577E+03 0.  0.
          5    1    3    3  502    0 -0.18575180147E+02 -0.66175680699E+02  0.11592773111E+03  0.13483682462E+03  0.41800000000E+01 0.  1.
         -5    1    3    3    0  502  0.18068946601E-01  0.46448604130E+02  0.16891081571E+02  0.49600949474E+02  0.41800000000E+01 0.  1.
        -11    1    1    2    0    0  0.34575955343E+02 -0.46073827580E+01  0.13349169464E+02  0.37348694611E+02  0.00000000000E+00 0. -1.
         11    1    1    2    0    0 -0.16018844142E+02  0.24334459327E+02  0.12641722019E+03  0.12973080914E+03  0.00000000000E+00 0.  1.
</event>
<event>
 7    1  0.2641580E-009  0.1071989E+03  0.7561462E-02  0.1265847E+00
          3   -1    0    0  501    0  0.00000000000E+00  0.00000000000E+00  0.30222839671E+02  0.30222839671E+02  0.00000000000E+00 0. -1.
         -3   -1    0    0    0  501 -0.00000000000E+00 -0.00000000000E+00 -0.63042462282E+03  0.63042462282E+03  0.00000000000E+00 0.  1.
         25    2    1    2    0    0  0.19088737733E+02 -0.80507161885E+02 -0.38241084075E+03  0.41077015347E+03  0.12509310466E+03 0.  0.
          5    1    3    3  502    0  0.40165454844E+02 -0.91549431347E+02 -0.37061677035E+03  0.38388647411E+03  0.41800000000E+01 0. -1.
         -5    1    3    3    0  502 -0.21076717111E+02  0.11042269461E+02 -0.11794070399E+02  0.26883679354E+02  0.41800000000E+01 0. -1.
        -11    1    1    2    0    0  0.74632178155E+01  0.46191718452E+02 -0.19564770468E+03  0.20116510338E+03  0.00000000000E+00 0.  1.
         11    1    1    2    0    0 -0.26551955549E+02  0.34315443434E+02 -0.22143237722E+02  0.48712205640E+02  0.00000000000E+00 0. -1.
</event>
<event>
 7    1  0.2641580E-009  0.9972531E+02  0.7561462E-02  0.1280875E+00
         -2   -1    0    0    0  501 -0.00000000000E+00  0.00000000000E+00  0.56924104191E+02  0.56924104191E+02  0.00000000000E+00 0. -1.
          2   -1    0    0  501    0  0.00000000000E+00 -0.00000000000E+00 -0.29336099134E+03  0.29336099134E+03  0.00000000000E+00 0.  1.
         25    2    1    2    0    0  0.48245723803E+02 -0.48731321382E+02 -0.10820742834E+03  0.17905164205E+03  0.12509297112E+03 0.  0.
          5    1    3    3  502    0  0.13971614869E+02 -0.70735163582E+02 -0.10332766191E+02  0.72958260987E+02  0.41800000000E+01 0. -1.
         -5    1    3    3    0  502  0.34274108933E+02  0.22003842201E+02 -0.97874662151E+02  0.10609338107E+03  0.41800000000E+01 0. -1.
        -11    1    1    2    0    0  0.10211985714E+02  0.16837407378E+02  0.66713586109E+01  0.20791583998E+02  0.00000000000E+00 0. -1.
         11    1    1    2    0    0 -0.58457709517E+02  0.31893914003E+02 -0.13490081742E+03  0.15044186948E+03  0.00000000000E+00 0.  1.
</event>
<event>
 7    1  0.2641580E-009  0.7487349E+02  0.7561462E-02  0.1344263E+00
         -1   -1    0    0    0  501 -0.00000000000E+00  0.00000000000E+00  0.91422096739E+02  0.91422096739E+02  0.00000000000E+00 0.  1.
          1   -1    0    0  501    0  0.00000000000E+00 -0.00000000000E+00 -0.15423332878E+03  0.15423332878E+03  0.00000000000E+00 0. -1.
         25    2    1    2    0    0 -0.42249052729E+02 -0.20997448385E+01 -0.64588649586E+02  0.14699523770E+03  0.12508602986E+03 0.  0.
          5    1    3    3  502    0 -0.33734560174E+00 -0.75740414908E+01 -0.94595586252E+02  0.94990932435E+02  0.41800000000E+01 0.  1.
         -5    1    3    3    0  502 -0.41911707128E+02  0.54742966524E+01  0.30006936666E+02  0.52004305266E+02  0.41800000000E+01 0.  1.
        -11    1    1    2    0    0  0.35545749860E+02 -0.41420765126E+02  0.21643572171E+01  0.54624761408E+02  0.00000000000E+00 0.  1.
         11    1    1    2    0    0  0.67033028693E+01  0.43520509965E+02 -0.38693967563E+00  0.44035426412E+02  0.00000000000E+00 0. -1.
</event>
<event>
 6    1  0.2736184E-009  0.1001853E+03  0.7561462E-02  0.1279907E+00
         -1   -1    0    0    0  501 -0.00000000000E+00  0.00000000000E+00  0.71270258428E+02  0.71270258428E+02  0.00000000000E+00 0.  1.
          1   -1    0    0  501    0  0.00000000000E+00 -0.00000000000E+00 -0.27729280167E+03  0.27729280167E+03  0.00000000000E+00 0. -1.
          5    1    1    2  502    0  0.23325007575E+02  0.60502712737E+02 -0.16197390739E+03  0.17452121161E+03  0.41800000000E+01 0. -1.
         -5    1    1    2    0  502  0.41240905943E+02 -0.11669035184E+02  0.34710579265E+01  0.43203001612E+02  0.41800000000E+01 0. -1.
        -11    1    1    2    0    0 -0.75600140960E+01 -0.32013448651E+02  0.21849656820E+02  0.39489520266E+02  0.00000000000E+00 0.  1.
         11    1    1    2    0    0 -0.57005899422E+02 -0.16820228902E+02 -0.69369350595E+02  0.91349326606E+02  0.00000000000E+00 0. -1.
</event>
<event>
 7    1  0.2641580E-009  0.1078588E+03  0.7561462E-02  0.1264587E+00
         -2   -1    0    0    0  501 -0.00000000000E+00  0.00000000000E+00  0.31263333893E+02  0.31263333893E+02  0.00000000000E+00 0.  1.
          2   -1    0    0  501    0  0.00000000000E+00 -0.00000000000E+00 -0.37447563416E+03  0.37447563416E+03  0.00000000000E+00 0. -1.
         25    2    1    2    0    0  0.10158711555E+02  0.72204843421E+01 -0.18771755216E+03  0.22592192639E+03  0.12508997810E+03 0.  0.
          5    1    3    3  502    0  0.29188583248E+02 -0.53912457805E+02 -0.96282259668E+02  0.11422028027E+03  0.41800000000E+01 0. -1.
         -5    1    3    3    0  502 -0.19029871694E+02  0.61132942147E+02 -0.91435292495E+02  0.11170164612E+03  0.41800000000E+01 0. -1.
        -11    1    1    2    0    0 -0.49661540573E+02  0.13672617332E+01 -0.91678784096E+02  0.10427433754E+03  0.00000000000E+00 0.  1.
         11    1    1    2    0    0  0.39502829018E+02 -0.85877460754E+01 -0.63815964008E+02  0.75542704118E+02  0.00000000000E+00 0. -1.
</event>
<event>
 7    1  0.2641580E-009  0.1156571E+03  0.7561462E-02  0.1250438E+00
          3   -1    0    0  501    0  0.00000000000E+00  0.00000000000E+00  0.51623584302E+02  0.51623584302E+02  0.00000000000E+00 0. -1.
         -3   -1    0    0    0  501 -0.00000000000E+00 -0.00000000000E+00 -0.28333840131E+03  0.28333840131E+03  0.00000000000E+00 0.  1.
         25    2    1    2    0    0 -0.45493680037E+02  0.11079256880E+02 -0.16499946141E+03  0.21228801131E+03  0.12509577380E+03 0.  0.
          5    1    3    3  502    0 -0.66511677744E+02  0.50525270422E+02 -0.77854903136E+02  0.11426051186E+03  0.41800000000E+01 0. -1.
         -5    1    3    3    0  502  0.21017997707E+02 -0.39446013541E+02 -0.87144558276E+02  0.98027499454E+02  0.41800000000E+01 0. -1.
        -11    1    1    2    0    0  0.47436439804E+02 -0.47024554534E+02 -0.46522157424E+02  0.81399236371E+02  0.00000000000E+00 0.  1.
         11    1    1    2    0    0 -0.19427597672E+01  0.35945297654E+02 -0.20193198172E+02  0.41274737932E+02  0.00000000000E+00 0. -1.
</event>
<event>
 7    1  0.2641580E-009  0.1193013E+03  0.7561462E-02  0.1244254E+00
          3   -1    0    0  501    0  0.00000000000E+00  0.00000000000E+00  0.53976807125E+03  0.53976807125E+03  0.00000000000E+00 0. -1.
         -3   -1    0    0    0  501 -0.00000000000E+00 -0.00000000000E+00 -0.36555148140E+02  0.36555148140E+02  0.00000000000E+00 0.  1.
         25    2    1    2    0    0  0.66942848510E+02 -0.52066814241E+02  0.21743541187E+03  0.26479769439E+03  0.12508941805E+03 0.  0.
          5    1    3    3  502    0  0.58182837680E+00 -0.47875841310E+02  0.13012676795E+02  0.49791935720E+02  0.41800000000E+01 0.  1.
         -5    1    3    3    0  502  0.66361020133E+02 -0.41909729310E+01  0.20442273508E+03  0.21500575867E+03  0.41800000000E+01 0.  1.
        -11    1    1    2    0    0  0.76590431301E+01  0.48636466566E+02  0.11962338312E+03  0.12935965604E+03  0.00000000000E+00 0. -1.
         11    1    1    2    0    0 -0.74601891640E+02  0.34303476743E+01  0.16615412812E+03  0.18216586895E+03  0.00000000000E+00 0.  1.
</event>
<event>
 7    1  0.2641580E-009  0.1410810E+03  0.7561462E-02  0.1211882E+00
         -1   -1    0    0    0  501 -0.00000000000E+00  0.00000000000E+00  0.15820342435E+03  0.15820342435E+03  0.00000000000E+00 0.  1.
          1   -1    0    0  501    0  0.00000000000E+00 -0.00000000000E+00 -0.15059839999E+03  0.15059839999E+03  0.00000000000E+00 0. -1.
         25    2    1    2    0    0 -0.91216849300E+02  0.54607945424E+02  0.36393712479E+02  0.16814798044E+03  0.12508676875E+03 0.  0.
          5    1    3    3  502    0 -0.25291025683E+02 -0.32980772273E+02 -0.18252510530E+02  0.45585017938E+02  0.41800000000E+01 0.  1.
         -5    1    3    3    0  502 -0.65925823618E+02  0.87588717697E+02  0.54646223009E+02  0.12256296250E+03  0.41800000000E+01 0.  1.
        -11    1    1    2    0    0  0.95603110066E+02 -0.22417066877E+02 -0.40359242081E+02  0.10616660474E+03  0.00000000000E+00 0. -1.
         11    1    1    2    0    0 -0.43862607659E+01 -0.32190878547E+02  0.11570553963E+02  0.34487239149E+02  0.00000000000E+00 0.  1.
</event>
<event>
 7    1  0.2641580E-009  0.8466463E+02  0.7561462E-02  0.1316312E+00
         -1   -1    0    0    0  501 -0.00000000000E+00  0.00000000000E+00  0.16542648930E+03  0.16542648930E+03  0.00000000000E+00 0.  1.
          1   -1    0    0  501    0  0.00000000000E+00 -0.00000000000E+00 -0.98471222834E+02  0.98471222834E+02  0.00000000000E+00 0. -1.
         25    2    1    2    0    0  0.70280510258E+01 -0.47955984670E+02 -0.11588594201E+02  0.13464927991E+03  0.12508782154E+03 0.  0.
          5    1    3    3  502    0 -0.48349716102E+02 -0.23341862541E+02 -0.40493271195E+02  0.67377407238E+02  0.41800000000E+01 0.  1.
         -5    1    3    3    0  502  0.55377767128E+02 -0.24614122129E+02  0.28904676994E+02  0.67271872669E+02  0.41800000000E+01 0.  1.
        -11    1    1    2    0    0 -0.12896254411E+02  0.99842847209E+01  0.88147750939E+02  0.89643880520E+02  0.00000000000E+00 0.  1.
         11    1    1    2    0    0  0.58682033852E+01  0.37971699949E+02 -0.96038902665E+01  0.39604551711E+02  0.00000000000E+00 0. -1.
</event>
<event>
 7    1  0.2641580E-009  0.1138202E+03  0.7561462E-02  0.1253655E+00
          3   -1    0    0  501    0  0.00000000000E+00  0.00000000000E+00  0.55939169958E+03  0.55939169958E+03  0.00000000000E+00 0. -1.
         -3   -1    0    0    0  501 -0.00000000000E+00 -0.00000000000E+00 -0.42874473287E+02  0.42874473287E+02  0.00000000000E+00 0.  1.
         25    2    1    2    0    0  0.30461652330E+02 -0.78537733930E+02  0.41526326667E+03  0.44180059018E+03  0.12509233758E+03 0.  0.
          5    1    3    3  502    0 -0.20114430154E+02  0.11931387244E+02  0.14505477571E+02  0.27835760840E+02  0.41800000000E+01 0. -1.
         -5    1    3    3    0  502  0.50576082484E+02 -0.90469121174E+02  0.40075778910E+03  0.41396482934E+03  0.41800000000E+01 0. -1.
        -11    1    1    2    0    0 -0.45461491343E+02  0.68091959041E+02  0.30469774952E+02  0.87359425747E+02  0.00000000000E+00 0.  1.
         11    1    1    2    0    0  0.14999839013E+02  0.10445774889E+02  0.70784184668E+02  0.73106156940E+02  0.00000000000E+00 0. -1.
</event>
<event>
 7    1  0.2641580E-009  0.1845237E+03  0.7561462E-02  0.1163495E+00
          2   -1    0    0  501    0  0.00000000000E+00  0.00000000000E+00  0.43286788078E+03  0.43286788078E+03  0.00000000000E+00 0. -1.
         -2   -1    0    0    0  501 -0.00000000000E+00 -0.00000000000E+00 -0.95842917578E+02  0.95842917578E+02  0.00000000000E+00 0.  1.
         25    2    1    2    0    0 -0.16098227829E+03  0.12332467974E+00  0.96470809228E+02  0.22554312972E+03  0.12509107561E+03 0.  0.
          5    1    3    3  502    0 -0.11349142884E+03 -0.46609233982E+02  0.20590109943E+02  0.12447550016E+03  0.41800000000E+01 0.  1.
         -5    1    3    3    0  502 -0.47490849459E+02  0.46732558662E+02  0.75880699285E+02  0.10106762956E+03  0.41800000000E+01 0.  1.
        -11    1    1    2    0    0  0.12224961183E+03 -0.35259155820E+02  0.19978366295E+03  0.23685794824E+03  0.00000000000E+00 0.  1.
         11    1    1    2    0    0  0.38732666462E+02  0.35135831140E+02  0.40770491024E+02  0.66309720400E+02  0.00000000000E+00 0. -1.
</event>
<event>
 7    1  0.2641580E-009  0.1153597E+03  0.7561462E-02  0.1250955E+00
          3   -1    0    0  501    0  0.00000000000E+00  0.00000000000E+00  0.12585634577E+03  0.12585634577E+03  0.00000000000E+00 0. -1.
         -3   -1    0    0    0  501 -0.00000000000E+00 -0.00000000000E+00 -0.11962138566E+03  0.11962138566E+03  0.00000000000E+00 0.  1.
         25    2    1    2    0    0 -0.10441182617E+02  0.58310830136E+02 -0.54713666799E+00  0.13840370477E+03  0.12508443121E+03 0.  0.
          5    1    3    3  502    0  0.38299587816E+02 -0.16515712452E+02  0.20347942729E+02  0.46595475724E+02  0.41800000000E+01 0.  1.
         -5    1    3    3    0  502 -0.48740770432E+02  0.74826542588E+02 -0.20895079397E+02  0.91808229049E+02  0.41800000000E+01 0.  1.
        -11    1    1    2    0    0  0.13660881640E+02 -0.78134318060E+02 -0.11212896600E+02  0.80108179333E+02  0.00000000000E+00 0.  1.
         11    1    1    2    0    0 -0.32196990233E+01  0.19823487924E+02  0.17994993382E+02  0.26965847328E+02  0.00000000000E+00 0. -1.
</event>
<event>
 7    1  0.2641580E-009  0.1957067E+03  0.7561462E-02  0.1153413E+00
          4   -1    0    0  501    0  0.00000000000E+00  0.00000000000E+00  0.29606173152E+03  0.29606173152E+03  0.00000000000E+00 0.  1.
         -4   -1    0    0    0  501 -0.00000000000E+00 -0.00000000000E+00 -0.16371475450E+03  0.16371475450E+03  0.00000000000E+00 0. -1.
         25    2    1    2    0    0 -0.67746809673E+02 -0.15524489452E+03 -0.26115528364E+02  0.21218198019E+03  0.12509422209E+03 0.  0.
          5    1    3    3  502    0 -0.10204779894E+03 -0.91101273476E+02 -0.26081063535E+02  0.13932296858E+03  0.41800000000E+01 0. -1.
         -5    1    3    3    0  502  0.34300989267E+02 -0.64143621043E+02 -0.34464828532E-01  0.72859011612E+02  0.41800000000E+01 0. -1.
        -11    1    1    2    0    0 -0.10443671691E+02  0.47098349022E+02  0.12530357287E+02  0.49843099951E+02  0.00000000000E+00 0. -1.
         11    1    1    2    0    0  0.78190481364E+02  0.10814654550E+03  0.14593214809E+03  0.19775140588E+03  0.00000000000E+00 0.  1.
</event>
<event>
 7    1  0.2641580E-009  0.1047716E+03  0.7561462E-02  0.1270570E+00
         -2   -1    0    0    0  501 -0.00000000000E+00  0.00000000000E+00  0.18230477191E+02  0.18230477191E+02  0.00000000000E+00 0.  1.
          2   -1    0    0  501    0  0.00000000000E+00 -0.00000000000E+00 -0.94966977722E+03  0.94966977722E+03  0.00000000000E+00 0. -1.
         25    2    1    2    0    0  0.39726722278E+02  0.13573837310E+02 -0.70472983606E+03  0.71697657774E+03  0.12509520243E+03 0.  0.
          5    1    3    3  502    0  0.73454438540E+02  0.63016108104E+01 -0.24377937056E+03  0.25471772367E+03  0.41800000000E+01 0. -1.
         -5    1    3    3    0  502 -0.33727716262E+02  0.72722264993E+01 -0.46095046550E+03  0.46225885407E+03  0.41800000000E+01 0. -1.
        -11    1    1    2    0    0 -0.60469885288E+02 -0.36017817394E+02 -0.19294594275E+03  0.20538263563E+03  0.00000000000E+00 0. -1.
         11    1    1    2    0    0  0.20743163010E+02  0.22443980084E+02 -0.33763521219E+02  0.45541041038E+02  0.00000000000E+00 0.  1.
</event>
<event>
 7    1  0.2641580E-009  0.1947521E+03  0.7561462E-02  0.1154244E+00
          2   -1    0    0  501    0  0.00000000000E+00  0.00000000000E+00  0.16064353980E+04  0.16064353980E+04  0.00000000000E+00 0. -1.
         -2   -1    0    0    0  501 -0.00000000000E+00 -0.00000000000E+00 -0.23803012855E+02  0.23803012855E+02  0.00000000000E+00 0.  1.
         25    2    1    2    0    0  0.13884661199E+03  0.83029426761E+02  0.88440212901E+03  0.90773721322E+03  0.12508978814E+03 0.  0.
          5    1    3    3  502    0 -0.23125676120E+02  0.16249876271E+02  0.10033657044E+03  0.10432523732E+03  0.41800000000E+01 0. -1.
         -5    1    3    3    0  502  0.16197228811E+03  0.66779550490E+02  0.78406555857E+03  0.80341197590E+03  0.41800000000E+01 0. -1.
        -11    1    1    2    0    0 -0.94763613107E+02 -0.10062206147E+03  0.52303576472E+03  0.54099108384E+03  0.00000000000E+00 0.  1.
         11    1    1    2    0    0 -0.44082998885E+02  0.17592634704E+02  0.17519449144E+03  0.18151011381E+03  0.00000000000E+00 0. -1.
</event>
<event>
 7    1  0.2641580E-009  0.7377444E+02  0.7561462E-02  0.1347709E+00
          4   -1    0    0  501    0  0.00000000000E+00  0.00000000000E+00  0.64003043855E+02  0.64003043855E+02  0.00000000000E+00 0. -1.
         -4   -1    0    0    0  501 -0.00000000000E+00 -0.00000000000E+00 -0.22197257831E+03  0.22197257831E+03  0.00000000000E+00 0.  1.
         25    2    1    2    0    0 -0.14537351699E+01 -0.66624781334E+01 -0.31917842279E+02  0.12927830633E+03  0.12509048674E+03 0.  0.
          5    1    3    3  502    0  0.42358459647E+02 -0.30890530018E+02  0.20707964215E+02  0.56522173794E+02  0.41800000000E+01 0.  1.
         -5    1    3    3    0  502 -0.43812194817E+02  0.24228051884E+02 -0.52625806494E+02  0.72756132539E+02  0.41800000000E+01 0.  1.
        -11    1    1    2    0    0  0.11282172346E+02  0.23019013381E+02 -0.13370288325E+03  0.13613825098E+03  0.00000000000E+00 0.  1.
         11    1    1    2    0    0 -0.98284371766E+01 -0.16356535247E+02  0.76511910771E+01  0.20559064851E+02  0.00000000000E+00 0. -1.
</event>
<event>
 7    1  0.2641580E-009  0.1335777E+03  0.7561462E-02  0.1222242E+00
         -1   -1    0    0    0  501 -0.00000000000E+00  0.00000000000E+00  0.25866084957E+02  0.25866084957E+02  0.00000000000E+00 0.  1.
          1   -1    0    0  501    0  0.00000000000E+00 -0.00000000000E+00 -0.95130676652E+03  0.95130676652E+03  0.00000000000E+00 0. -1.
         25    2    1    2    0    0 -0.27585045362E+02 -0.99262323035E+02 -0.64921033493E+03  0.66913113920E+03  0.12509388062E+03 0.  0.
          5    1    3    3  502    0  0.99129014332E+01 -0.11829548648E+03 -0.44398609539E+03  0.45960114559E+03  0.41800000000E+01 0.  1.
         -5    1    3    3    0  502 -0.37497946795E+02  0.19033163446E+02 -0.20522423955E+03  0.20952999361E+03  0.41800000000E+01 0.  1.
        -11    1    1    2    0    0  0.16159630464E+02  0.18574902391E+02 -0.53852418599E+01  0.25202410310E+02  0.00000000000E+00 0.  1.
         11    1    1    2    0    0  0.11425414898E+02  0.80687420644E+02 -0.27084510477E+03  0.28283930196E+03  0.00000000000E+00 0. -1.
</event>
<event>
 7    1  0.2641580E-009  0.1467655E+03  0.7561462E-02  0.1204505E+00
          1   -1    0    0  501    0  0.00000000000E+00  0.00000000000E+00  0.19081816045E+04  0.19081816045E+04  0.00000000000E+00 0. -1.
         -1   -1    0    0    0  501 -0.00000000000E+00 -0.00000000000E+00 -0.24873507254E+02  0.24873507254E+02  0.00000000000E+00 0.  1.
         25    2    1    2    0    0 -0.10457020148E+02 -0.12466563402E+03  0.16041390084E+04  0.16138670104E+04  0.12511554407E+03 0.  0.
          5    1    3    3  502    0 -0.41308387049E+02 -0.10695531419E+03  0.14858766607E+04  0.14902995489E+04  0.41800000000E+01 0. -1.
         -5    1    3    3    0  502  0.30851366902E+02 -0.17710319836E+02  0.11826234769E+03  0.12356746154E+03  0.41800000000E+01 0. -1.
        -11    1    1    2    0    0 -0.25565204044E+02  0.87768859764E+02  0.23177263136E+03  0.24914956361E+03  0.00000000000E+00 0. -1.
         11    1    1    2    0    0  0.36022224191E+02  0.36896774257E+02  0.47396457445E+02  0.70038537710E+02  0.00000000000E+00 0.  1.
</event>
<event>
 7    1  0.2641580E-009  0.1192615E+03  0.7561462E-02  0.1244320E+00
          4   -1    0    0  501    0  0.00000000000E+00  0.00000000000E+00  0.32341268455E+03  0.32341268455E+03  0.00000000000E+00 0. -1.
         -4   -1    0    0    0  501 -0.00000000000E+00 -0.00000000000E+00 -0.59358211561E+02  0.59358211561E+02  0.00000000000E+00 0.  1.
         25    2    1    2    0    0  0.83456651864E+02 -0.18207890484E+02  0.14000596566E+03  0.20626381999E+03  0.12508618228E+03 0.  0.
          5    1    3    3  502    0  0.72955010129E+02 -0.53738147470E+02  0.39257404866E+02  0.98837433360E+02  0.41800000000E+01 0.  1.
         -5    1    3    3    0  502  0.10501641734E+02  0.35530256986E+02  0.10074856080E+03  0.10742638663E+03  0.41800000000E+01 0.  1.
        -11    1    1    2    0    0 -0.61615695251E+02  0.44755095792E+02  0.40701501532E+02  0.86348854814E+02  0.00000000000E+00 0.  1.
         11    1    1    2    0    0 -0.21840956613E+02 -0.26547205309E+02  0.83347005794E+02  0.90158221312E+02  0.00000000000E+00 0. -1.
</event>
<event>
 7    1  0.2641580E-009  0.1377022E+03  0.7561462E-02  0.1216455E+00
         -2   -1    0    0    0  501 -0.00000000000E+00  0.00000000000E+00  0.37728403767E+02  0.37728403767E+02  0.00000000000E+00 0.  1.
          2   -1    0    0  501    0  0.00000000000E+00 -0.00000000000E+00 -0.55684896606E+03  0.55684896606E+03  0.00000000000E+00 0. -1.
         25    2    1    2    0    0  0.68125859419E+02  0.51364428611E+02 -0.37451392189E+03  0.40396391172E+03  0.12508687797E+03 0.  0.
          5    1    3    3  502    0  0.66702437610E+02  0.90128887773E+02 -0.26870847468E+03  0.29119434809E+03  0.41800000000E+01 0. -1.
         -5    1    3    3    0  502  0.14234218096E+01 -0.38764459162E+02 -0.10580544721E+03  0.11276956364E+03  0.41800000000E+01 0. -1.
        -11    1    1    2    0    0  0.11845010230E+02  0.15802582128E+02 -0.23445510575E+02  0.30654817490E+02  0.00000000000E+00 0.  1.
         11    1    1    2    0    0 -0.79970869649E+02 -0.67167010739E+02 -0.12116112983E+03  0.15995864061E+03  0.00000000000E+00 0. -1.
</event>
<event>
 7    1  0.2641580E-009  0.2755117E+03  0.7561462E-02  0.1098166E+00
          2   -1    0    0  501    0  0.00000000000E+00  0.00000000000E+00  0.26376135890E+04  0.26376135890E+04  0.00000000000E+00 0. -1.
         -2   -1    0    0    0  501 -0.00000000000E+00 -0.00000000000E+00 -0.33609307944E+02  0.33609307944E+02  0.00000000000E+00 0.  1.
         25    2    1    2    0    0 -0.85866342192E+02  0.24865507397E+03  0.17327316223E+04  0.17570454365E+04  0.12508963271E+03 0.  0.
          5    1    3    3  502    0 -0.77189401191E+02  0.90640517500E+02  0.10206600542E+04  0.10275885975E+04  0.41800000000E+01 0.  1.
         -5    1    3    3    0  502 -0.86769410011E+01  0.15801455647E+03  0.71207156816E+03  0.72945683898E+03  0.41800000000E+01 0.  1.
        -11    1    1    2    0    0  0.63136680557E+02 -0.73200308113E+02  0.37696708237E+03  0.38916411285E+03  0.00000000000E+00 0. -1.
         11    1    1    2    0    0  0.22729661635E+02 -0.17545476586E+03  0.49430557631E+03  0.52501334759E+03  0.00000000000E+00 0.  1.
</event>
<event>
 7    1  0.2641580E-009  0.1037708E+03  0.7561462E-02  0.1272561E+00
         -1   -1    0    0    0  501 -0.00000000000E+00  0.00000000000E+00  0.28963878792E+03  0.28963878792E+03  0.00000000000E+00 0.  1.
          1   -1    0    0  501    0  0.00000000000E+00 -0.00000000000E+00 -0.74077673553E+02  0.74077673553E+02  0.00000000000E+00 0. -1.
         25    2    1    2    0    0  0.40250926543E+02 -0.88322310533E+02  0.13051199313E+03  0.20518850045E+03  0.12509185721E+03 0.  0.
          5    1    3    3  502    0  0.30746883822E+01 -0.54880274211E+02 -0.99649698165E+01  0.56018490069E+02  0.41800000000E+01 0.  1.
         -5    1    3    3    0  502  0.37176238160E+02 -0.33442036321E+02  0.14047696295E+03  0.14917001038E+03  0.41800000000E+01 0.  1.
        -11    1    1    2    0    0  0.51963790218E+01  0.15985685721E+02 -0.18029857155E+02  0.24649954400E+02  0.00000000000E+00 0. -1.
         11    1    1    2    0    0 -0.45447305564E+02  0.72336624811E+02  0.10307897839E+03  0.13387800663E+03  0.00000000000E+00 0.  1.
</event>
<event>
 7    1  0.2641580E-009  0.1192792E+03  0.7561462E-02  0.1244291E+00
         -2   -1    0    0    0  501 -0.00000000000E+00  0.00000000000E+00  0.24029586691E+03  0.24029586691E+03  0.00000000000E+00 0. -1.
          2   -1    0    0  501    0  0.00000000000E+00 -0.00000000000E+00 -0.63291153019E+02  0.63291153019E+02  0.00000000000E+00 0.  1.
         25    2    1    2    0    0  0.34819058833E+02  0.42778284696E+02  0.10167782979E+03  0.17037702477E+03  0.12509037132E+03 0.  0.
          5    1    3    3  502    0 -0.32087094851E+02  0.58666008869E+02  0.59450633517E+02  0.89571940239E+02  0.41800000000E+01 0.  1.
         -5    1    3    3    0  502  0.66906153685E+02 -0.15887724173E+02  0.42227196272E+02  0.80805084526E+02  0.41800000000E+01 0.  1.
        -11    1    1    2    0    0  0.16753789224E+02  0.16896364891E+02  0.40539848256E+02  0.47006977105E+02  0.00000000000E+00 0. -1.
         11    1    1    2    0    0 -0.51572848057E+02 -0.59674649587E+02  0.34787035850E+02  0.86203018063E+02  0.00000000000E+00 0.  1.
</event>
<event>
 7    1  0.2641580E-009  0.6708400E+02  0.7561462E-02  0.1370299E+00
          1   -1    0    0  501    0  0.00000000000E+00  0.00000000000E+00  0.14245180087E+03  0.14245180087E+03  0.00000000000E+00 0. -1.
         -1   -1    0    0    0  501 -0.00000000000E+00 -0.00000000000E+00 -0.88034529752E+02  0.88034529752E+02  0.00000000000E+00 0.  1.
         25    2    1    2    0    0 -0.13002073466E+02 -0.16022927286E+02  0.53026012572E+02  0.13742341271E+03  0.12509056015E+03 0.  0.
          5    1    3    3  502    0 -0.23179200533E+02  0.18075647404E+01  0.91020026740E+02  0.94035420430E+02  0.41800000000E+01 0.  1.
         -5    1    3    3    0  502  0.10177127067E+02 -0.17830492026E+02 -0.37994014169E+02  0.43387992278E+02  0.41800000000E+01 0.  1.
        -11    1    1    2    0    0  0.49128399469E+02  0.20415828257E+02  0.13177971785E+02  0.54809347909E+02  0.00000000000E+00 0. -1.
         11    1    1    2    0    0 -0.36126326003E+02 -0.43929009710E+01 -0.11786713236E+02  0.38253570008E+02  0.00000000000E+00 0.  1.
</event>
<event>
 7    1  0.2641580E-009  0.1197849E+03  0.7561462E-02  0.1243452E+00
         -1   -1    0    0    0  501 -0.00000000000E+00  0.00000000000E+00  0.18476896079E+03  0.18476896079E+03  0.00000000000E+00 0.  1.
          1   -1    0    0  501    0  0.00000000000E+00 -0.00000000000E+00 -0.98368410138E+02  0.98368410138E+02  0.00000000000E+00 0. -1.
         25    2    1    2    0    0  0.83234350639E+01 -0.80395894869E+02  0.47157327546E+02  0.15621753330E+03  0.12508926687E+03 0.  0.
          5    1    3    3  502    0  0.49725527618E+02  0.47304815476E+01 -0.55992486609E+00  0.50127751480E+02  0.41800000000E+01 0.  1.
         -5    1    3    3    0  502 -0.41402092554E+02 -0.85126376417E+02  0.47717252412E+02  0.10608978182E+03  0.41800000000E+01 0.  1.
        -11    1    1    2    0    0 -0.27404762215E+02  0.63672866793E+02  0.61876823538E+02  0.92919299658E+02  0.00000000000E+00 0.  1.
         11    1    1    2    0    0  0.19081327151E+02  0.16723028076E+02 -0.22633600428E+02  0.34000537969E+02  0.00000000000E+00 0. -1.
</event>
<event>
 7    1  0.2641580E-009  0.9365854E+02  0.7561462E-02  0.1294226E+00
          2   -1    0    0  501    0  0.00000000000E+00  0.00000000000E+00  0.27983567345E+03  0.27983567345E+03  0.00000000000E+00 0. -1.
         -2   -1    0    0    0  501 -0.00000000000E+00 -0.00000000000E+00 -0.50423833083E+02  0.50423833083E+02  0.00000000000E+00 0.  1.
         25    2    1    2    0    0  0.20335180660E+01  0.42490733227E+02  0.16566430752E+03  0.21190167170E+03  0.12509219831E+03 0.  0.
          5    1    3    3  502    0  0.54406650644E+01 -0.37591931174E+02  0.10365545130E+03  0.11047478948E+03  0.41800000000E+01 0. -1.
         -5    1    3    3    0  502 -0.34071469983E+01  0.80082664400E+02  0.62008856215E+02  0.10142688222E+03  0.41800000000E+01 0. -1.
        -11    1    1    2    0    0 -0.64029883778E+01 -0.55112630694E+02  0.79977385264E+02  0.97338494317E+02  0.00000000000E+00 0.  1.
         11    1    1    2    0    0  0.43694703118E+01  0.12621897467E+02 -0.16229852412E+02  0.21019340517E+02  0.00000000000E+00 0. -1.
</event>
<event>
 7    1  0.2641580E-009  0.1218514E+03  0.7561462E-02  0.1240074E+00
         -1   -1    0    0    0  501 -0.00000000000E+00  0.00000000000E+00  0.81962721490E+02  0.81962721490E+02  0.00000000000E+00 0.  1.
          1   -1    0    0  501    0  0.00000000000E+00 -0.00000000000E+00 -0.22535641978E+03  0.22535641978E+03  0.00000000000E+00 0. -1.
         25    2    1    2    0    0  0.22137102276E+02  0.69658863113E+02 -0.12015234054E+03  0.18822000907E+03  0.12509108029E+03 0.  0.
          5    1    3    3  502    0  0.54958447936E+02  0.87296391554E+02 -0.10647641643E+03  0.14830977929E+03  0.41800000000E+01 0.  1.
         -5    1    3    3    0  502 -0.32821345659E+02 -0.17637528441E+02 -0.13675924115E+02  0.39910229776E+02  0.41800000000E+01 0.  1.
        -11    1    1    2    0    0  0.10598161882E+01  0.15077390074E+02 -0.27241970821E+02  0.31154066765E+02  0.00000000000E+00 0. -1.
         11    1    1    2    0    0 -0.23196918465E+02 -0.84736253187E+02  0.40006130713E+01  0.87945065441E+02  0.00000000000E+00 0.  1.
</event>
<event>
 7    1  0.2641580E-009  0.1408114E+03  0.7561462E-02  0.1212241E+00
          1   -1    0    0  501    0  0.00000000000E+00  0.00000000000E+00  0.53635850455E+03  0.53635850455E+03  0.00000000000E+00 0. -1.
         -1   -1    0    0    0  501 -0.00000000000E+00 -0.00000000000E+00 -0.55837410631E+02  0.55837410631E+02  0.00000000000E+00 0.  1.
         25    2    1    2    0    0 -0.31904150784E+02  0.10162031206E+03  0.11463975839E+03  0.20033969993E+03  0.12509659670E+03 0.  0.
          5    1    3    3  502    0 -0.22572258253E+02 -0.13991236807E+02  0.71723739583E+02  0.76596532361E+02  0.41800000000E+01 0.  1.
         -5    1    3    3    0  502 -0.93318925313E+01  0.11561154887E+03  0.42916018802E+02  0.12374316757E+03  0.41800000000E+01 0.  1.
        -11    1    1    2    0    0  0.22772238706E+02  0.11276142441E+02  0.46576474426E+02  0.53057461436E+02  0.00000000000E+00 0.  1.
         11    1    1    2    0    0  0.91319120778E+01 -0.11289645451E+03  0.31930486111E+03  0.33879875381E+03  0.00000000000E+00 0. -1.
</event>
<event>
 7    1  0.3060693E-009  0.1171992E+03  0.7561462E-02  0.1247790E+00
          1   -1    0    0  501    0  0.00000000000E+00  0.00000000000E+00  0.96152628699E+02  0.96152628699E+02  0.00000000000E+00 0. -1.
         -1   -1    0    0    0  501 -0.00000000000E+00 -0.00000000000E+00 -0.16798508260E+03  0.16798508260E+03  0.00000000000E+00 0.  1.
         25    2    1    2    0    0 -0.55812204744E+02 -0.69701142371E+00 -0.33728407126E+01  0.13701919343E+03  0.12508954909E+03 0.  0.
          5    1    3    3  502    0 -0.33984876629E+02 -0.62485581615E+02  0.29716688070E+00  0.71252932974E+02  0.41800000000E+01 0. -1.
         -5    1    3    3    0  502 -0.21827328116E+02  0.61788570192E+02 -0.36700075933E+01  0.65766260459E+02  0.41800000000E+01 0. -1.
        -11    1    1    2    0    0  0.67459478858E+02  0.23860837894E+02 -0.23674424922E+02  0.75369750352E+02  0.00000000000E+00 0. -1.
         11    1    1    2    0    0 -0.11647274113E+02 -0.23163826470E+02 -0.44785188262E+02  0.51748767509E+02  0.00000000000E+00 0.  1.
</event>
<event>
 7    1  0.2641580E-009  0.1054662E+03  0.7561462E-02  0.1269204E+00
          1   -1    0    0  501    0  0.00000000000E+00  0.00000000000E+00  0.35273621842E+03  0.35273621842E+03  0.00000000000E+00 0. -1.
         -1   -1    0    0    0  501 -0.00000000000E+00 -0.00000000000E+00 -0.33266531120E+02  0.33266531120E+02  0.00000000000E+00 0.  1.
         25    2    1    2    0    0 -0.19112156846E+02 -0.15112178519E+02  0.16548933778E+03  0.20887646169E+03  0.12509597455E+03 0.  0.
          5    1    3    3  502    0 -0.36531282835E+02 -0.62653170758E+02  0.12204669303E+03  0.14203106038E+03  0.41800000000E+01 0. -1.
         -5    1    3    3    0  502  0.17419125988E+02  0.47540992239E+02  0.43442644750E+02  0.66845401309E+02  0.41800000000E+01 0. -1.
        -11    1    1    2    0    0 -0.98910386968E+01  0.44859061325E+02  0.77560755111E+02  0.90143434386E+02  0.00000000000E+00 0.  1.
         11    1    1    2    0    0  0.29003195543E+02 -0.29746882806E+02  0.76419594399E+02  0.86982853463E+02  0.00000000000E+00 0. -1.
</event>
<event>
 7    1  0.2641580E-009  0.1079590E+03  0.7561462E-02  0.1264397E+00
          1   -1    0    0  501    0  0.00000000000E+00  0.00000000000E+00  0.40723934117E+03  0.40723934117E+03  0.00000000000E+00 0. -1.
         -1   -1    0    0    0  501 -0.00000000000E+00 -0.00000000000E+00 -0.37415189428E+02  0.37415189428E+02  0.00000000000E+00 0.  1.
         25    2    1    2    0    0  0.24706722265E+02 -0.62845744234E+02  0.18149290536E+03  0.23053727394E+03  0.12509096804E+03 0.  0.
          5    1    3    3  502    0  0.59282854573E+02 -0.10394024182E+02  0.31926343723E+02  0.68258746022E+02  0.41800000000E+01 0. -1.
         -5    1    3    3    0  502 -0.34576132308E+02 -0.52451720052E+02  0.14956656164E+03  0.16227852792E+03  0.41800000000E+01 0. -1.
        -11    1    1    2    0    0 -0.16180635848E+02  0.75583630522E+02  0.18162037109E+03  0.19738454188E+03  0.00000000000E+00 0. -1.
         11    1    1    2    0    0 -0.85260864171E+01 -0.12737886288E+02  0.67108752907E+01  0.16732714778E+02  0.00000000000E+00 0.  1.
</event>
<event>
 7    1  0.2641580E-009  0.1237707E+03  0.7561462E-02  0.1237003E+00
         -1   -1    0    0    0  501 -0.00000000000E+00  0.00000000000E+00  0.25348885708E+02  0.25348885708E+02  0.00000000000E+00 0.  1.
          1   -1    0    0  501    0  0.00000000000E+00 -0.00000000000E+00 -0.70197616847E+03  0.70197616847E+03  0.00000000000E+00 0. -1.
         25    2    1    2    0    0 -0.65553370314E+01  0.73271302859E+02 -0.30823547089E+03  0.34068915501E+03  0.12509331941E+03 0.  0.
          5    1    3    3  502    0 -0.54885967821E+02  0.56555516729E+02 -0.10664430402E+03  0.13267055407E+03  0.41800000000E+01 0. -1.
         -5    1    3    3    0  502  0.48330630790E+02  0.16715786130E+02 -0.20159116687E+03  0.20801860095E+03  0.41800000000E+01 0. -1.
        -11    1    1    2    0    0 -0.15972695051E+02 -0.88621877214E+02 -0.28771117632E+03  0.30147418644E+03  0.00000000000E+00 0.  1.
         11    1    1    2    0    0  0.22528032082E+02  0.15350574354E+02 -0.80680635547E+02  0.85161712728E+02  0.00000000000E+00 0. -1.
</event>
<event>
 7    1  0.2641580E-009  0.1088337E+03  0.7561462E-02  0.1262745E+00
         -1   -1    0    0    0  501 -0.00000000000E+00  0.00000000000E+00  0.45358037308E+03  0.45358037308E+03  0.00000000000E+00 0.  1.
          1   -1    0    0  501    0  0.00000000000E+00 -0.00000000000E+00 -0.27636181774E+02  0.27636181774E+02  0.00000000000E+00 0. -1.
         25    2    1    2    0    0  0.80644380468E+01  0.56012705543E+01  0.19482866141E+03  0.23173784718E+03  0.12509121918E+03 0.  0.
          5    1    3    3  502    0 -0.55807212872E+02 -0.13692241761E+02  0.10492418258E+03  0.11970162481E+03  0.41800000000E+01 0.  1.
         -5    1    3    3    0  502  0.63871650919E+02  0.19293512315E+02  0.89904478833E+02  0.11203622237E+03  0.41800000000E+01 0.  1.
        -11    1    1    2    0    0 -0.11316553035E+02  0.43013314058E+02  0.94740444679E+02  0.10466117435E+03  0.00000000000E+00 0.  1.
         11    1    1    2    0    0  0.32521149884E+01 -0.48614584612E+02  0.13637508522E+03  0.14481753332E+03  0.00000000000E+00 0. -1.
</event>
<event>
 7    1  0.2641580E-009  0.8913375E+02  0.7561462E-02  0.1304963E+00
         -2   -1    0    0    0  501 -0.00000000000E+00  0.00000000000E+00  0.31126684269E+03  0.31126684269E+03  0.00000000000E+00 0.  1.
          2   -1    0    0  501    0  0.00000000000E+00 -0.00000000000E+00 -0.68168778332E+02  0.68168778332E+02  0.00000000000E+00 0. -1.
         25    2    1    2    0    0 -0.76056763497E+02 -0.18984658012E+02  0.19859130290E+03  0.24746414013E+03  0.12511972886E+03 0.  0.
          5    1    3    3  502    0 -0.79782030689E+01 -0.81248667856E+01  0.17358859268E+03  0.17401188779E+03  0.41800000000E+01 0. -1.
         -5    1    3    3    0  502 -0.68078560428E+02 -0.10859791227E+02  0.25002710223E+02  0.73452252341E+02  0.41800000000E+01 0. -1.
        -11    1    1    2    0    0  0.61493352549E+02  0.38627432939E+02  0.66956749723E+02  0.98776096889E+02  0.00000000000E+00 0.  1.
         11    1    1    2    0    0  0.14563410948E+02 -0.19642774926E+02 -0.22449988272E+02  0.33195383996E+02  0.00000000000E+00 0. -1.
</event>
<event>
 7    1  0.2641580E-009  0.8487936E+02  0.7561462E-02  0.1315748E+00
         -1   -1    0    0    0  501 -0.00000000000E+00  0.00000000000E+00  0.32715497616E+02  0.32715497616E+02  0.00000000000E+00 0.  1.
          1   -1    0    0  501    0  0.00000000000E+00 -0.00000000000E+00 -0.39144201621E+03  0.39144201621E+03  0.00000000000E+00 0. -1.
         25    2    1    2    0    0  0.99542107319E+01 -0.17101416895E+02 -0.26264267384E+03  0.29158128118E+03  0.12508766783E+03 0.  0.
          5    1    3    3  502    0  0.46974305963E+02 -0.21004953123E+02 -0.24462636819E+03  0.25001465135E+03  0.41800000000E+01 0. -1.
         -5    1    3    3    0  502 -0.37020095231E+02  0.39035362273E+01 -0.18016305644E+02  0.41566629825E+02  0.41800000000E+01 0. -1.
        -11    1    1    2    0    0  0.34264033400E+02  0.36697532911E+01 -0.73419927340E+02  0.81104727388E+02  0.00000000000E+00 0. -1.
         11    1    1    2    0    0 -0.44218244132E+02  0.13431663604E+02 -0.22663917421E+02  0.51471505264E+02  0.00000000000E+00 0.  1.
</event>
<event>
 7    1  0.2641580E-009  0.1180447E+03  0.7561462E-02  0.1246358E+00
         -3   -1    0    0    0  501 -0.00000000000E+00  0.00000000000E+00  0.24249312693E+03  0.24249312693E+03  0.00000000000E+00 0.  1.
          3   -1    0    0  501    0  0.00000000000E+00 -0.00000000000E+00 -0.62761204658E+02  0.62761204658E+02  0.00000000000E+00 0. -1.
         25    2    1    2    0    0 -0.28712386958E+02  0.48149647362E+02  0.98824161099E+02  0.16896847778E+03  0.12506535076E+03 0.  0.
          5    1    3    3  502    0 -0.44693410596E+02 -0.31922084480E+02  0.35162751066E+02  0.65348388586E+02  0.41800000000E+01 0. -1.
         -5    1    3    3    0  502  0.15981023638E+02  0.80071731842E+02  0.63661410033E+02  0.10362008919E+03  0.41800000000E+01 0. -1.
        -11    1    1    2    0    0 -0.21054092237E+02 -0.44644539755E+02  0.69269002829E+02  0.85056478194E+02  0.00000000000E+00 0.  1.
         11    1    1    2    0    0  0.49766479194E+02 -0.35051076075E+01  0.11638758348E+02  0.51229375622E+02  0.00000000000E+00 0. -1.
</event>
<event>
 7    1  0.2641580E-009  0.1473983E+03  0.7561462E-02  0.1203707E+00
         -2   -1    0    0    0  501 -0.00000000000E+00  0.00000000000E+00  0.60589583033E+02  0.60589583033E+02  0.00000000000E+00 0.  1.
          2   -1    0    0  501    0  0.00000000000E+00 -0.00000000000E+00 -0.42052220389E+03  0.42052220389E+03  0.00000000000E+00 0. -1.
         25    2    1    2    0    0  0.83907016583E+02  0.76474419528E+02 -0.15287315197E+03  0.22782887530E+03  0.12508825505E+03 0.  0.
          5    1    3    3  502    0  0.10342694646E+03  0.82669267457E+02 -0.15812047209E+03  0.20627868802E+03  0.41800000000E+01 0. -1.
         -5    1    3    3    0  502 -0.19519929878E+02 -0.61948479294E+01  0.52473201179E+01  0.21550187278E+02  0.41800000000E+01 0. -1.
        -11    1    1    2    0    0 -0.57240748419E+02  0.32740885039E+01 -0.54609025576E+02  0.79179344589E+02  0.00000000000E+00 0. -1.
         11    1    1    2    0    0 -0.26666268164E+02 -0.79748508032E+02 -0.15245044331E+03  0.17410356704E+03  0.00000000000E+00 0.  1.
</event>
<event>
 7    1  0.2641580E-009  0.1090754E+03  0.7561462E-02  0.1262292E+00
          2   -1    0    0  501    0  0.00000000000E+00  0.00000000000E+00  0.41148102740E+03  0.41148102740E+03  0.00000000000E+00 0. -1.
         -2   -1    0    0    0  501 -0.00000000000E+00 -0.00000000000E+00 -0.35051198712E+02  0.35051198712E+02  0.00000000000E+00 0.  1.
         25    2    1    2    0    0  0.17346655684E+02 -0.15791285181E+02  0.12911522590E+03  0.18130245596E+03  0.12509823271E+03 0.  0.
          5    1    3    3  502    0  0.61559804187E+02 -0.41721768939E+02  0.89166431268E+02  0.11618278857E+03  0.41800000000E+01 0. -1.
         -5    1    3    3    0  502 -0.44213148503E+02  0.25930483758E+02  0.39948794636E+02  0.65119667393E+02  0.41800000000E+01 0. -1.
        -11    1    1    2    0    0  0.20275522690E+02 -0.27960328730E+02  0.12974304639E+03  0.13426144230E+03  0.00000000000E+00 0. -1.
         11    1    1    2    0    0 -0.37622178374E+02  0.43751613910E+02  0.11757155640E+03  0.13096832785E+03  0.00000000000E+00 0.  1.
</event>
<event>
 7    1  0.2641580E-009  0.3084460E+03  0.7561462E-02  0.1081093E+00
         -2   -1    0    0    0  501 -0.00000000000E+00  0.00000000000E+00  0.69983577369E+02  0.69983577369E+02  0.00000000000E+00 0.  1.
          2   -1    0    0  501    0  0.00000000000E+00 -0.00000000000E+00 -0.15360668506E+04  0.15360668506E+04  0.00000000000E+00 0. -1.
         25    2    1    2    0    0 -0.69512548720E+02  0.29071323314E+03 -0.94352418176E+03  0.99761186135E+03  0.12508143740E+03 0.  0.
          5    1    3    3  502    0 -0.31481266171E+02  0.25071223330E+03 -0.62235228402E+03  0.67170494405E+03  0.41800000000E+01 0.  1.
         -5    1    3    3    0  502 -0.38031282549E+02  0.40000999846E+02 -0.32117189774E+03  0.32590691729E+03  0.41800000000E+01 0.  1.
        -11    1    1    2    0    0 -0.15785003657E+02 -0.79223035880E+02 -0.10287737928E+03  0.13080218241E+03  0.00000000000E+00 0.  1.
         11    1    1    2    0    0  0.85297552377E+02 -0.21149019726E+03 -0.41968171219E+03  0.47763638422E+03  0.00000000000E+00 0. -1.
</event>
<event>
 7    1  0.2641580E-009  0.7820903E+02  0.7561462E-02  0.1334212E+00
         -1   -1    0    0    0  501 -0.00000000000E+00  0.00000000000E+00  0.45364486695E+02  0.45364486695E+02  0.00000000000E+00 0.  1.
          1   -1    0    0  501    0  0.00000000000E+00 -0.00000000000E+00 -0.38762392331E+03  0.38762392331E+03  0.00000000000E+00 0. -1.
         25    2    1    2    0    0  0.11689327867E+02  0.28818144590E+01 -0.30826107291E+03  0.33289171670E+03  0.12508821181E+03 0.  0.
          5    1    3    3  502    0  0.41674316290E+02  0.47545355656E+02 -0.10541859630E+03  0.12299537523E+03  0.41800000000E+01 0.  1.
         -5    1    3    3    0  502 -0.29984988423E+02 -0.44663541197E+02 -0.20284247662E+03  0.20989634147E+03  0.41800000000E+01 0.  1.
        -11    1    1    2    0    0 -0.29810931251E+00  0.16561324920E+02  0.28885195357E+02  0.33297460309E+02  0.00000000000E+00 0.  1.
         11    1    1    2    0    0 -0.11391218554E+02 -0.19443139379E+02 -0.62883559059E+02  0.66799232997E+02  0.00000000000E+00 0. -1.
</event>
<event>
 7    1  0.2641580E-009  0.1502138E+03  0.7561462E-02  0.1200211E+00
          2   -1    0    0  501    0  0.00000000000E+00  0.00000000000E+00  0.58234616440E+02  0.58234616440E+02  0.00000000000E+00 0.  1.
         -2   -1    0    0    0  501 -0.00000000000E+00 -0.00000000000E+00 -0.39679967798E+03  0.39679967798E+03  0.00000000000E+00 0. -1.
         25    2    1    2    0    0  0.99947770080E+02  0.31086030734E+02 -0.15952738796E+03  0.22814926621E+03  0.12508877692E+03 0.  0.
          5    1    3    3  502    0 -0.77612270921E+01 -0.34502453483E+02 -0.23798977488E+02  0.42831293137E+02  0.41800000000E+01 0.  1.
         -5    1    3    3    0  502  0.10770899717E+03  0.65588484217E+02 -0.13572841048E+03  0.18531797307E+03  0.41800000000E+01 0.  1.
        -11    1    1    2    0    0 -0.64744136266E+02  0.27458779231E+02 -0.10235034000E+03  0.12418284839E+03  0.00000000000E+00 0.  1.
         11    1    1    2    0    0 -0.35203633814E+02 -0.58544809965E+02 -0.76687333582E+02  0.10270217982E+03  0.00000000000E+00 0. -1.
</event>
<event>
 7    1  0.2641580E-009  0.1347059E+03  0.7561462E-02  0.1220635E+00
          2   -1    0    0  501    0  0.00000000000E+00  0.00000000000E+00  0.83441829514E+02  0.83441829514E+02  0.00000000000E+00 0. -1.
         -2   -1    0    0    0  501 -0.00000000000E+00 -0.00000000000E+00 -0.33320919100E+03  0.33320919100E+03  0.00000000000E+00 0.  1.
         25    2    1    2    0    0 -0.47717919281E+02 -0.81072708579E+02 -0.23851032735E+03  0.28528227647E+03  0.12509603159E+03 0.  0.
          5    1    3    3  502    0  0.36864988100E+02 -0.35829559766E+02 -0.41794585618E+02  0.66385574394E+02  0.41800000000E+01 0.  1.
         -5    1    3    3    0  502 -0.84582907381E+02 -0.45243148813E+02 -0.19671574173E+03  0.21889670208E+03  0.41800000000E+01 0.  1.
        -11    1    1    2    0    0  0.58223829738E+02  0.22672361018E+02 -0.29767283146E+02  0.69210847772E+02  0.00000000000E+00 0.  1.
         11    1    1    2    0    0 -0.10505910457E+02  0.58400347561E+02  0.18510249013E+02  0.62157896267E+02  0.00000000000E+00 0. -1.
</event>
<event>
 7    1  0.2641580E-009  0.1788377E+03  0.7561462E-02  0.1168933E+00
         -1   -1    0    0    0  501 -0.00000000000E+00  0.00000000000E+00  0.77877389061E+02  0.77877389061E+02  0.00000000000E+00 0.  1.
          1   -1    0    0  501    0  0.00000000000E+00 -0.00000000000E+00 -0.46218143263E+03  0.46218143263E+03  0.00000000000E+00 0. -1.
         25    2    1    2    0    0  0.12210961266E+03 -0.89910350826E+02 -0.24099253290E+03  0.31099778147E+03  0.12509032926E+03 0.  0.
          5    1    3    3  502    0  0.13565258852E+03 -0.63861468436E+02 -0.23782659591E+03  0.28117409917E+03  0.41800000000E+01 0.  1.
         -5    1    3    3    0  502 -0.13542975860E+02 -0.26048882390E+02 -0.31659369946E+01  0.29823682300E+02  0.41800000000E+01 0.  1.
        -11    1    1    2    0    0 -0.11152620956E+03  0.27686454069E+02 -0.82915265968E+02  0.14170242231E+03  0.00000000000E+00 0.  1.
         11    1    1    2    0    0 -0.10583403103E+02  0.62223896757E+02 -0.60396244696E+02  0.87358617905E+02  0.00000000000E+00 0. -1.
</event>
<event>
 7    1  0.2641580E-009  0.1100943E+03  0.7561462E-02  0.1260395E+00
         -3   -1    0    0    0  501 -0.00000000000E+00  0.00000000000E+00  0.36293009895E+02  0.36293009895E+02  0.00000000000E+00 0.  1.
          3   -1    0    0  501    0  0.00000000000E+00 -0.00000000000E+00 -0.56420332890E+03  0.56420332890E+03  0.00000000000E+00 0. -1.
         25    2    1    2    0    0 -0.42016625440E+02  0.81590575083E+02 -0.31028301919E+03  0.34690852535E+03  0.12509018431E+03 0.  0.
          5    1    3    3  502    0 -0.23672479202E+02  0.87342426435E+02 -0.31406962089E+03  0.32687349983E+03  0.41800000000E+01 0.  1.
         -5    1    3    3    0  502 -0.18344146238E+02 -0.57518513524E+01  0.37866017019E+01  0.20035025521E+02  0.41800000000E+01 0.  1.
        -11    1    1    2    0    0  0.36906368105E+01  0.99888782220E+01  0.34905322266E+01  0.11206351031E+02  0.00000000000E+00 0.  1.
         11    1    1    2    0    0  0.38325988630E+02 -0.91579453305E+02 -0.22111783204E+03  0.24238146241E+03  0.00000000000E+00 0. -1.
</event>
<event>
 7    1  0.2641580E-009  0.9915036E+02  0.7561462E-02  0.1282093E+00
          1   -1    0    0  501    0  0.00000000000E+00  0.00000000000E+00  0.11777758392E+03  0.11777758392E+03  0.00000000000E+00 0. -1.
         -1   -1    0    0    0  501 -0.00000000000E+00 -0.00000000000E+00 -0.12804552662E+03  0.12804552662E+03  0.00000000000E+00 0.  1.
         25    2    1    2    0    0 -0.11593365706E+00  0.44336325840E+02  0.39554688924E+02  0.13848092715E+03  0.12508665212E+03 0.  0.
          5    1    3    3  502    0  0.30310181071E+02 -0.16776118825E+02  0.57958955691E+02  0.67652480991E+02  0.41800000000E+01 0. -1.
         -5    1    3    3    0  502 -0.30426114728E+02  0.61112444665E+02 -0.18404266768E+02  0.70828446161E+02  0.41800000000E+01 0. -1.
        -11    1    1    2    0    0 -0.33119398812E+02  0.70039517762E+01 -0.19711434108E+02  0.39172573987E+02  0.00000000000E+00 0. -1.
         11    1    1    2    0    0  0.33235332469E+02 -0.51340277616E+02 -0.30111197519E+02  0.68169609402E+02  0.00000000000E+00 0.  1.
</event>
<event>
 7    1  0.2641580E-009  0.1719061E+03  0.7561462E-02  0.1175875E+00
         -2   -1    0    0    0  501 -0.00000000000E+00  0.00000000000E+00  0.15349423790E+02  0.15349423790E+02  0.00000000000E+00 0.  1.
          2   -1    0    0  501    0  0.00000000000E+00 -0.00000000000E+00 -0.22544758876E+04  0.22544758876E+04  0.00000000000E+00 0. -1.
         25    2    1    2    0    0 -0.11507598919E+03  0.65502354264E+02 -0.15896028240E+04  0.16000056393E+04  0.12509143138E+03 0.  0.
          5    1    3    3  502    0 -0.43108178867E+02 -0.36845525065E+02 -0.47157119434E+03  0.47498712776E+03  0.41800000000E+01 0.  1.
         -5    1    3    3    0  502 -0.71967810320E+02  0.10234787933E+03 -0.11180316296E+04  0.11250185116E+04  0.41800000000E+01 0.  1.
        -11    1    1    2    0    0  0.12480322865E+03 -0.34812952362E+02 -0.47515307953E+03  0.49250201677E+03  0.00000000000E+00 0.  1.
         11    1    1    2    0    0 -0.97272394656E+01 -0.30689401902E+02 -0.17437056035E+03  0.17731765533E+03  0.00000000000E+00 0. -1.
</event>
<event>
 7    1  0.2641580E-009  0.2437291E+03  0.7561462E-02  0.1117333E+00
          2   -1    0    0  501    0  0.00000000000E+00  0.00000000000E+00  0.28714187623E+03  0.28714187623E+03  0.00000000000E+00 0. -1.
         -2   -1    0    0    0  501 -0.00000000000E+00 -0.00000000000E+00 -0.35936588467E+03  0.35936588467E+03  0.00000000000E+00 0.  1.
         25    2    1    2    0    0 -0.12178369397E+03 -0.20063509320E+03  0.15376830819E+03  0.30720893309E+03  0.12508767815E+03 0.  0.
          5    1    3    3  502    0 -0.46754840609E+02 -0.15976765938E+03  0.14574650166E+03  0.22129445373E+03  0.41800000000E+01 0.  1.
         -5    1    3    3    0  502 -0.75028853360E+02 -0.40867433819E+02  0.80218065264E+01  0.85914479358E+02  0.41800000000E+01 0.  1.
        -11    1    1    2    0    0  0.52429281146E+02  0.10378850977E+03 -0.17411725754E+03  0.20937455350E+03  0.00000000000E+00 0.  1.
         11    1    1    2    0    0  0.69354412823E+02  0.96846583433E+02 -0.51875059088E+02  0.12992427431E+03  0.00000000000E+00 0. -1.
</event>
<event>
 7    1  0.2641580E-009  0.1681168E+03  0.7561462E-02  0.1179826E+00
          3   -1    0    0  501    0  0.00000000000E+00  0.00000000000E+00  0.33653442471E+03  0.33653442471E+03  0.00000000000E+00 0. -1.
         -3   -1    0    0    0  501 -0.00000000000E+00 -0.00000000000E+00 -0.11483194594E+03  0.11483194594E+03  0.00000000000E+00 0.  1.
         25    2    1    2    0    0  0.87638607336E+02  0.95735060908E+02  0.22906354280E+03  0.29148617315E+03  0.12509338558E+03 0.  0.
          5    1    3    3  502    0  0.67270352202E+02  0.12550610784E+03  0.16630715877E+03  0.21898088238E+03  0.41800000000E+01 0. -1.
         -5    1    3    3    0  502  0.20368255135E+02 -0.29771046936E+02  0.62756384034E+02  0.72505290771E+02  0.41800000000E+01 0. -1.
        -11    1    1    2    0    0  0.25867034445E+01 -0.60570337206E+02 -0.15878900028E+02  0.62670537336E+02  0.00000000000E+00 0.  1.
         11    1    1    2    0    0 -0.90225310781E+02 -0.35164723703E+02  0.85178359917E+01  0.97209660161E+02  0.00000000000E+00 0. -1.
</event>
<event>
 7    1  0.2641580E-009  0.9237971E+02  0.7561462E-02  0.1297189E+00
         -2   -1    0    0    0  501 -0.00000000000E+00  0.00000000000E+00  0.11087106888E+03  0.11087106888E+03  0.00000000000E+00 0.  1.
          2   -1    0    0  501    0  0.00000000000E+00 -0.00000000000E+00 -0.11741322319E+03  0.11741322319E+03  0.00000000000E+00 0. -1.
         25    2    1    2    0    0  0.19541007415E+02 -0.13133242118E+01  0.29389967282E+02  0.12998088442E+03  0.12509070447E+03 0.  0.
          5    1    3    3  502    0  0.46510487078E+02 -0.48200823992E+02 -0.23004474551E+01  0.67151390903E+02  0.41800000000E+01 0.  1.
         -5    1    3    3    0  502 -0.26969479663E+02  0.46887499780E+02  0.31690414737E+02  0.62829493514E+02  0.41800000000E+01 0.  1.
        -11    1    1    2    0    0  0.87942399833E+01 -0.23900078581E+02  0.18841868766E+02  0.31679148215E+02  0.00000000000E+00 0.  1.
         11    1    1    2    0    0 -0.28335247398E+02  0.25213402793E+02 -0.54773990355E+02  0.66624259432E+02  0.00000000000E+00 0. -1.
</event>
<event>
 7    1  0.2641580E-009  0.1229161E+03  0.7561462E-02  0.1238362E+00
         -2   -1    0    0    0  501 -0.00000000000E+00  0.00000000000E+00  0.13638424152E+02  0.13638424152E+02  0.00000000000E+00 0.  1.
          2   -1    0    0  501    0  0.00000000000E+00 -0.00000000000E+00 -0.20305560203E+04  0.20305560203E+04  0.00000000000E+00 0. -1.
         25    2    1    2    0    0  0.51361136877E+02 -0.82735899263E+02 -0.15321536046E+04  0.15403329071E+04  0.12509037285E+03 0.  0.
          5    1    3    3  502    0 -0.10621736513E+02 -0.61613474011E+02 -0.12069553815E+04  0.12085809061E+04  0.41800000000E+01 0. -1.
         -5    1    3    3    0  502  0.61982873391E+02 -0.21122425251E+02 -0.32519822312E+03  0.33175200100E+03  0.41800000000E+01 0. -1.
        -11    1    1    2    0    0 -0.32886600708E+02  0.10891957702E+00 -0.43414599272E+02  0.54464371837E+02  0.00000000000E+00 0.  1.
         11    1    1    2    0    0 -0.18474536169E+02  0.82626979686E+02 -0.44134939233E+03  0.44939716551E+03  0.00000000000E+00 0. -1.
</event>
<event>
 7    1  0.2641580E-009  0.9678980E+02  0.7561462E-02  0.1287195E+00
         -2   -1    0    0    0  501 -0.00000000000E+00  0.00000000000E+00  0.27559291970E+02  0.27559291970E+02  0.00000000000E+00 0.  1.
          2   -1    0    0  501    0  0.00000000000E+00 -0.00000000000E+00 -0.50641332141E+03  0.50641332141E+03  0.00000000000E+00 0. -1.
         25    2    1    2    0    0  0.45128130286E+02  0.15807934989E+02 -0.31882860867E+03  0.34581154753E+03  0.12508999058E+03 0.  0.
          5    1    3    3  502    0 -0.32395327313E+02  0.90083248215E+00 -0.23932857510E+02  0.40503367755E+02  0.41800000000E+01 0.  1.
         -5    1    3    3    0  502  0.77523457599E+02  0.14907102507E+02 -0.29489575116E+03  0.30530817977E+03  0.41800000000E+01 0.  1.
        -11    1    1    2    0    0 -0.49429670571E+02  0.14283225916E+02 -0.42399489254E+02  0.66670979926E+02  0.00000000000E+00 0.  1.
         11    1    1    2    0    0  0.43015402850E+01 -0.30091160905E+02 -0.11762593151E+03  0.12149008592E+03  0.00000000000E+00 0. -1.
</event>
<event>
 7    1  0.2641580E-009  0.2627956E+03  0.7561462E-02  0.1105475E+00
          1   -1    0    0  501    0  0.00000000000E+00  0.00000000000E+00  0.24060874639E+03  0.24060874639E+03  0.00000000000E+00 0. -1.
         -1   -1    0    0    0  501 -0.00000000000E+00 -0.00000000000E+00 -0.33546492124E+03  0.33546492124E+03  0.00000000000E+00 0.  1.
         25    2    1    2    0    0  0.14320306826E+03 -0.19547532603E+03 -0.14787176514E+03  0.31021228436E+03  0.12509148890E+03 0.  0.
          5    1    3    3  502    0  0.15799793343E+03 -0.19555016862E+03 -0.15260732402E+03  0.29412528481E+03  0.41800000000E+01 0.  1.
         -5    1    3    3    0  502 -0.14794865166E+02  0.74842590862E-01  0.47355588855E+01  0.16086999554E+02  0.41800000000E+01 0.  1.
        -11    1    1    2    0    0 -0.28322486389E+02 -0.39852442602E+01  0.15856852821E+02  0.32702984397E+02  0.00000000000E+00 0.  1.
         11    1    1    2    0    0 -0.11488058187E+03  0.19946057029E+03  0.37158737463E+02  0.23315839887E+03  0.00000000000E+00 0. -1.
</event>
<event>
 7    1  0.2641580E-009  0.1478872E+03  0.7561462E-02  0.1203094E+00
          3   -1    0    0  501    0  0.00000000000E+00  0.00000000000E+00  0.55690008288E+02  0.55690008288E+02  0.00000000000E+00 0. -1.
         -3   -1    0    0    0  501 -0.00000000000E+00 -0.00000000000E+00 -0.70334538393E+03  0.70334538393E+03  0.00000000000E+00 0.  1.
         25    2    1    2    0    0  0.91752020438E+02  0.11278011030E+03 -0.48841292544E+03  0.52472035421E+03  0.12508588191E+03 0.  0.
          5    1    3    3  502    0  0.70485131322E+02  0.57691330873E+02 -0.11557764443E+03  0.14721449551E+03  0.41800000000E+01 0. -1.
         -5    1    3    3    0  502  0.21266889116E+02  0.55088779422E+02 -0.37283528101E+03  0.37750585870E+03  0.41800000000E+01 0. -1.
        -11    1    1    2    0    0 -0.15696446570E+02 -0.20104199579E+02  0.95869819004E+01  0.27248256781E+02  0.00000000000E+00 0. -1.
         11    1    1    2    0    0 -0.76055573867E+02 -0.92675910717E+02 -0.16882943211E+03  0.20706678123E+03  0.00000000000E+00 0.  1.
</event>
<event>
 7    1  0.2641580E-009  0.1417502E+03  0.7561462E-02  0.1210993E+00
          1   -1    0    0  501    0  0.00000000000E+00  0.00000000000E+00  0.46431684016E+03  0.46431684016E+03  0.00000000000E+00 0. -1.
         -1   -1    0    0    0  501 -0.00000000000E+00 -0.00000000000E+00 -0.49408241859E+02  0.49408241859E+02  0.00000000000E+00 0.  1.
         25    2    1    2    0    0 -0.39865705304E+02  0.10185019516E+03  0.26154652454E+03  0.30986510533E+03  0.12508821802E+03 0.  0.
          5    1    3    3  502    0 -0.31570098613E+02  0.12954747402E+03  0.23581904375E+03  0.27093783963E+03  0.41800000000E+01 0. -1.
         -5    1    3    3    0  502 -0.82956066914E+01 -0.27697278860E+02  0.25727480790E+02  0.38927265695E+02  0.41800000000E+01 0. -1.
        -11    1    1    2    0    0  0.51062609463E+02 -0.94723583376E+02  0.15677705874E+03  0.19015518262E+03  0.00000000000E+00 0. -1.
         11    1    1    2    0    0 -0.11196904160E+02 -0.71266117815E+01 -0.34149849678E+01  0.13704794073E+02  0.00000000000E+00 0.  1.
</event>
<event>
 7    1  0.2641580E-009  0.9785465E+02  0.7561462E-02  0.1284873E+00
          1   -1    0    0  501    0  0.00000000000E+00  0.00000000000E+00  0.27960895290E+03  0.27960895290E+03  0.00000000000E+00 0. -1.
         -1   -1    0    0    0  501 -0.00000000000E+00 -0.00000000000E+00 -0.54526043281E+02  0.54526043281E+02  0.00000000000E+00 0.  1.
         25    2    1    2    0    0 -0.19990216514E+02 -0.52320407627E+02  0.15135887445E+03  0.20419702252E+03  0.12509948570E+03 0.  0.
          5    1    3    3  502    0 -0.26235613830E+02 -0.70060453702E+02  0.29022196714E+02  0.80352566282E+02  0.41800000000E+01 0.  1.
         -5    1    3    3    0  502  0.62453973161E+01  0.17740046075E+02  0.12233667773E+03  0.12384445624E+03  0.41800000000E+01 0.  1.
        -11    1    1    2    0    0  0.46532572140E+02  0.58012594101E+02  0.70721000960E+02  0.10262651373E+03  0.00000000000E+00 0. -1.
         11    1    1    2    0    0 -0.26542355626E+02 -0.56921864738E+01  0.30030342150E+01  0.27311459930E+02  0.00000000000E+00 0.  1.
</event>
<event>
 7    1  0.2641580E-009  0.1177851E+03  0.7561462E-02  0.1246796E+00
         -2   -1    0    0    0  501 -0.00000000000E+00  0.00000000000E+00  0.21107682085E+03  0.21107682085E+03  0.00000000000E+00 0.  1.
          2   -1    0    0  501    0  0.00000000000E+00 -0.00000000000E+00 -0.82196575007E+02  0.82196575007E+02  0.00000000000E+00 0. -1.
         25    2    1    2    0    0 -0.31520323471E+02 -0.70498359306E+02  0.76611217688E+02  0.16578765760E+03  0.12511082799E+03 0.  0.
          5    1    3    3  502    0  0.17851524549E+02  0.18582935784E+02  0.56007144478E+02  0.61792192578E+02  0.41800000000E+01 0.  1.
         -5    1    3    3    0  502 -0.49371848020E+02 -0.89081295090E+02  0.20604073210E+02  0.10399546502E+03  0.41800000000E+01 0.  1.
        -11    1    1    2    0    0 -0.24511658568E+02  0.15403456300E+02  0.37752856402E+02  0.47574846697E+02  0.00000000000E+00 0.  1.
         11    1    1    2    0    0  0.56031982039E+02  0.55094903006E+02  0.14516171759E+02  0.79910891567E+02  0.00000000000E+00 0. -1.
</event>
<event>
 7    1  0.2641580E-009  0.1126335E+03  0.7561462E-02  0.1255769E+00
          1   -1    0    0  501    0  0.00000000000E+00  0.00000000000E+00  0.17078722420E+02  0.17078722420E+02  0.00000000000E+00 0. -1.
         -1   -1    0    0    0  501 -0.00000000000E+00 -0.00000000000E+00 -0.14541684764E+04  0.14541684764E+04  0.00000000000E+00 0.  1.
         25    2    1    2    0    0 -0.28077221958E+02 -0.64407480771E+02 -0.12193858630E+04  0.12277973785E+04  0.12509142989E+03 0.  0.
          5    1    3    3  502    0  0.35080430418E+02 -0.63907381619E+02 -0.45797789725E+03  0.46376288854E+03  0.41800000000E+01 0. -1.
         -5    1    3    3    0  502 -0.63157652376E+02 -0.50009915195E+00 -0.76140796577E+03  0.76403448999E+03  0.41800000000E+01 0. -1.
        -11    1    1    2    0    0  0.37084769734E+02  0.17185151363E+02 -0.32823072415E+02  0.52421023038E+02  0.00000000000E+00 0. -1.
         11    1    1    2    0    0 -0.90075477760E+01  0.47222329408E+02 -0.18488081853E+03  0.19102879723E+03  0.00000000000E+00 0.  1.
</event>
<event>
 7    1  0.2641580E-009  0.1271573E+03  0.7561462E-02  0.1231736E+00
          3   -1    0    0  501    0  0.00000000000E+00  0.00000000000E+00  0.14816283823E+03  0.14816283823E+03  0.00000000000E+00 0. -1.
         -3   -1    0    0    0  501 -0.00000000000E+00 -0.00000000000E+00 -0.14089112321E+03  0.14089112321E+03  0.00000000000E+00 0.  1.
         25    2    1    2    0    0  0.45868486303E+02  0.82462314042E+02 -0.85567259704E+01  0.15692450675E+03  0.12509249372E+03 0.  0.
          5    1    3    3  502    0 -0.26637198799E+02  0.77230885394E+02 -0.17224755885E+02  0.83596140066E+02  0.41800000000E+01 0. -1.
         -5    1    3    3    0  502  0.72505685102E+02  0.52314286485E+01  0.86680299149E+01  0.73328366683E+02  0.41800000000E+01 0. -1.
        -11    1    1    2    0    0 -0.20830883902E+02 -0.10146611827E+02 -0.33755482598E+02  0.40942790099E+02  0.00000000000E+00 0.  1.
         11    1    1    2    0    0 -0.25037602400E+02 -0.72315702215E+02  0.49583923590E+02  0.91186664592E+02  0.00000000000E+00 0. -1.
</event>
<event>
 7    1  0.2641580E-009  0.1044773E+03  0.7561462E-02  0.1271153E+00
          1   -1    0    0  501    0  0.00000000000E+00  0.00000000000E+00  0.45129295735E+02  0.45129295735E+02  0.00000000000E+00 0. -1.
         -1   -1    0    0    0  501 -0.00000000000E+00 -0.00000000000E+00 -0.29093925157E+03  0.29093925157E+03  0.00000000000E+00 0.  1.
         25    2    1    2    0    0 -0.21169227250E+02 -0.16931836902E+02 -0.17761081201E+03  0.21892317136E+03  0.12508769377E+03 0.  0.
          5    1    3    3  502    0  0.59142757994E+01  0.46178947705E+02 -0.28610782520E+02  0.54804408087E+02  0.41800000000E+01 0.  1.
         -5    1    3    3    0  502 -0.27083503049E+02 -0.63110784606E+02 -0.14900002949E+03  0.16411876328E+03  0.41800000000E+01 0.  1.
        -11    1    1    2    0    0  0.21472518757E+01 -0.36565715249E+02 -0.15829298871E+02  0.39902743327E+02  0.00000000000E+00 0.  1.
         11    1    1    2    0    0  0.19021975374E+02  0.53497552150E+02 -0.52369844957E+02  0.77242632620E+02  0.00000000000E+00 0. -1.
</event>
<event>
 6    1  0.2641580E-009  0.1012461E+03  0.7561462E-02  0.1277697E+00
         -1   -1    0    0    0  501 -0.00000000000E+00  0.00000000000E+00  0.25018828280E+02  0.25018828280E+02  0.00000000000E+00 0.  1.
          1   -1    0    0  501    0  0.00000000000E+00 -0.00000000000E+00 -0.53253449506E+03  0.53253449506E+03  0.00000000000E+00 0. -1.
          5    1    1    2  502    0 -0.17862608657E+02  0.43307091651E+02 -0.74276854497E+02  0.87915302930E+02  0.41800000000E+01 0. -1.
         -5    1    1    2    0  502  0.50226550166E+02 -0.65618743043E+02 -0.17759054671E+03  0.19591937235E+03  0.41800000000E+01 0. -1.
        -11    1    1    2    0    0 -0.27324281482E+01  0.38741339649E+02 -0.22404360649E+03  0.22738490533E+03  0.00000000000E+00 0. -1.
         11    1    1    2    0    0 -0.29631513361E+02 -0.16429688257E+02 -0.31604659086E+02  0.46333742740E+02  0.00000000000E+00 0.  1.
</event>
<event>
 7    1  0.2641580E-009  0.7182955E+02  0.7561462E-02  0.1353980E+00
         -2   -1    0    0    0  501 -0.00000000000E+00  0.00000000000E+00  0.57361881154E+03  0.57361881154E+03  0.00000000000E+00 0.  1.
          2   -1    0    0  501    0  0.00000000000E+00 -0.00000000000E+00 -0.24737607530E+02  0.24737607530E+02  0.00000000000E+00 0. -1.
         25    2    1    2    0    0 -0.42110519324E+02  0.43907812096E+01  0.36008058994E+03  0.38353075956E+03  0.12508092374E+03 0.  0.
          5    1    3    3  502    0 -0.40862676661E+02 -0.37852765187E+02  0.32097943916E+03  0.32580341149E+03  0.41800000000E+01 0. -1.
         -5    1    3    3    0  502 -0.12478426626E+01  0.42243546396E+02  0.39101150780E+02  0.57727348075E+02  0.41800000000E+01 0. -1.
        -11    1    1    2    0    0  0.32798814433E+02  0.36881111912E+01  0.19717762835E+03  0.19992093816E+03  0.00000000000E+00 0.  1.
         11    1    1    2    0    0  0.93117048910E+01 -0.80788924008E+01 -0.83770142737E+01  0.14904721351E+02  0.00000000000E+00 0. -1.
</event>
<event>
 7    1  0.2641580E-009  0.9090417E+02  0.7561462E-02  0.1300677E+00
          2   -1    0    0  501    0  0.00000000000E+00  0.00000000000E+00  0.38512173606E+03  0.38512173606E+03  0.00000000000E+00 0.  1.
         -2   -1    0    0    0  501 -0.00000000000E+00 -0.00000000000E+00 -0.38795837125E+02  0.38795837125E+02  0.00000000000E+00 0. -1.
         25    2    1    2    0    0  0.23980767395E+02 -0.21452252304E+02  0.11935997465E+03  0.17586858470E+03  0.12509068391E+03 0.  0.
          5    1    3    3  502    0 -0.15828586330E+02  0.18843740648E+02  0.11634264566E+03  0.11899039586E+03  0.41800000000E+01 0. -1.
         -5    1    3    3    0  502  0.39809353725E+02 -0.40295992951E+02  0.30173289909E+01  0.56878188844E+02  0.41800000000E+01 0. -1.
        -11    1    1    2    0    0 -0.60827044501E+02  0.11838382306E+02  0.13784004430E+03  0.15112893320E+03  0.00000000000E+00 0. -1.
         11    1    1    2    0    0  0.36846277106E+02  0.96138699975E+01  0.89125879977E+02  0.96920055275E+02  0.00000000000E+00 0.  1.
</event>
<event>
 7    1  0.2641580E-009  0.1007131E+03  0.7561462E-02  0.1278804E+00
          3   -1    0    0  501    0  0.00000000000E+00  0.00000000000E+00  0.29464832929E+03  0.29464832929E+03  0.00000000000E+00 0. -1.
         -3   -1    0    0    0  501 -0.00000000000E+00 -0.00000000000E+00 -0.51319775858E+02  0.51319775858E+02  0.00000000000E+00 0.  1.
         25    2    1    2    0    0 -0.39716074095E+02  0.31603069482E+02  0.14427653818E+03  0.19758392787E+03  0.12509024158E+03 0.  0.
          5    1    3    3  502    0 -0.35300494373E+02 -0.35016047115E+02  0.11342777003E+03  0.12391763342E+03  0.41800000000E+01 0.  1.
         -5    1    3    3    0  502 -0.44155797222E+01  0.66619116597E+02  0.30848768149E+02  0.73666294442E+02  0.41800000000E+01 0.  1.
        -11    1    1    2    0    0  0.76278694262E+01  0.21374805495E+02  0.80632280773E+02  0.83765335340E+02  0.00000000000E+00 0. -1.
         11    1    1    2    0    0  0.32088204669E+02 -0.52977874978E+02  0.18419734476E+02  0.64618841944E+02  0.00000000000E+00 0.  1.
</event>
<event>
 7    1  0.2641580E-009  0.9197831E+02  0.7561462E-02  0.1298130E+00
          3   -1    0    0  501    0  0.00000000000E+00  0.00000000000E+00  0.17650406254E+03  0.17650406254E+03  0.00000000000E+00 0. -1.
         -3   -1    0    0    0  501 -0.00000000000E+00 -0.00000000000E+00 -0.72121181842E+02  0.72121181842E+02  0.00000000000E+00 0.  1.
         25    2    1    2    0    0  0.83153781459E+01 -0.19073319858E+02  0.40156410879E+02  0.13301097440E+03  0.12508575032E+03 0.  0.
          5    1    3    3  502    0 -0.62280855663E+01  0.33291765904E+02  0.64764829711E+02  0.73205780471E+02  0.41800000000E+01 0.  1.
         -5    1    3    3    0  502  0.14543463712E+02 -0.52365085762E+02 -0.24608418832E+02  0.59805193930E+02  0.41800000000E+01 0.  1.
        -11    1    1    2    0    0  0.21839687902E+02  0.48499023036E+02  0.43217232653E+02  0.68533615119E+02  0.00000000000E+00 0. -1.
         11    1    1    2    0    0 -0.30155066048E+02 -0.29425703178E+02  0.21009237165E+02  0.47080654861E+02  0.00000000000E+00 0.  1.
</event>
<event>
 7    1  0.2641580E-009  0.1063392E+03  0.7561462E-02  0.1267503E+00
          2   -1    0    0  501    0  0.00000000000E+00  0.00000000000E+00  0.13215852209E+03  0.13215852209E+03  0.00000000000E+00 0. -1.
         -2   -1    0    0    0  501 -0.00000000000E+00 -0.00000000000E+00 -0.10039280440E+03  0.10039280440E+03  0.00000000000E+00 0.  1.
         25    2    1    2    0    0 -0.11917938915E+02  0.35344635596E+02  0.23131718888E+02  0.13256469624E+03  0.12508813587E+03 0.  0.
          5    1    3    3  502    0  0.29495622010E+01 -0.38151870349E+02  0.40083605932E+02  0.55573671759E+02  0.41800000000E+01 0.  1.
         -5    1    3    3    0  502 -0.14867501116E+02  0.73496505945E+02 -0.16951887044E+02  0.76991024476E+02  0.41800000000E+01 0.  1.
        -11    1    1    2    0    0  0.36058874986E+02  0.18168240967E+02  0.85877006687E+01  0.41280456004E+02  0.00000000000E+00 0. -1.
         11    1    1    2    0    0 -0.24140936072E+02 -0.53512876563E+02  0.46298131488E-01  0.58706174258E+02  0.00000000000E+00 0.  1.
</event>
<event>
 7    1  0.2641580E-009  0.4839957E+02  0.7561462E-02  0.1454170E+00
         -4   -1    0    0    0  501 -0.00000000000E+00  0.00000000000E+00  0.10623137353E+03  0.10623137353E+03  0.00000000000E+00 0.  1.
          4   -1    0    0  501    0  0.00000000000E+00 -0.00000000000E+00 -0.13448314004E+03  0.13448314004E+03  0.00000000000E+00 0. -1.
         25    2    1    2    0    0  0.21970207428E+02 -0.18445401984E+02  0.26137325462E+02  0.13097166598E+03  0.12508994620E+03 0.  0.
          5    1    3    3  502    0 -0.16794240927E+01 -0.12157358606E+02  0.75027513596E+02  0.76139490608E+02  0.41800000000E+01 0. -1.
         -5    1    3    3    0  502  0.23649631521E+02 -0.62880433783E+01 -0.48890188135E+02  0.54832175376E+02  0.41800000000E+01 0. -1.
        -11    1    1    2    0    0 -0.15942030544E+01 -0.17562647307E+02  0.18732804243E+02  0.25727534251E+02  0.00000000000E+00 0.  1.
         11    1    1    2    0    0 -0.20376004373E+02  0.36008049291E+02 -0.73121896218E+02  0.84015313333E+02  0.00000000000E+00 0. -1.
</event>
<event>
 7    1  0.2641580E-009  0.1199271E+03  0.7561462E-02  0.1243217E+00
         -1   -1    0    0    0  501 -0.00000000000E+00  0.00000000000E+00  0.36330890911E+02  0.36330890911E+02  0.00000000000E+00 0.  1.
          1   -1    0    0  501    0  0.00000000000E+00 -0.00000000000E+00 -0.50657815484E+03  0.50657815484E+03  0.00000000000E+00 0. -1.
         25    2    1    2    0    0 -0.11040144601E+02 -0.72684463403E+02 -0.32780360067E+03  0.35847987087E+03  0.12509077182E+03 0.  0.
          5    1    3    3  502    0  0.55234198487E+02 -0.32932053390E+02 -0.18721612745E+03  0.19799668583E+03  0.41800000000E+01 0. -1.
         -5    1    3    3    0  502 -0.66274343088E+02 -0.39752410014E+02 -0.14058747322E+03  0.16048318504E+03  0.41800000000E+01 0. -1.
        -11    1    1    2    0    0  0.35536552914E+02  0.61630152873E+02 -0.14049920999E+03  0.15748380979E+03  0.00000000000E+00 0. -1.
         11    1    1    2    0    0 -0.24496408313E+02  0.11054310531E+02 -0.19444532651E+01  0.26945365094E+02  0.00000000000E+00 0.  1.
</event>
<event>
 7    1  0.2641580E-009  0.1003630E+03  0.7561462E-02  0.1279535E+00
         -1   -1    0    0    0  501 -0.00000000000E+00  0.00000000000E+00  0.36876700546E+03  0.36876700546E+03  0.00000000000E+00 0.  1.
          1   -1    0    0  501    0  0.00000000000E+00 -0.00000000000E+00 -0.34213702191E+02  0.34213702191E+02  0.00000000000E+00 0. -1.
         25    2    1    2    0    0 -0.75891476853E+01 -0.25377986683E+02  0.15638969744E+03  0.20200904398E+03  0.12509308141E+03 0.  0.
          5    1    3    3  502    0  0.41285153775E+02  0.19248021383E+02  0.19154780935E+02  0.49591615038E+02  0.41800000000E+01 0.  1.
         -5    1    3    3    0  502 -0.48874301461E+02 -0.44626008066E+02  0.13723491650E+03  0.15241742895E+03  0.41800000000E+01 0.  1.
        -11    1    1    2    0    0  0.41254593965E+02 -0.71336206533E+01  0.11481347184E+03  0.12220868784E+03  0.00000000000E+00 0.  1.
         11    1    1    2    0    0 -0.33665446279E+02  0.32511607336E+02  0.63350133989E+02  0.78762975828E+02  0.00000000000E+00 0. -1.
</event>
<event>
 7    1  0.2641580E-009  0.1062018E+03  0.7561462E-02  0.1267770E+00
          2   -1    0    0  501    0  0.00000000000E+00  0.00000000000E+00  0.18400032266E+03  0.18400032266E+03  0.00000000000E+00 0. -1.
         -2   -1    0    0    0  501 -0.00000000000E+00 -0.00000000000E+00 -0.88686273260E+02  0.88686273260E+02  0.00000000000E+00 0.  1.
         25    2    1    2    0    0  0.43308449466E+02  0.24134987775E+02  0.10051281977E+03  0.16795536129E+03  0.12509219407E+03 0.  0.
          5    1    3    3  502    0 -0.15503891105E+02 -0.25905464419E+02  0.83340185127E+02  0.88738506767E+02  0.41800000000E+01 0.  1.
         -5    1    3    3    0  502  0.58812340571E+02  0.50040452194E+02  0.17172634640E+02  0.79216854518E+02  0.41800000000E+01 0.  1.
        -11    1    1    2    0    0 -0.29828928825E+02 -0.59602166616E+02 -0.26123887376E+01  0.66700883315E+02  0.00000000000E+00 0. -1.
         11    1    1    2    0    0 -0.13479520641E+02  0.35467178841E+02 -0.25863816292E+01  0.38030351321E+02  0.00000000000E+00 0.  1.
</event>
<event>
 7    1  0.2641580E-009  0.1145921E+03  0.7561462E-02  0.1252295E+00
         -1   -1    0    0    0  501 -0.00000000000E+00  0.00000000000E+00  0.16892656433E+03  0.16892656433E+03  0.00000000000E+00 0.  1.
          1   -1    0    0  501    0  0.00000000000E+00 -0.00000000000E+00 -0.12883734359E+03  0.12883734359E+03  0.00000000000E+00 0. -1.
         25    2    1    2    0    0 -0.26055687054E+02  0.81787530634E+02  0.73242118134E+02  0.16846310036E+03  0.12508920545E+03 0.  0.
          5    1    3    3  502    0  0.19481850771E+02 -0.48026652302E+01  0.67308667863E+02  0.70360054522E+02  0.41800000000E+01 0.  1.
         -5    1    3    3    0  502 -0.45537537825E+02  0.86590195864E+02  0.59334502708E+01  0.98103045840E+02  0.41800000000E+01 0.  1.
        -11    1    1    2    0    0  0.43349683516E+02 -0.22170364726E+02 -0.44774544902E+02  0.66147411167E+02  0.00000000000E+00 0.  1.
         11    1    1    2    0    0 -0.17293996462E+02 -0.59617165908E+02  0.11621647505E+02  0.63153396388E+02  0.00000000000E+00 0. -1.
</event>
<event>
 7    1  0.2641580E-009  0.1176478E+03  0.7561462E-02  0.1247029E+00
          1   -1    0    0  501    0  0.00000000000E+00  0.00000000000E+00  0.13038705134E+03  0.13038705134E+03  0.00000000000E+00 0. -1.
         -1   -1    0    0    0  501 -0.00000000000E+00 -0.00000000000E+00 -0.12726235761E+03  0.12726235761E+03  0.00000000000E+00 0.  1.
         25    2    1    2    0    0 -0.14410669703E+02  0.59605002778E+02  0.29322774956E+02  0.14236453841E+03  0.12508961950E+03 0.  0.
          5    1    3    3  502    0 -0.59638054259E+02  0.47812794378E+02  0.49630586753E+02  0.91232825033E+02  0.41800000000E+01 0. -1.
         -5    1    3    3    0  502  0.45227384555E+02  0.11792208400E+02 -0.20307811797E+02  0.51131713375E+02  0.41800000000E+01 0. -1.
        -11    1    1    2    0    0  0.48066104662E+02 -0.61563523428E+02 -0.22999516906E+02  0.81421100534E+02  0.00000000000E+00 0. -1.
         11    1    1    2    0    0 -0.33655434958E+02  0.19585206498E+01 -0.31985643222E+01  0.33863770007E+02  0.00000000000E+00 0.  1.
</event>
<event>
 7    1  0.2641580E-009  0.1513102E+03  0.7561462E-02  0.1198872E+00
          2   -1    0    0  501    0  0.00000000000E+00  0.00000000000E+00  0.57565543601E+03  0.57565543601E+03  0.00000000000E+00 0. -1.
         -2   -1    0    0    0  501 -0.00000000000E+00 -0.00000000000E+00 -0.48910539882E+02  0.48910539882E+02  0.00000000000E+00 0.  1.
         25    2    1    2    0    0  0.11588039099E+03 -0.13030461060E+01  0.38638650147E+03  0.42234015703E+03  0.12508683694E+03 0.  0.
          5    1    3    3  502    0  0.11712511642E+03  0.43831342668E+02  0.27920301252E+03  0.30595959553E+03  0.41800000000E+01 0. -1.
         -5    1    3    3    0  502 -0.12447254294E+01 -0.45134388774E+02  0.10718348895E+03  0.11638056150E+03  0.41800000000E+01 0. -1.
        -11    1    1    2    0    0 -0.59361367362E+02 -0.31083956011E+02  0.28572244392E+02  0.72844748651E+02  0.00000000000E+00 0.  1.
         11    1    1    2    0    0 -0.56519023630E+02  0.32387002117E+02  0.11178615027E+03  0.12938107022E+03  0.00000000000E+00 0. -1.
</event>
<event>
 7    1  0.2641580E-009  0.1303534E+03  0.7561462E-02  0.1226932E+00
          2   -1    0    0  501    0  0.00000000000E+00  0.00000000000E+00  0.15078233668E+03  0.15078233668E+03  0.00000000000E+00 0. -1.
         -2   -1    0    0    0  501 -0.00000000000E+00 -0.00000000000E+00 -0.19858111347E+03  0.19858111347E+03  0.00000000000E+00 0.  1.
         25    2    1    2    0    0 -0.99407623071E+02 -0.38775275160E+02 -0.10629697686E+03  0.19578828401E+03  0.12509439386E+03 0.  0.
          5    1    3    3  502    0 -0.92366075067E+02 -0.50951475947E+02 -0.13027295526E+03  0.16767844225E+03  0.41800000000E+01 0.  1.
         -5    1    3    3    0  502 -0.70415480045E+01  0.12176200786E+02  0.23975978391E+02  0.28109841759E+02  0.41800000000E+01 0.  1.
        -11    1    1    2    0    0  0.11645069666E+03  0.40594345028E+02  0.43410656716E+02  0.13074077680E+03  0.00000000000E+00 0.  1.
         11    1    1    2    0    0 -0.17043073588E+02 -0.18190698678E+01  0.15087543357E+02  0.22834389352E+02  0.00000000000E+00 0. -1.
</event>
<event>
 7    1  0.2641580E-009  0.1802798E+03  0.7561462E-02  0.1167532E+00
         -2   -1    0    0    0  501 -0.00000000000E+00  0.00000000000E+00  0.10850258366E+03  0.10850258366E+03  0.00000000000E+00 0. -1.
          2   -1    0    0  501    0  0.00000000000E+00 -0.00000000000E+00 -0.39009950547E+03  0.39009950547E+03  0.00000000000E+00 0.  1.
         25    2    1    2    0    0  0.15057927501E+03  0.55721249600E+02 -0.64742198620E+02  0.21357929473E+03  0.12508232144E+03 0.  0.
          5    1    3    3  502    0  0.20863991924E+02 -0.23690357136E+02  0.21750574596E+02  0.38562923586E+02  0.41800000000E+01 0.  1.
         -5    1    3    3    0  502  0.12971528309E+03  0.79411606736E+02 -0.86492773216E+02  0.17501637115E+03  0.41800000000E+01 0.  1.
        -11    1    1    2    0    0 -0.12821100440E+03 -0.13672874307E+02 -0.11579268688E+03  0.17330018891E+03  0.00000000000E+00 0. -1.
         11    1    1    2    0    0 -0.22368270608E+02 -0.42048375294E+02 -0.10106203631E+03  0.11172260550E+03  0.00000000000E+00 0.  1.
</event>
<event>
 7    1  0.2641580E-009  0.1756744E+03  0.7561462E-02  0.1172056E+00
         -1   -1    0    0    0  501 -0.00000000000E+00  0.00000000000E+00  0.95823766546E+02  0.95823766546E+02  0.00000000000E+00 0.  1.
          1   -1    0    0  501    0  0.00000000000E+00 -0.00000000000E+00 -0.43632799882E+03  0.43632799882E+03  0.00000000000E+00 0. -1.
         25    2    1    2    0    0  0.14194465808E+03  0.39985763198E+02 -0.62303894899E+02  0.20316615716E+03  0.12509022695E+03 0.  0.
          5    1    3    3  502    0  0.15524754945E+03  0.26584106931E+02 -0.80214925600E+02  0.17680617365E+03  0.41800000000E+01 0. -1.
         -5    1    3    3    0  502 -0.13302891373E+02  0.13401656267E+02  0.17911030701E+02  0.26359983504E+02  0.41800000000E+01 0. -1.
        -11    1    1    2    0    0 -0.13470489173E+02  0.26544954497E+02 -0.62923519484E+02  0.69609324031E+02  0.00000000000E+00 0. -1.
         11    1    1    2    0    0 -0.12847416891E+03 -0.66530717695E+02 -0.21527681789E+03  0.25937628418E+03  0.00000000000E+00 0.  1.
</event>
<event>
 7    1  0.2641580E-009  0.7529006E+02  0.7561462E-02  0.1342975E+00
         -2   -1    0    0    0  501 -0.00000000000E+00  0.00000000000E+00  0.99833069679E+02  0.99833069679E+02  0.00000000000E+00 0.  1.
          2   -1    0    0  501    0  0.00000000000E+00 -0.00000000000E+00 -0.14226289114E+03  0.14226289114E+03  0.00000000000E+00 0. -1.
         25    2    1    2    0    0 -0.43325233225E+02  0.19404146861E+02 -0.23404803417E+02  0.13582410781E+03  0.12508719635E+03 0.  0.
          5    1    3    3  502    0 -0.27723208349E+02  0.21368726753E+01 -0.74442386329E+02  0.79575648211E+02  0.41800000000E+01 0.  1.
         -5    1    3    3    0  502 -0.15602024876E+02  0.17267274186E+02  0.51037582912E+02  0.56248459601E+02  0.41800000000E+01 0.  1.
        -11    1    1    2    0    0 -0.23957650687E+02 -0.20492289397E+02  0.98751682405E+01  0.33036675059E+02  0.00000000000E+00 0.  1.
         11    1    1    2    0    0  0.67282883912E+02  0.10881425352E+01 -0.28900186285E+02  0.73235177948E+02  0.00000000000E+00 0. -1.
</event>
<event>
 7    1  0.2641580E-009  0.3354543E+03  0.7561462E-02  0.1068749E+00
          1   -1    0    0  501    0  0.00000000000E+00  0.00000000000E+00  0.24583023227E+03  0.24583023227E+03  0.00000000000E+00 0. -1.
         -1   -1    0    0    0  501 -0.00000000000E+00 -0.00000000000E+00 -0.48338285521E+03  0.48338285521E+03  0.00000000000E+00 0.  1.
         25    2    1    2    0    0 -0.16749934635E+03 -0.27609389287E+03 -0.17293597037E+03  0.38709596703E+03  0.12511022795E+03 0.  0.
          5    1    3    3  502    0 -0.32580562043E+02  0.57391314690E+01 -0.10823547636E+02  0.35057841298E+02  0.41800000000E+01 0.  1.
         -5    1    3    3    0  502 -0.13491878430E+03 -0.28183302434E+03 -0.16211242274E+03  0.35203812574E+03  0.41800000000E+01 0.  1.
        -11    1    1    2    0    0  0.67767532163E+02  0.14762164575E+03  0.10904557965E+02  0.16279894991E+03  0.00000000000E+00 0. -1.
         11    1    1    2    0    0  0.99731814183E+02  0.12847224712E+03 -0.75521210533E+02  0.17931817053E+03  0.00000000000E+00 0.  1.
</event>
<event>
 7    1  0.2641580E-009  0.4185559E+03  0.7561462E-02  0.1037537E+00
         -2   -1    0    0    0  501 -0.00000000000E+00  0.00000000000E+00  0.11208636087E+03  0.11208636087E+03  0.00000000000E+00 0.  1.
          2   -1    0    0  501    0  0.00000000000E+00 -0.00000000000E+00 -0.16636679038E+04  0.16636679038E+04  0.00000000000E+00 0. -1.
         25    2    1    2    0    0  0.80094349178E+02 -0.40004388071E+03 -0.59978555192E+03  0.73609863594E+03  0.12509309446E+03 0.  0.
          5    1    3    3  502    0  0.10294553791E+03 -0.21230222903E+03 -0.30126896049E+03  0.38268848844E+03  0.41800000000E+01 0. -1.
         -5    1    3    3    0  502 -0.22851188732E+02 -0.18774165168E+03 -0.29851659143E+03  0.35341014751E+03  0.41800000000E+01 0. -1.
        -11    1    1    2    0    0 -0.76768341674E+02  0.24215213709E+03 -0.67130082554E+03  0.71775750372E+03  0.00000000000E+00 0.  1.
         11    1    1    2    0    0 -0.33260075047E+01  0.15789174362E+03 -0.28049516547E+03  0.32189812500E+03  0.00000000000E+00 0. -1.
</event>
<event>
 7    1  0.2641580E-009  0.8704979E+02  0.7561462E-02  0.1310158E+00
          1   -1    0    0  501    0  0.00000000000E+00  0.00000000000E+00  0.28995009521E+03  0.28995009521E+03  0.00000000000E+00 0. -1.
         -1   -1    0    0    0  501 -0.00000000000E+00 -0.00000000000E+00 -0.41242803741E+02  0.41242803741E+02  0.00000000000E+00 0.  1.
         25    2    1    2    0    0 -0.91524170398E+01 -0.83551959208E+01  0.12774328714E+03  0.17921758880E+03  0.12508805175E+03 0.  0.
          5    1    3    3  502    0 -0.50122472466E+02 -0.43326461159E+01  0.62464051880E+01  0.50867711235E+02  0.41800000000E+01 0. -1.
         -5    1    3    3    0  502  0.40970055427E+02 -0.40225498049E+01  0.12149688195E+03  0.12834987757E+03  0.41800000000E+01 0. -1.
        -11    1    1    2    0    0 -0.12108007174E+02  0.41294765681E+02  0.96767700895E+02  0.10590490757E+03  0.00000000000E+00 0. -1.
         11    1    1    2    0    0  0.21260424214E+02 -0.32939569760E+02  0.24196303436E+02  0.46070402578E+02  0.00000000000E+00 0.  1.
</event>
<event>
 7    1  0.2641580E-009  0.8900574E+02  0.7561462E-02  0.1305277E+00
         -4   -1    0    0    0  501 -0.00000000000E+00  0.00000000000E+00  0.12719687327E+03  0.12719687327E+03  0.00000000000E+00 0.  1.
          4   -1    0    0  501    0  0.00000000000E+00 -0.00000000000E+00 -0.11947035658E+03  0.11947035658E+03  0.00000000000E+00 0. -1.
         25    2    1    2    0    0  0.32203361645E+02 -0.44475685633E+02  0.24517086198E+02  0.13879194391E+03  0.12508786138E+03 0.  0.
          5    1    3    3  502    0  0.54144262807E+02 -0.21645542476E+02 -0.37205505628E+02  0.69295402106E+02  0.41800000000E+01 0.  1.
         -5    1    3    3    0  502 -0.21940901162E+02 -0.22830143156E+02  0.61722591827E+02  0.69496541800E+02  0.41800000000E+01 0.  1.
        -11    1    1    2    0    0 -0.59486800281E+01  0.57844757906E+02  0.19315501114E+02  0.61273904679E+02  0.00000000000E+00 0.  1.
         11    1    1    2    0    0 -0.26254681617E+02 -0.13369072274E+02 -0.36106070624E+02  0.46601381269E+02  0.00000000000E+00 0. -1.
</event>
<event>
 7    1  0.2641580E-009  0.6760371E+02  0.7561462E-02  0.1368437E+00
         -1   -1    0    0    0  501 -0.00000000000E+00  0.00000000000E+00  0.11933498842E+03  0.11933498842E+03  0.00000000000E+00 0.  1.
          1   -1    0    0  501    0  0.00000000000E+00 -0.00000000000E+00 -0.10678347570E+03  0.10678347570E+03  0.00000000000E+00 0. -1.
         25    2    1    2    0    0  0.13180874703E+02  0.36709700377E+02  0.45201816789E+01  0.13111117226E+03  0.12509344463E+03 0.  0.
          5    1    3    3  502    0 -0.19648798728E+02  0.31619823991E+02  0.57387433981E+02  0.68532317483E+02  0.41800000000E+01 0.  1.
         -5    1    3    3    0  502  0.32829673432E+02  0.50898763862E+01 -0.52867252302E+02  0.62578854777E+02  0.41800000000E+01 0.  1.
        -11    1    1    2    0    0 -0.11047012930E+02 -0.49794143924E+02  0.37091717845E+02  0.63065749790E+02  0.00000000000E+00 0.  1.
         11    1    1    2    0    0 -0.21338617731E+01  0.13084443547E+02 -0.29060386801E+02  0.31941542073E+02  0.00000000000E+00 0. -1.
</event>
<event>
 7    1  0.2641580E-009  0.1255046E+03  0.7561462E-02  0.1234283E+00
          4   -1    0    0  501    0  0.00000000000E+00  0.00000000000E+00  0.36980521888E+02  0.36980521888E+02  0.00000000000E+00 0.  1.
         -4   -1    0    0    0  501 -0.00000000000E+00 -0.00000000000E+00 -0.49162328988E+03  0.49162328988E+03  0.00000000000E+00 0. -1.
         25    2    1    2    0    0  0.35727655070E+02 -0.70566049253E+02 -0.24312707429E+03  0.28463065238E+03  0.12509117226E+03 0.  0.
          5    1    3    3  502    0  0.10731395826E+02  0.36336448593E+02 -0.64471293010E+02  0.74896731405E+02  0.41800000000E+01 0.  1.
         -5    1    3    3    0  502  0.24996259244E+02 -0.10690249785E+03 -0.17865578128E+03  0.20973392098E+03  0.41800000000E+01 0.  1.
        -11    1    1    2    0    0  0.15339410259E+02  0.41549756627E+02 -0.15943798000E+03  0.16547552462E+03  0.00000000000E+00 0. -1.
         11    1    1    2    0    0 -0.51067065329E+02  0.29016292626E+02 -0.52077713695E+02  0.78497634759E+02  0.00000000000E+00 0.  1.
</event>
<event>
 6    1  0.2641580E-009  0.9680166E+02  0.7561462E-02  0.1287169E+00
          1   -1    0    0  501    0  0.00000000000E+00  0.00000000000E+00  0.38241934392E+03  0.38241934392E+03  0.00000000000E+00 0. -1.
         -1   -1    0    0    0  501 -0.00000000000E+00 -0.00000000000E+00 -0.27467196025E+02  0.27467196025E+02  0.00000000000E+00 0.  1.
          5    1    1    2  502    0 -0.59976494087E+02  0.70045995716E+02  0.15577106742E+03  0.18106827222E+03  0.41800000000E+01 0.  1.
         -5    1    1    2    0  502  0.33642082859E+02 -0.25017830540E+02  0.51704345679E+02  0.66697026517E+02  0.41800000000E+01 0.  1.
        -11    1    1    2    0    0 -0.33862398264E+01 -0.20061759304E+02  0.18742879067E+02  0.27662905167E+02  0.00000000000E+00 0.  1.
         11    1    1    2    0    0  0.29720651054E+02 -0.24966405871E+02  0.12873385572E+03  0.13445833604E+03  0.00000000000E+00 0. -1.
</event>
<event>
 7    1  0.2641580E-009  0.6257450E+02  0.7561462E-02  0.1387335E+00
         -2   -1    0    0    0  501 -0.00000000000E+00  0.00000000000E+00  0.25335176521E+03  0.25335176521E+03  0.00000000000E+00 0.  1.
          2   -1    0    0  501    0  0.00000000000E+00 -0.00000000000E+00 -0.50144018967E+02  0.50144018967E+02  0.00000000000E+00 0. -1.
         25    2    1    2    0    0 -0.14132830716E+02  0.19490520336E+02  0.14480903427E+03  0.19286469608E+03  0.12509003677E+03 0.  0.
          5    1    3    3  502    0 -0.14691490504E+02  0.24889759745E+02 -0.15054114008E+02  0.32854813680E+02  0.41800000000E+01 0.  1.
         -5    1    3    3    0  502  0.55865978809E+00 -0.53992394090E+01  0.15986314828E+03  0.16000988240E+03  0.41800000000E+01 0.  1.
        -11    1    1    2    0    0  0.22396997143E+00  0.33911087570E+02  0.40046854504E+02  0.52476304923E+02  0.00000000000E+00 0.  1.
         11    1    1    2    0    0  0.13908860744E+02 -0.53401607906E+02  0.18351857474E+02  0.58154783182E+02  0.00000000000E+00 0. -1.
</event>
<event>
 7    1  0.2641580E-009  0.2171105E+03  0.7561462E-02  0.1136056E+00
          1   -1    0    0  501    0  0.00000000000E+00  0.00000000000E+00  0.10029681107E+04  0.10029681107E+04  0.00000000000E+00 0. -1.
         -1   -1    0    0    0  501 -0.00000000000E+00 -0.00000000000E+00 -0.52316235983E+02  0.52316235983E+02  0.00000000000E+00 0.  1.
         25    2    1    2    0    0  0.19437237719E+03 -0.37043141116E+02  0.40720638043E+03  0.46969843555E+03  0.12508704482E+03 0.  0.
          5    1    3    3  502    0  0.78585972962E+02 -0.69082897056E+02  0.12572540126E+03  0.16362319742E+03  0.41800000000E+01 0. -1.
         -5    1    3    3    0  502  0.11578640423E+03  0.32039755939E+02  0.28148097917E+03  0.30607523813E+03  0.41800000000E+01 0. -1.
        -11    1    1    2    0    0 -0.46984448755E+02 -0.20248964691E+02  0.21572828144E+03  0.22171208900E+03  0.00000000000E+00 0.  1.
         11    1    1    2    0    0 -0.14738792843E+03  0.57292105807E+02  0.32771721288E+03  0.36387382216E+03  0.00000000000E+00 0. -1.
</event>
<event>
 7    1  0.2641580E-009  0.1153351E+03  0.7561462E-02  0.1250997E+00
          1   -1    0    0  501    0  0.00000000000E+00  0.00000000000E+00  0.41607074270E+03  0.41607074270E+03  0.00000000000E+00 0. -1.
         -1   -1    0    0    0  501 -0.00000000000E+00 -0.00000000000E+00 -0.43720908949E+02  0.43720908949E+02  0.00000000000E+00 0.  1.
         25    2    1    2    0    0 -0.25925612067E+02 -0.58805402978E+02  0.28721505813E+03  0.31979885536E+03  0.12509438634E+03 0.  0.
          5    1    3    3  502    0 -0.59630866265E+02 -0.10616810896E+02  0.61140462623E+02  0.86163713098E+02  0.41800000000E+01 0. -1.
         -5    1    3    3    0  502  0.33705254198E+02 -0.48188592082E+02  0.22607459551E+03  0.23363514226E+03  0.41800000000E+01 0. -1.
        -11    1    1    2    0    0  0.24145366621E+02  0.83154340546E+02  0.69138366619E+02  0.11080503969E+03  0.00000000000E+00 0.  1.
         11    1    1    2    0    0  0.17802454457E+01 -0.24348937568E+02  0.15996409008E+02  0.29187756606E+02  0.00000000000E+00 0. -1.
</event>
<event>
 7    1  0.2641580E-009  0.4768216E+02  0.7561462E-02  0.1458260E+00
          1   -1    0    0  501    0  0.00000000000E+00  0.00000000000E+00  0.12652059815E+03  0.12652059815E+03  0.00000000000E+00 0. -1.
         -1   -1    0    0    0  501 -0.00000000000E+00 -0.00000000000E+00 -0.10167961080E+03  0.10167961080E+03  0.00000000000E+00 0.  1.
         25    2    1    2    0    0 -0.38914607425E+01 -0.36484318933E+02  0.79168792951E+01  0.13060032609E+03  0.12509004437E+03 0.  0.
          5    1    3    3  502    0 -0.19412907515E+02 -0.12045889383E+01  0.61400579347E+02  0.64543129432E+02  0.41800000000E+01 0. -1.
         -5    1    3    3    0  502  0.15521446773E+02 -0.35279729995E+02 -0.53483700052E+02  0.66057196653E+02  0.41800000000E+01 0. -1.
        -11    1    1    2    0    0  0.30762065504E+01  0.25192506514E+02 -0.35683131180E+02  0.43788255069E+02  0.00000000000E+00 0.  1.
         11    1    1    2    0    0  0.81525419211E+00  0.11291812420E+02  0.52607239229E+02  0.53811627799E+02  0.00000000000E+00 0. -1.
</event>
<event>
 7    1  0.2641580E-009  0.9422504E+02  0.7561462E-02  0.1292931E+00
         -2   -1    0    0    0  501 -0.00000000000E+00  0.00000000000E+00  0.62384256717E+02  0.62384256717E+02  0.00000000000E+00 0.  1.
          2   -1    0    0  501    0  0.00000000000E+00 -0.00000000000E+00 -0.26102227488E+03  0.26102227488E+03  0.00000000000E+00 0. -1.
         25    2    1    2    0    0  0.57454683338E+02 -0.23130970510E+02 -0.92409625077E+02  0.16740121278E+03  0.12509014669E+03 0.  0.
          5    1    3    3  502    0  0.24671285210E+02  0.10794924387E+02  0.27354108627E+02  0.38612463858E+02  0.41800000000E+01 0. -1.
         -5    1    3    3    0  502  0.32783398128E+02 -0.33925894897E+02 -0.11976373370E+03  0.12878874892E+03  0.41800000000E+01 0. -1.
        -11    1    1    2    0    0  0.48338613907E+01 -0.30962411826E+02 -0.23478158535E+02  0.39156877942E+02  0.00000000000E+00 0. -1.
         11    1    1    2    0    0 -0.62288544729E+02  0.54093382336E+02 -0.82750234550E+02  0.11684844088E+03  0.00000000000E+00 0.  1.
</event>
<event>
 7    1  0.2641580E-009  0.1144516E+03  0.7561462E-02  0.1252541E+00
         -2   -1    0    0    0  501 -0.00000000000E+00  0.00000000000E+00  0.23312826438E+03  0.23312826438E+03  0.00000000000E+00 0.  1.
          2   -1    0    0  501    0  0.00000000000E+00 -0.00000000000E+00 -0.66424698191E+02  0.66424698191E+02  0.00000000000E+00 0. -1.
         25    2    1    2    0    0 -0.41863974320E+02 -0.35143237228E+02  0.12628499391E+03  0.18596473837E+03  0.12508934711E+03 0.  0.
          5    1    3    3  502    0  0.17813368685E+02  0.33351974931E+02  0.11953352761E+02  0.39875122294E+02  0.41800000000E+01 0.  1.
         -5    1    3    3    0  502 -0.59677343004E+02 -0.68495212159E+02  0.11433164115E+03  0.14608961607E+03  0.41800000000E+01 0.  1.
        -11    1    1    2    0    0  0.61510930895E+02  0.46606209458E+02  0.13498735258E+02  0.78345065149E+02  0.00000000000E+00 0. -1.
         11    1    1    2    0    0 -0.19646956576E+02 -0.11462972230E+02  0.26919837025E+02  0.35243159059E+02  0.00000000000E+00 0.  1.
</event>
<event>
 7    1  0.2641580E-009  0.3260309E+03  0.7561462E-02  0.1072907E+00
         -2   -1    0    0    0  501 -0.00000000000E+00  0.00000000000E+00  0.16639702418E+03  0.16639702418E+03  0.00000000000E+00 0.  1.
          2   -1    0    0  501    0  0.00000000000E+00 -0.00000000000E+00 -0.71309062723E+03  0.71309062723E+03  0.00000000000E+00 0. -1.
         25    2    1    2    0    0 -0.19123833459E+03  0.24648191356E+03 -0.39775323250E+03  0.52074971679E+03  0.12508876545E+03 0.  0.
          5    1    3    3  502    0 -0.16194680857E+03  0.10867420727E+03 -0.22493096089E+03  0.29773857946E+03  0.41800000000E+01 0.  1.
         -5    1    3    3    0  502 -0.29291526026E+02  0.13780770629E+03 -0.17282227161E+03  0.22301113733E+03  0.41800000000E+01 0.  1.
        -11    1    1    2    0    0  0.10652865536E+03 -0.17651557793E+03 -0.52992648826E+02  0.21287161505E+03  0.00000000000E+00 0.  1.
         11    1    1    2    0    0  0.84709679232E+02 -0.69966335633E+02 -0.95947721727E+02  0.14586631956E+03  0.00000000000E+00 0. -1.
</event>
<event>
 7    1  0.2641580E-009  0.1476999E+03  0.7561462E-02  0.1203328E+00
         -2   -1    0    0    0  501 -0.00000000000E+00  0.00000000000E+00  0.36489457125E+02  0.36489457125E+02  0.00000000000E+00 0.  1.
          2   -1    0    0  501    0  0.00000000000E+00 -0.00000000000E+00 -0.72360806468E+03  0.72360806468E+03  0.00000000000E+00 0. -1.
         25    2    1    2    0    0  0.55268063337E+01  0.12064874104E+03 -0.39044162262E+03  0.42740992340E+03  0.12509163699E+03 0.  0.
          5    1    3    3  502    0 -0.13164590853E+02 -0.23793215503E+02 -0.76700384465E+02  0.81485243654E+02  0.41800000000E+01 0. -1.
         -5    1    3    3    0  502  0.18691397187E+02  0.14444195654E+03 -0.31374123816E+03  0.34592467975E+03  0.41800000000E+01 0. -1.
        -11    1    1    2    0    0 -0.85233067508E+01 -0.23686528212E+02 -0.54879345760E+01  0.25764623083E+02  0.00000000000E+00 0.  1.
         11    1    1    2    0    0  0.29965004171E+01 -0.96962212826E+02 -0.29118905035E+03  0.30692297532E+03  0.00000000000E+00 0. -1.
</event>
<event>
 7    1  0.2641580E-009  0.1240026E+03  0.7561462E-02  0.1236636E+00
         -2   -1    0    0    0  501 -0.00000000000E+00  0.00000000000E+00  0.19228957523E+02  0.19228957523E+02  0.00000000000E+00 0.  1.
          2   -1    0    0  501    0  0.00000000000E+00 -0.00000000000E+00 -0.11652116878E+04  0.11652116878E+04  0.00000000000E+00 0. -1.
         25    2    1    2    0    0  0.99833175833E+02  0.31117826999E+01 -0.68363984599E+03  0.70213049375E+03  0.12508974791E+03 0.  0.
          5    1    3    3  502    0  0.11373357169E+03 -0.16830268489E+02 -0.36885362547E+03  0.38637941546E+03  0.41800000000E+01 0.  1.
         -5    1    3    3    0  502 -0.13900395855E+02  0.19942051189E+02 -0.31478622052E+03  0.31575107829E+03  0.41800000000E+01 0.  1.
        -11    1    1    2    0    0 -0.93074127305E+02  0.99303378592E+01 -0.45729684414E+03  0.46677811478E+03  0.00000000000E+00 0. -1.
         11    1    1    2    0    0 -0.67590485286E+01 -0.13042120559E+02 -0.50460401436E+01  0.15532036789E+02  0.00000000000E+00 0.  1.
</event>
<event>
 7    1  0.2641580E-009  0.9442321E+02  0.7561462E-02  0.1292480E+00
          2   -1    0    0  501    0  0.00000000000E+00  0.00000000000E+00  0.18561856037E+04  0.18561856037E+04  0.00000000000E+00 0. -1.
         -2   -1    0    0    0  501 -0.00000000000E+00 -0.00000000000E+00 -0.85090702720E+01  0.85090702720E+01  0.00000000000E+00 0.  1.
         25    2    1    2    0    0  0.39858482672E+02  0.90780277465E+01  0.13119924715E+04  0.13185759894E+04  0.12508910919E+03 0.  0.
          5    1    3    3  502    0  0.53660013528E+02 -0.13972976101E+02  0.24475772873E+03  0.25099493877E+03  0.41800000000E+01 0. -1.
         -5    1    3    3    0  502 -0.13801530855E+02  0.23051003847E+02  0.10672347428E+04  0.10675810506E+04  0.41800000000E+01 0. -1.
        -11    1    1    2    0    0 -0.69666231718E+02  0.10405421627E+02  0.37116119461E+03  0.37778603604E+03  0.00000000000E+00 0. -1.
         11    1    1    2    0    0  0.29807749045E+02 -0.19483449374E+02  0.16452286737E+03  0.16833264861E+03  0.00000000000E+00 0.  1.
</event>
<event>
 7    1  0.2641580E-009  0.1315393E+03  0.7561462E-02  0.1225189E+00
          2   -1    0    0  501    0  0.00000000000E+00  0.00000000000E+00  0.52091939978E+02  0.52091939978E+02  0.00000000000E+00 0. -1.
         -2   -1    0    0    0  501 -0.00000000000E+00 -0.00000000000E+00 -0.38497769725E+03  0.38497769725E+03  0.00000000000E+00 0.  1.
         25    2    1    2    0    0 -0.45734219080E+02  0.73944011460E+02 -0.23044648098E+03  0.27624012860E+03  0.12507474736E+03 0.  0.
          5    1    3    3  502    0 -0.81972412374E+02  0.74631693964E+02 -0.20005702573E+03  0.22875675308E+03  0.41800000000E+01 0.  1.
         -5    1    3    3    0  502  0.36238193294E+02 -0.68768250397E+00 -0.30389455247E+02  0.47483375518E+02  0.41800000000E+01 0.  1.
        -11    1    1    2    0    0 -0.12404205916E+02 -0.52091071097E+02 -0.76825201417E+02  0.93645371403E+02  0.00000000000E+00 0. -1.
         11    1    1    2    0    0  0.58138424996E+02 -0.21852940363E+02 -0.25614074878E+02  0.67184137231E+02  0.00000000000E+00 0.  1.
</event>
<event>
 7    1  0.2641580E-009  0.1368946E+03  0.7561462E-02  0.1217570E+00
          1   -1    0    0  501    0  0.00000000000E+00  0.00000000000E+00  0.62237884190E+02  0.62237884190E+02  0.00000000000E+00 0. -1.
         -1   -1    0    0    0  501 -0.00000000000E+00 -0.00000000000E+00 -0.30913907303E+03  0.30913907303E+03  0.00000000000E+00 0.  1.
         25    2    1    2    0    0 -0.75542517464E+02 -0.35592052558E+02 -0.12513239759E+03  0.19565385504E+03  0.12509535529E+03 0.  0.
          5    1    3    3  502    0 -0.42224781993E+02 -0.82455052712E+02 -0.78844180613E+02  0.12171953479E+03  0.41800000000E+01 0. -1.
         -5    1    3    3    0  502 -0.33317735472E+02  0.46863000154E+02 -0.46288216975E+02  0.73934320252E+02  0.41800000000E+01 0. -1.
        -11    1    1    2    0    0  0.70057352918E+02 -0.15721522289E+02 -0.89966301600E+02  0.11510488428E+03  0.00000000000E+00 0.  1.
         11    1    1    2    0    0  0.54851645467E+01  0.51313574848E+02 -0.31802489651E+02  0.60618217903E+02  0.00000000000E+00 0. -1.
</event>
<event>
 7    1  0.2641580E-009  0.1235860E+03  0.7561462E-02  0.1237296E+00
          2   -1    0    0  501    0  0.00000000000E+00  0.00000000000E+00  0.39280986841E+03  0.39280986841E+03  0.00000000000E+00 0. -1.
         -2   -1    0    0    0  501 -0.00000000000E+00 -0.00000000000E+00 -0.56880194412E+02  0.56880194412E+02  0.00000000000E+00 0.  1.
         25    2    1    2    0    0 -0.10168506368E+03  0.14290284602E+02  0.18846995936E+03  0.24842116204E+03  0.12509230094E+03 0.  0.
          5    1    3    3  502    0 -0.32049482428E+02  0.53747499175E+02  0.14329716147E+03  0.15642094449E+03  0.41800000000E+01 0. -1.
         -5    1    3    3    0  502 -0.69635581251E+02 -0.39457214573E+02  0.45172797896E+02  0.92000217542E+02  0.41800000000E+01 0. -1.
        -11    1    1    2    0    0  0.21114270852E+02 -0.10668041784E+02 -0.89473511307E+01  0.25291789999E+02  0.00000000000E+00 0.  1.
         11    1    1    2    0    0  0.80570792827E+02 -0.36222428183E+01  0.15640706576E+03  0.17597711079E+03  0.00000000000E+00 0. -1.
</event>
<event>
 7    1  0.2641580E-009  0.1730591E+03  0.7561462E-02  0.1174695E+00
         -2   -1    0    0    0  501 -0.00000000000E+00  0.00000000000E+00  0.58187492637E+02  0.58187492637E+02  0.00000000000E+00 0. -1.
          2   -1    0    0  501    0  0.00000000000E+00 -0.00000000000E+00 -0.58020398989E+03  0.58020398989E+03  0.00000000000E+00 0.  1.
         25    2    1    2    0    0 -0.13128969966E+03 -0.53210792731E+02 -0.35082001414E+03  0.39848594235E+03  0.12509192710E+03 0.  0.
          5    1    3    3  502    0 -0.40535109926E+02  0.37070862987E+02 -0.15499827004E+03  0.16449705206E+03  0.41800000000E+01 0. -1.
         -5    1    3    3    0  502 -0.90754589737E+02 -0.90281655718E+02 -0.19582174410E+03  0.23398889029E+03  0.41800000000E+01 0. -1.
        -11    1    1    2    0    0  0.11377840106E+03  0.74031218989E+02 -0.16162418472E+03  0.21106521034E+03  0.00000000000E+00 0.  1.
         11    1    1    2    0    0  0.17511298607E+02 -0.20820426258E+02 -0.95722983960E+01  0.28840329836E+02  0.00000000000E+00 0. -1.
</event>
<event>
 7    1  0.2641580E-009  0.1012303E+03  0.7561462E-02  0.1277730E+00
          2   -1    0    0  501    0  0.00000000000E+00  0.00000000000E+00  0.36387935995E+02  0.36387935995E+02  0.00000000000E+00 0. -1.
         -2   -1    0    0    0  501 -0.00000000000E+00 -0.00000000000E+00 -0.38947596869E+03  0.38947596869E+03  0.00000000000E+00 0.  1.
         25    2    1    2    0    0  0.43293437002E+01 -0.45539170802E+02 -0.17017639224E+03  0.21610207293E+03  0.12509013612E+03 0.  0.
          5    1    3    3  502    0 -0.42826274010E+02  0.18788302046E+02 -0.97055857487E+02  0.10781651966E+03  0.41800000000E+01 0. -1.
         -5    1    3    3    0  502  0.47155617711E+02 -0.64327472848E+02 -0.73120534753E+02  0.10828555327E+03  0.41800000000E+01 0. -1.
        -11    1    1    2    0    0 -0.32043478726E+02  0.29842570931E+02 -0.16973696474E+03  0.17529404088E+03  0.00000000000E+00 0.  1.
         11    1    1    2    0    0  0.27714135026E+02  0.15696599872E+02 -0.13174675722E+02  0.34467790880E+02  0.00000000000E+00 0. -1.
</event>
<event>
 7    1  0.2641580E-009  0.1219906E+03  0.7561462E-02  0.1239849E+00
          1   -1    0    0  501    0  0.00000000000E+00  0.00000000000E+00  0.31411874032E+03  0.31411874032E+03  0.00000000000E+00 0. -1.
         -1   -1    0    0    0  501 -0.00000000000E+00 -0.00000000000E+00 -0.77024526883E+02  0.77024526883E+02  0.00000000000E+00 0.  1.
         25    2    1    2    0    0 -0.63621337058E+02 -0.83428217139E+02  0.17825593965E+03  0.24172318125E+03  0.12508786667E+03 0.  0.
          5    1    3    3  502    0 -0.27015191952E+02  0.66225359899E+01 -0.99660639169E+01  0.29840801081E+02  0.41800000000E+01 0. -1.
         -5    1    3    3    0  502 -0.36606145106E+02 -0.90050753129E+02  0.18822200357E+03  0.21188238017E+03  0.41800000000E+01 0. -1.
        -11    1    1    2    0    0 -0.10306682689E+02  0.10085748839E+02 -0.15729074438E+02  0.21339021074E+02  0.00000000000E+00 0. -1.
         11    1    1    2    0    0  0.73928019746E+02  0.73342468299E+02  0.74567348224E+02  0.12808106488E+03  0.00000000000E+00 0.  1.
</event>
<event>
 7    1  0.2641580E-009  0.2050001E+03  0.7561462E-02  0.1145588E+00
         -1   -1    0    0    0  501 -0.00000000000E+00  0.00000000000E+00  0.36850021285E+03  0.36850021285E+03  0.00000000000E+00 0.  1.
          1   -1    0    0  501    0  0.00000000000E+00 -0.00000000000E+00 -0.13309977111E+03  0.13309977111E+03  0.00000000000E+00 0. -1.
         25    2    1    2    0    0  0.18345308292E+03 -0.22976796115E+02  0.18601353465E+03  0.29057322608E+03  0.12509515519E+03 0.  0.
          5    1    3    3  502    0  0.16049857572E+02  0.40088775709E+02  0.47165399582E+02  0.64083969787E+02  0.41800000000E+01 0.  1.
         -5    1    3    3    0  502  0.16740322535E+03 -0.63065571825E+02  0.13884813507E+03  0.22648925630E+03  0.41800000000E+01 0.  1.
        -11    1    1    2    0    0 -0.62175109974E+02 -0.75114259607E+01  0.58425898777E+02  0.85649001560E+02  0.00000000000E+00 0.  1.
         11    1    1    2    0    0 -0.12127797295E+03  0.30488222076E+02 -0.90389916939E+01  0.12537775631E+03  0.00000000000E+00 0. -1.
</event>
<event>
 7    1  0.2641580E-009  0.1293141E+03  0.7561462E-02  0.1228477E+00
          1   -1    0    0  501    0  0.00000000000E+00  0.00000000000E+00  0.42520498778E+03  0.42520498778E+03  0.00000000000E+00 0. -1.
         -1   -1    0    0    0  501 -0.00000000000E+00 -0.00000000000E+00 -0.46040544548E+02  0.46040544548E+02  0.00000000000E+00 0.  1.
         25    2    1    2    0    0 -0.36068635040E+02  0.68747856954E+02  0.13849457248E+03  0.20212748895E+03  0.12509021109E+03 0.  0.
          5    1    3    3  502    0 -0.21029262125E+02  0.10513117978E+03  0.10709622862E+03  0.15159772232E+03  0.41800000000E+01 0.  1.
         -5    1    3    3    0  502 -0.15039372915E+02 -0.36383322830E+02  0.31398343863E+02  0.50529766625E+02  0.41800000000E+01 0.  1.
        -11    1    1    2    0    0  0.43785138360E+02 -0.83956619332E+02  0.15396168623E+03  0.18074859086E+03  0.00000000000E+00 0. -1.
         11    1    1    2    0    0 -0.77165033203E+01  0.15208762378E+02  0.86708184520E+02  0.88369452524E+02  0.00000000000E+00 0.  1.
</event>
<event>
 7    1  0.2641580E-009  0.1062087E+03  0.7561462E-02  0.1267756E+00
          1   -1    0    0  501    0  0.00000000000E+00  0.00000000000E+00  0.18671031467E+03  0.18671031467E+03  0.00000000000E+00 0. -1.
         -1   -1    0    0    0  501 -0.00000000000E+00 -0.00000000000E+00 -0.68126129747E+02  0.68126129747E+02  0.00000000000E+00 0.  1.
         25    2    1    2    0    0  0.88011632647E+01  0.23078323348E+00  0.10200887837E+03  0.16165331401E+03  0.12509384049E+03 0.  0.
          5    1    3    3  502    0 -0.53121504919E+02  0.24592989816E+02  0.49850755775E+02  0.77001816111E+02  0.41800000000E+01 0. -1.
         -5    1    3    3    0  502  0.61922668184E+02 -0.24362206583E+02  0.52158122593E+02  0.84651497902E+02  0.41800000000E+01 0. -1.
        -11    1    1    2    0    0  0.11862620826E+02 -0.40280001080E+02 -0.66023291175E+01  0.42506364343E+02  0.00000000000E+00 0.  1.
         11    1    1    2    0    0 -0.20663784091E+02  0.40049217847E+02  0.23177635673E+02  0.50676766062E+02  0.00000000000E+00 0. -1.
</event>
<event>
 7    1  0.2641580E-009  0.1059154E+03  0.7561462E-02  0.1268326E+00
          2   -1    0    0  501    0  0.00000000000E+00  0.00000000000E+00  0.99697233932E+03  0.99697233932E+03  0.00000000000E+00 0. -1.
         -2   -1    0    0    0  501 -0.00000000000E+00 -0.00000000000E+00 -0.13509743336E+02  0.13509743336E+02  0.00000000000E+00 0.  1.
         25    2    1    2    0    0 -0.42692782867E+01 -0.20656449917E+02  0.71075599082E+03  0.72199064873E+03  0.12510596591E+03 0.  0.
          5    1    3    3  502    0  0.10141953379E+02  0.51763709100E+02  0.29607104155E+03  0.30076215660E+03  0.41800000000E+01 0.  1.
         -5    1    3    3    0  502 -0.14411231666E+02 -0.72420159017E+02  0.41468494927E+03  0.42122849213E+03  0.41800000000E+01 0.  1.
        -11    1    1    2    0    0  0.42724141522E+02  0.35506116955E+01  0.75308765409E+02  0.86656616941E+02  0.00000000000E+00 0.  1.
         11    1    1    2    0    0 -0.38454863236E+02  0.17105838222E+02  0.19739783976E+03  0.20183481699E+03  0.00000000000E+00 0. -1.
</event>
<event>
 7    1  0.2695088E-009  0.7154053E+02  0.7561462E-02  0.1354931E+00
          1   -1    0    0  501    0  0.00000000000E+00  0.00000000000E+00  0.48173715911E+03  0.48173715911E+03  0.00000000000E+00 0. -1.
         -1   -1    0    0    0  501 -0.00000000000E+00 -0.00000000000E+00 -0.31124965349E+02  0.31124965349E+02  0.00000000000E+00 0.  1.
         25    2    1    2    0    0 -0.50271952904E+02  0.19878936634E+02  0.22006394755E+03  0.25883917449E+03  0.12508851214E+03 0.  0.
          5    1    3    3  502    0 -0.18921761159E+02  0.23658882837E+02 -0.54698670963E+01  0.31067147093E+02  0.41800000000E+01 0.  1.
         -5    1    3    3    0  502 -0.31350191745E+02 -0.37799462032E+01  0.22553381464E+03  0.22777202739E+03  0.41800000000E+01 0.  1.
        -11    1    1    2    0    0 -0.13388258639E+02 -0.88212534716E+01  0.15779078563E+01  0.16110548575E+02  0.00000000000E+00 0.  1.
         11    1    1    2    0    0  0.63660211543E+02 -0.11057683163E+02  0.22897033836E+03  0.23791240139E+03  0.00000000000E+00 0. -1.
</event>
<event>
 7    1  0.2641580E-009  0.1699392E+03  0.7561462E-02  0.1177911E+00
          1   -1    0    0  501    0  0.00000000000E+00  0.00000000000E+00  0.42637698832E+03  0.42637698832E+03  0.00000000000E+00 0. -1.
         -1   -1    0    0    0  501 -0.00000000000E+00 -0.00000000000E+00 -0.86400499917E+02  0.86400499917E+02  0.00000000000E+00 0.  1.
         25    2    1    2    0    0  0.11871667809E+03 -0.63202541158E+02  0.28766347596E+03  0.34129284479E+03  0.12506925934E+03 0.  0.
          5    1    3    3  502    0  0.87416393047E+02  0.23814197993E+02  0.15349624438E+03  0.17828996393E+03  0.41800000000E+01 0. -1.
         -5    1    3    3    0  502  0.31300285045E+02 -0.87016739152E+02  0.13416723158E+03  0.16300288086E+03  0.41800000000E+01 0. -1.
        -11    1    1    2    0    0 -0.85187428512E+02  0.81941297811E+02  0.59620591641E+02  0.13238538141E+03  0.00000000000E+00 0. -1.
         11    1    1    2    0    0 -0.33529249580E+02 -0.18738756653E+02 -0.73075792022E+01  0.39099262041E+02  0.00000000000E+00 0.  1.
</event>
<event>
 7    1  0.2641580E-009  0.1314743E+03  0.7561462E-02  0.1225284E+00
          2   -1    0    0  501    0  0.00000000000E+00  0.00000000000E+00  0.65632216901E+03  0.65632216901E+03  0.00000000000E+00 0. -1.
         -2   -1    0    0    0  501 -0.00000000000E+00 -0.00000000000E+00 -0.43353918816E+02  0.43353918816E+02  0.00000000000E+00 0.  1.
         25    2    1    2    0    0 -0.11429975864E+03  0.19355200888E+02  0.44608346480E+03  0.47757393208E+03  0.12508934571E+03 0.  0.
          5    1    3    3  502    0 -0.86894816205E+02  0.16206894439E+02  0.11397375442E+03  0.14429435750E+03  0.41800000000E+01 0.  1.
         -5    1    3    3    0  502 -0.27404942433E+02  0.31483064495E+01  0.33210971038E+03  0.33327957458E+03  0.41800000000E+01 0.  1.
        -11    1    1    2    0    0  0.60516293761E+01 -0.36465610635E+02  0.42238965744E+02  0.56129254443E+02  0.00000000000E+00 0.  1.
         11    1    1    2    0    0  0.10824812926E+03  0.17110409747E+02  0.12464581965E+03  0.16597290130E+03  0.00000000000E+00 0. -1.
</event>
<event>
 7    1  0.2641580E-009  0.1329466E+03  0.7561462E-02  0.1223148E+00
         -1   -1    0    0    0  501 -0.00000000000E+00  0.00000000000E+00  0.16057078374E+02  0.16057078374E+02  0.00000000000E+00 0.  1.
          1   -1    0    0  501    0  0.00000000000E+00 -0.00000000000E+00 -0.15745014228E+04  0.15745014228E+04  0.00000000000E+00 0. -1.
         25    2    1    2    0    0 -0.38500872163E+02  0.70505129882E+02 -0.12223155035E+04  0.12313229195E+04  0.12509057319E+03 0.  0.
          5    1    3    3  502    0  0.13679406041E+02  0.86430329856E+02 -0.56710836715E+03  0.57383508133E+03  0.41800000000E+01 0. -1.
         -5    1    3    3    0  502 -0.52180278204E+02 -0.15925199974E+02 -0.65520713636E+03  0.65748783819E+03  0.41800000000E+01 0. -1.
        -11    1    1    2    0    0 -0.31462710840E+02 -0.23800374485E+02 -0.72871266628E+02  0.82864838737E+02  0.00000000000E+00 0.  1.
         11    1    1    2    0    0  0.69963583003E+02 -0.46704755397E+02 -0.26325757427E+03  0.27637074291E+03  0.00000000000E+00 0. -1.
</event>
<event>
 7    1  0.2641580E-009  0.1100090E+03  0.7561462E-02  0.1260553E+00
         -2   -1    0    0    0  501 -0.00000000000E+00  0.00000000000E+00  0.12308217253E+02  0.12308217253E+02  0.00000000000E+00 0.  1.
          2   -1    0    0  501    0  0.00000000000E+00 -0.00000000000E+00 -0.12810182584E+04  0.12810182584E+04  0.00000000000E+00 0. -1.
         25    2    1    2    0    0  0.45521509970E+02 -0.41087824498E+02 -0.79870347864E+03  0.81076128272E+03  0.12508474557E+03 0.  0.
          5    1    3    3  502    0 -0.48609392218E+01  0.26224139483E+02 -0.45786430126E+02  0.53152646269E+02  0.41800000000E+01 0.  1.
         -5    1    3    3    0  502  0.50382449192E+02 -0.67311963981E+02 -0.75291704851E+03  0.75760863645E+03  0.41800000000E+01 0.  1.
        -11    1    1    2    0    0 -0.47281983603E+02 -0.17357139299E+02 -0.24148589773E+03  0.24668257957E+03  0.00000000000E+00 0. -1.
         11    1    1    2    0    0  0.17604736331E+01  0.58444963797E+02 -0.22852066482E+03  0.23588261342E+03  0.00000000000E+00 0.  1.
</event>
<event>
 7    1  0.2641580E-009  0.1216297E+03  0.7561462E-02  0.1240432E+00
          2   -1    0    0  501    0  0.00000000000E+00  0.00000000000E+00  0.52617753537E+02  0.52617753537E+02  0.00000000000E+00 0. -1.
         -2   -1    0    0    0  501 -0.00000000000E+00 -0.00000000000E+00 -0.28675739871E+03  0.28675739871E+03  0.00000000000E+00 0.  1.
         25    2    1    2    0    0 -0.52500342569E+02  0.21769176445E+02 -0.14534018156E+03  0.20000310726E+03  0.12508913432E+03 0.  0.
          5    1    3    3  502    0 -0.93637879017E+02  0.11150879396E+02 -0.10619646996E+03  0.14208292343E+03  0.41800000000E+01 0. -1.
         -5    1    3    3    0  502  0.41137536448E+02  0.10618297050E+02 -0.39143711592E+02  0.57920183826E+02  0.41800000000E+01 0. -1.
        -11    1    1    2    0    0  0.49646454158E+02  0.27547629554E+02 -0.57964915740E+02  0.81139224554E+02  0.00000000000E+00 0.  1.
         11    1    1    2    0    0  0.28538884111E+01 -0.49316805999E+02 -0.30834547875E+02  0.58232820434E+02  0.00000000000E+00 0. -1.
</event>
<event>
 7    1  0.2641580E-009  0.6973503E+02  0.7561462E-02  0.1360996E+00
         -3   -1    0    0    0  501 -0.00000000000E+00  0.00000000000E+00  0.95682113269E+02  0.95682113269E+02  0.00000000000E+00 0.  1.
          3   -1    0    0  501    0  0.00000000000E+00 -0.00000000000E+00 -0.15787091494E+03  0.15787091494E+03  0.00000000000E+00 0. -1.
         25    2    1    2    0    0 -0.34483767564E+02 -0.43609296681E+00  0.14102314227E+02  0.13052375214E+03  0.12509298223E+03 0.  0.
          5    1    3    3  502    0 -0.30056893122E+02 -0.11342286959E+02 -0.53082602496E+02  0.62187614405E+02  0.41800000000E+01 0. -1.
         -5    1    3    3    0  502 -0.44268744413E+01  0.10906193993E+02  0.67184916723E+02  0.68336137730E+02  0.41800000000E+01 0. -1.
        -11    1    1    2    0    0 -0.11294182725E+02  0.35285804455E+02 -0.42191317004E+02  0.56149388153E+02  0.00000000000E+00 0. -1.
         11    1    1    2    0    0  0.45777950288E+02 -0.34849711489E+02 -0.34099798891E+02  0.66879887917E+02  0.00000000000E+00 0.  1.
</event>
<event>
 7    1  0.2641580E-009  0.1622673E+03  0.7561462E-02  0.1186160E+00
         -3   -1    0    0    0  501 -0.00000000000E+00  0.00000000000E+00  0.12264208474E+03  0.12264208474E+03  0.00000000000E+00 0.  1.
          3   -1    0    0  501    0  0.00000000000E+00 -0.00000000000E+00 -0.23834412516E+03  0.23834412516E+03  0.00000000000E+00 0. -1.
         25    2    1    2    0    0  0.47170079550E+02  0.12216350856E+03 -0.81372745817E+02  0.19853891783E+03  0.12508892398E+03 0.  0.
          5    1    3    3  502    0 -0.24637062922E+02 -0.14528460628E+01  0.11977661148E+02  0.27749457611E+02  0.41800000000E+01 0. -1.
         -5    1    3    3    0  502  0.71807142473E+02  0.12361635462E+03 -0.93350406965E+02  0.17078946021E+03  0.41800000000E+01 0. -1.
        -11    1    1    2    0    0 -0.67710697870E+02 -0.58144631452E+02 -0.33138109153E+02  0.95203314286E+02  0.00000000000E+00 0. -1.
         11    1    1    2    0    0  0.20540618320E+02 -0.64018877106E+02 -0.11911854504E+01  0.67243977795E+02  0.00000000000E+00 0.  1.
</event>
<event>
 7    1  0.2641580E-009  0.1808375E+03  0.7561462E-02  0.1166995E+00
         -2   -1    0    0    0  501 -0.00000000000E+00  0.00000000000E+00  0.45218437741E+03  0.45218437741E+03  0.00000000000E+00 0. -1.
          2   -1    0    0  501    0  0.00000000000E+00 -0.00000000000E+00 -0.91846625741E+02  0.91846625741E+02  0.00000000000E+00 0.  1.
         25    2    1    2    0    0 -0.69665669489E+01 -0.17860419781E+03  0.20636209939E+03  0.30029014253E+03  0.12506342832E+03 0.  0.
          5    1    3    3  502    0  0.28875358851E+01 -0.90283182726E+01  0.98475691403E+02  0.99019102155E+02  0.41800000000E+01 0.  1.
         -5    1    3    3    0  502 -0.98541028340E+01 -0.16957587954E+03  0.10788640799E+03  0.20127104037E+03  0.41800000000E+01 0.  1.
        -11    1    1    2    0    0  0.19305898320E+02  0.11557119370E+03  0.64968312087E+02  0.13397873002E+03  0.00000000000E+00 0.  1.
         11    1    1    2    0    0 -0.12339331371E+02  0.63033004117E+02  0.89007340189E+02  0.10976213060E+03  0.00000000000E+00 0. -1.
</event>
<event>
 7    1  0.2641580E-009  0.1412409E+03  0.7561462E-02  0.1211669E+00
          1   -1    0    0  501    0  0.00000000000E+00  0.00000000000E+00  0.10460196835E+04  0.10460196835E+04  0.00000000000E+00 0. -1.
         -1   -1    0    0    0  501 -0.00000000000E+00 -0.00000000000E+00 -0.21500535665E+02  0.21500535665E+02  0.00000000000E+00 0.  1.
         25    2    1    2    0    0  0.53051115013E+02 -0.81950557538E+02  0.61681345922E+03  0.63689576628E+03  0.12508820468E+03 0.  0.
          5    1    3    3  502    0  0.44007958856E+02 -0.10957059675E+03  0.56607538566E+03  0.57827435596E+03  0.41800000000E+01 0.  1.
         -5    1    3    3    0  502  0.90431561572E+01  0.27620039213E+02  0.50738073559E+02  0.58621410320E+02  0.41800000000E+01 0.  1.
        -11    1    1    2    0    0  0.32615794405E+01 -0.19051358432E+02  0.30660215265E+02  0.36244185170E+02  0.00000000000E+00 0.  1.
         11    1    1    2    0    0 -0.56312694454E+02  0.10100191597E+03  0.37704547334E+03  0.39438026770E+03  0.00000000000E+00 0. -1.
</event>
<event>
 7    1  0.2641580E-009  0.1375357E+03  0.7561462E-02  0.1216684E+00
         -2   -1    0    0    0  501 -0.00000000000E+00  0.00000000000E+00  0.20589749129E+02  0.20589749129E+02  0.00000000000E+00 0.  1.
          2   -1    0    0  501    0  0.00000000000E+00 -0.00000000000E+00 -0.99810689300E+03  0.99810689300E+03  0.00000000000E+00 0. -1.
         25    2    1    2    0    0  0.29761594429E+02  0.80072349811E+02 -0.64006781576E+03  0.65774728506E+03  0.12508936216E+03 0.  0.
          5    1    3    3  502    0  0.11217551834E+02 -0.32362968017E+02 -0.21013531379E+03  0.21294956602E+03  0.41800000000E+01 0. -1.
         -5    1    3    3    0  502  0.18544042594E+02  0.11243531783E+03 -0.42993250197E+03  0.44479771904E+03  0.41800000000E+01 0. -1.
        -11    1    1    2    0    0  0.21847451688E+02  0.89696350935E+01 -0.87738093594E+02  0.90861094901E+02  0.00000000000E+00 0. -1.
         11    1    1    2    0    0 -0.51609046116E+02 -0.89041984904E+02 -0.24971123452E+03  0.27008826217E+03  0.00000000000E+00 0.  1.
</event>
<event>
 7    1  0.2641580E-009  0.1566190E+03  0.7561462E-02  0.1192568E+00
         -1   -1    0    0    0  501 -0.00000000000E+00  0.00000000000E+00  0.82612236530E+02  0.82612236530E+02  0.00000000000E+00 0.  1.
          1   -1    0    0  501    0  0.00000000000E+00 -0.00000000000E+00 -0.39320706255E+03  0.39320706255E+03  0.00000000000E+00 0. -1.
         25    2    1    2    0    0 -0.14225340642E+03 -0.64930104529E+01 -0.14137722802E+03  0.23646059720E+03  0.12509157687E+03 0.  0.
          5    1    3    3  502    0  0.76852540482E+01  0.38208522488E+01  0.16110924385E+02  0.18726887788E+02  0.41800000000E+01 0. -1.
         -5    1    3    3    0  502 -0.14993866046E+03 -0.10313862702E+02 -0.15748815241E+03  0.21773370941E+03  0.41800000000E+01 0. -1.
        -11    1    1    2    0    0  0.70760492211E+02 -0.25232174165E+02 -0.13390877301E+03  0.15354240248E+03  0.00000000000E+00 0.  1.
         11    1    1    2    0    0  0.71492914206E+02  0.31725184618E+02 -0.35308824992E+02  0.85816299402E+02  0.00000000000E+00 0. -1.
</event>
<event>
 7    1  0.2641580E-009  0.1038478E+03  0.7561462E-02  0.1272407E+00
          3   -1    0    0  501    0  0.00000000000E+00  0.00000000000E+00  0.33308364190E+03  0.33308364190E+03  0.00000000000E+00 0. -1.
         -3   -1    0    0    0  501 -0.00000000000E+00 -0.00000000000E+00 -0.43002944060E+02  0.43002944060E+02  0.00000000000E+00 0.  1.
         25    2    1    2    0    0  0.50743207673E+02  0.10590930820E+02  0.16687532304E+03  0.21489860981E+03  0.12508796153E+03 0.  0.
          5    1    3    3  502    0  0.44789421259E+02  0.55156454854E+02  0.15117467529E+03  0.16709153664E+03  0.41800000000E+01 0.  1.
         -5    1    3    3    0  502  0.59537864141E+01 -0.44565524034E+02  0.15700647748E+02  0.47807073167E+02  0.41800000000E+01 0.  1.
        -11    1    1    2    0    0  0.17825780038E+02 -0.14068560944E+02  0.72119271390E+02  0.75610000309E+02  0.00000000000E+00 0. -1.
         11    1    1    2    0    0 -0.68568987712E+02  0.34776301242E+01  0.51086103410E+02  0.85577975839E+02  0.00000000000E+00 0.  1.
</event>
<event>
 7    1  0.3453189E-009  0.2764714E+03  0.7561462E-02  0.1097632E+00
          2   -1    0    0  501    0  0.00000000000E+00  0.00000000000E+00  0.10488739241E+04  0.10488739241E+04  0.00000000000E+00 0.  1.
         -2   -1    0    0    0  501 -0.00000000000E+00 -0.00000000000E+00 -0.90758066786E+02  0.90758066786E+02  0.00000000000E+00 0. -1.
         25    2    1    2    0    0  0.26813664548E+03 -0.28679256457E+02  0.67815801385E+03  0.74044860576E+03  0.12508431402E+03 0.  0.
          5    1    3    3  502    0  0.17572331832E+03 -0.68146664202E+01  0.56965868494E+03  0.59619930729E+03  0.41800000000E+01 0. -1.
         -5    1    3    3    0  502  0.92413327167E+02 -0.21864590037E+02  0.10849932891E+03  0.14424929847E+03  0.41800000000E+01 0. -1.
        -11    1    1    2    0    0 -0.62364797019E+02 -0.28271326700E+02  0.92318694249E+02  0.11494075486E+03  0.00000000000E+00 0.  1.
         11    1    1    2    0    0 -0.20577184847E+03  0.56950583157E+02  0.18763914921E+03  0.28424263026E+03  0.00000000000E+00 0. -1.
</event>
<event>
 7    1  0.2641580E-009  0.1249620E+03  0.7561462E-02  0.1235129E+00
         -2   -1    0    0    0  501 -0.00000000000E+00  0.00000000000E+00  0.33009933318E+03  0.33009933318E+03  0.00000000000E+00 0.  1.
          2   -1    0    0  501    0  0.00000000000E+00 -0.00000000000E+00 -0.76576774771E+02  0.76576774771E+02  0.00000000000E+00 0. -1.
         25    2    1    2    0    0 -0.23683012600E+02 -0.90837493298E+02  0.49212996377E+02  0.16395847717E+03  0.12509247759E+03 0.  0.
          5    1    3    3  502    0  0.36098817928E+02 -0.48890228088E+01 -0.16574169363E+02  0.40239317712E+02  0.41800000000E+01 0. -1.
         -5    1    3    3    0  502 -0.59781830528E+02 -0.85948470489E+02  0.65787165740E+02  0.12371915946E+03  0.41800000000E+01 0. -1.
        -11    1    1    2    0    0  0.41271513624E+02  0.57402557927E+02  0.18929073694E+03  0.20206279861E+03  0.00000000000E+00 0.  1.
         11    1    1    2    0    0 -0.17588501024E+02  0.33434935371E+02  0.15018825097E+02  0.40654832171E+02  0.00000000000E+00 0. -1.
</event>
<event>
 7    1  0.2641580E-009  0.1934545E+03  0.7561462E-02  0.1155382E+00
         -3   -1    0    0    0  501 -0.00000000000E+00  0.00000000000E+00  0.13556456640E+04  0.13556456640E+04  0.00000000000E+00 0.  1.
          3   -1    0    0  501    0  0.00000000000E+00 -0.00000000000E+00 -0.34986902566E+02  0.34986902566E+02  0.00000000000E+00 0. -1.
         25    2    1    2    0    0  0.76791634641E+02  0.14703531328E+03  0.39991336401E+03  0.45066035058E+03  0.12509082447E+03 0.  0.
          5    1    3    3  502    0  0.10717643123E+03  0.97421745002E+02  0.23889749722E+03  0.27940520824E+03  0.41800000000E+01 0. -1.
         -5    1    3    3    0  502 -0.30384796587E+02  0.49613568273E+02  0.16101586679E+03  0.17125514234E+03  0.41800000000E+01 0. -1.
        -11    1    1    2    0    0 -0.68706059863E+02 -0.15668911721E+03  0.89620075857E+03  0.91238577465E+03  0.00000000000E+00 0.  1.
         11    1    1    2    0    0 -0.80855747782E+01  0.96538039354E+01  0.24544638892E+02  0.27586441385E+02  0.00000000000E+00 0. -1.
</event>
<event>
 6    1  0.2641580E-009  0.1364760E+03  0.7561462E-02  0.1218151E+00
          2   -1    0    0  501    0  0.00000000000E+00  0.00000000000E+00  0.47164020429E+03  0.47164020429E+03  0.00000000000E+00 0. -1.
         -2   -1    0    0    0  501 -0.00000000000E+00 -0.00000000000E+00 -0.49230526550E+02  0.49230526550E+02  0.00000000000E+00 0.  1.
          5    1    1    2  502    0 -0.90139696195E+02  0.72463669918E+02  0.10368624092E+03  0.15538486813E+03  0.41800000000E+01 0. -1.
         -5    1    1    2    0  502  0.34557986051E+02 -0.58768009028E+01  0.18380784961E+02  0.39800965372E+02  0.41800000000E+01 0. -1.
        -11    1    1    2    0    0 -0.20268868159E+02 -0.33524525043E+02  0.13826772413E+03  0.14371041831E+03  0.00000000000E+00 0. -1.
         11    1    1    2    0    0  0.75850578302E+02 -0.33062343972E+02  0.16207492773E+03  0.18197447902E+03  0.00000000000E+00 0.  1.
</event>
<event>
 7    1  0.2641580E-009  0.1234728E+03  0.7561462E-02  0.1237476E+00
          3   -1    0    0  501    0  0.00000000000E+00  0.00000000000E+00  0.91202603386E+02  0.91202603386E+02  0.00000000000E+00 0. -1.
         -3   -1    0    0    0  501 -0.00000000000E+00 -0.00000000000E+00 -0.25400117415E+03  0.25400117415E+03  0.00000000000E+00 0.  1.
         25    2    1    2    0    0  0.84274843426E+02  0.61530371702E+02 -0.10426968253E+03  0.19341266443E+03  0.12509219077E+03 0.  0.
          5    1    3    3  502    0  0.15161482524E+02 -0.25720975276E+02 -0.71044336763E+02  0.77176481570E+02  0.41800000000E+01 0. -1.
         -5    1    3    3    0  502  0.69113360902E+02  0.87251346978E+02 -0.33225345762E+02  0.11623618286E+03  0.41800000000E+01 0. -1.
        -11    1    1    2    0    0 -0.47208333020E+02 -0.25218608213E+02  0.20446589149E+02  0.57294571424E+02  0.00000000000E+00 0. -1.
         11    1    1    2    0    0 -0.37066510406E+02 -0.36311763489E+02 -0.78975477383E+02  0.94496541679E+02  0.00000000000E+00 0.  1.
</event>
<event>
 7    1  0.2641580E-009  0.1126412E+03  0.7561462E-02  0.1255755E+00
         -2   -1    0    0    0  501 -0.00000000000E+00  0.00000000000E+00  0.17808747181E+02  0.17808747181E+02  0.00000000000E+00 0.  1.
          2   -1    0    0  501    0  0.00000000000E+00 -0.00000000000E+00 -0.74037606057E+03  0.74037606057E+03  0.00000000000E+00 0. -1.
         25    2    1    2    0    0 -0.61334652841E+01  0.16789265121E+02 -0.35236051734E+03  0.37433268951E+03  0.12509008529E+03 0.  0.
          5    1    3    3  502    0  0.45172594589E+02  0.46059883847E+02 -0.22058262147E+03  0.22986135277E+03  0.41800000000E+01 0. -1.
         -5    1    3    3    0  502 -0.51306059873E+02 -0.29270618726E+02 -0.13177789587E+03  0.14447133674E+03  0.41800000000E+01 0. -1.
        -11    1    1    2    0    0  0.20780918314E+02  0.38754362524E+02 -0.15678630281E+03  0.16283639620E+03  0.00000000000E+00 0. -1.
         11    1    1    2    0    0 -0.14647453030E+02 -0.55543627645E+02 -0.21342049325E+03  0.22101572204E+03  0.00000000000E+00 0.  1.
</event>
<event>
 7    1  0.2641580E-009  0.7709249E+02  0.7561462E-02  0.1337511E+00
          2   -1    0    0  501    0  0.00000000000E+00  0.00000000000E+00  0.79618650992E+03  0.79618650992E+03  0.00000000000E+00 0. -1.
         -2   -1    0    0    0  501 -0.00000000000E+00 -0.00000000000E+00 -0.18894540111E+02  0.18894540111E+02  0.00000000000E+00 0.  1.
         25    2    1    2    0    0  0.24494954353E+02  0.40262837987E+02  0.32345595856E+03  0.34998952270E+03  0.12509120658E+03 0.  0.
          5    1    3    3  502    0  0.49287624500E+00  0.25373548090E+02  0.32022299955E+03  0.32125426333E+03  0.41800000000E+01 0.  1.
         -5    1    3    3    0  502  0.24002078108E+02  0.14889289897E+02  0.32329590087E+01  0.28735259370E+02  0.41800000000E+01 0.  1.
        -11    1    1    2    0    0  0.25862210297E+02 -0.42225925236E+02  0.26841152201E+03  0.27294070388E+03  0.00000000000E+00 0.  1.
         11    1    1    2    0    0 -0.50357164650E+02  0.19630872488E+01  0.18542448924E+03  0.19215082345E+03  0.00000000000E+00 0. -1.
</event>
<event>
 7    1  0.2641580E-009  0.1781466E+03  0.7561462E-02  0.1169609E+00
          2   -1    0    0  501    0  0.00000000000E+00  0.00000000000E+00  0.30795615104E+03  0.30795615104E+03  0.00000000000E+00 0. -1.
         -2   -1    0    0    0  501 -0.00000000000E+00 -0.00000000000E+00 -0.44083870025E+03  0.44083870025E+03  0.00000000000E+00 0.  1.
         25    2    1    2    0    0 -0.10154216381E+03  0.12028408213E+03  0.25253365787E+03  0.32280037743E+03  0.12509102232E+03 0.  0.
          5    1    3    3  502    0  0.15734582492E+02  0.57867300940E+02  0.12447263457E+03  0.13822847305E+03  0.41800000000E+01 0. -1.
         -5    1    3    3    0  502 -0.11727674631E+03  0.62416781191E+02  0.12806102330E+03  0.18457190438E+03  0.41800000000E+01 0. -1.
        -11    1    1    2    0    0  0.59542141728E+02 -0.37317658115E+02 -0.26322281849E+03  0.27244105128E+03  0.00000000000E+00 0. -1.
         11    1    1    2    0    0  0.42000022087E+02 -0.82966424017E+02 -0.12219338860E+03  0.15355342258E+03  0.00000000000E+00 0.  1.
</event>
<event>
 7    1  0.2641580E-009  0.1180230E+03  0.7561462E-02  0.1246394E+00
         -2   -1    0    0    0  501 -0.00000000000E+00  0.00000000000E+00  0.14765833912E+03  0.14765833912E+03  0.00000000000E+00 0.  1.
          2   -1    0    0  501    0  0.00000000000E+00 -0.00000000000E+00 -0.12176632394E+03  0.12176632394E+03  0.00000000000E+00 0. -1.
         25    2    1    2    0    0  0.34176439837E+02  0.61693982787E+02 -0.19715847089E+02  0.14495337672E+03  0.12509432539E+03 0.  0.
          5    1    3    3  502    0 -0.22354357523E+02  0.71337794170E+02 -0.38849629581E+02  0.84353804276E+02  0.41800000000E+01 0. -1.
         -5    1    3    3    0  502  0.56530797360E+02 -0.96438113832E+01  0.19133782492E+02  0.60599572446E+02  0.41800000000E+01 0. -1.
        -11    1    1    2    0    0 -0.22575908311E+02  0.14348109392E+02 -0.11043283409E+02  0.28939488379E+02  0.00000000000E+00 0.  1.
         11    1    1    2    0    0 -0.11600531526E+02 -0.76042092178E+02  0.56651145684E+02  0.95531797962E+02  0.00000000000E+00 0. -1.
</event>
<event>
 7    1  0.2641580E-009  0.9150570E+02  0.7561462E-02  0.1299246E+00
         -2   -1    0    0    0  501 -0.00000000000E+00  0.00000000000E+00  0.32452999364E+02  0.32452999364E+02  0.00000000000E+00 0.  1.
          2   -1    0    0  501    0  0.00000000000E+00 -0.00000000000E+00 -0.65453932283E+03  0.65453932283E+03  0.00000000000E+00 0. -1.
         25    2    1    2    0    0  0.44811574583E+01  0.20870547656E+02 -0.11631038641E+03  0.17213727286E+03  0.12508986446E+03 0.  0.
          5    1    3    3  502    0 -0.27846262709E+02 -0.19955093406E+02  0.95969854029E+01  0.35821706108E+02  0.41800000000E+01 0.  1.
         -5    1    3    3    0  502  0.32327420167E+02  0.40825641061E+02 -0.12590737181E+03  0.13631556676E+03  0.41800000000E+01 0.  1.
        -11    1    1    2    0    0  0.44559695434E+02 -0.56982188625E+01 -0.23330929257E+03  0.23759474353E+03  0.00000000000E+00 0.  1.
         11    1    1    2    0    0 -0.49040852893E+02 -0.15172328793E+02 -0.27246664448E+03  0.27726030580E+03  0.00000000000E+00 0. -1.
</event>
<event>
 7    1  0.2641580E-009  0.1620440E+03  0.7561462E-02  0.1186408E+00
          1   -1    0    0  501    0  0.00000000000E+00  0.00000000000E+00  0.16459215619E+03  0.16459215619E+03  0.00000000000E+00 0. -1.
         -1   -1    0    0    0  501 -0.00000000000E+00 -0.00000000000E+00 -0.22113176691E+03  0.22113176691E+03  0.00000000000E+00 0.  1.
         25    2    1    2    0    0  0.10886572034E+03  0.97970081104E+02 -0.24881204357E+02  0.19420691515E+03  0.12508944683E+03 0.  0.
          5    1    3    3  502    0  0.21284086342E+02 -0.18325610356E+02 -0.38596644633E+02  0.47916737193E+02  0.41800000000E+01 0.  1.
         -5    1    3    3    0  502  0.87581633996E+02  0.11629569146E+03  0.13715440276E+02  0.14629017796E+03  0.41800000000E+01 0.  1.
        -11    1    1    2    0    0 -0.57260668064E+02 -0.72827604593E+02  0.38967842652E+02  0.10050441214E+03  0.00000000000E+00 0. -1.
         11    1    1    2    0    0 -0.51605052275E+02 -0.25142476511E+02 -0.70626249017E+02  0.91012595808E+02  0.00000000000E+00 0.  1.
</event>
<event>
 7    1  0.2641580E-009  0.1125369E+03  0.7561462E-02  0.1255943E+00
          1   -1    0    0  501    0  0.00000000000E+00  0.00000000000E+00  0.28087713726E+03  0.28087713726E+03  0.00000000000E+00 0. -1.
         -1   -1    0    0    0  501 -0.00000000000E+00 -0.00000000000E+00 -0.52226890260E+02  0.52226890260E+02  0.00000000000E+00 0.  1.
         25    2    1    2    0    0 -0.30729443836E+02 -0.38357834372E+02  0.97205055467E+02  0.16586572995E+03  0.12508795061E+03 0.  0.
          5    1    3    3  502    0 -0.15289697306E+02 -0.82558834549E+02  0.44052688176E+02  0.94909682021E+02  0.41800000000E+01 0. -1.
         -5    1    3    3    0  502 -0.15439746530E+02  0.44201000176E+02  0.53152367290E+02  0.70956047932E+02  0.41800000000E+01 0. -1.
        -11    1    1    2    0    0  0.34237191399E+02 -0.17212216877E+02  0.21356805066E+02  0.43869793791E+02  0.00000000000E+00 0.  1.
         11    1    1    2    0    0 -0.35077475621E+01  0.55570051249E+02  0.11008838646E+03  0.12336850377E+03  0.00000000000E+00 0. -1.
</event>
<event>
 7    1  0.2641580E-009  0.8988727E+02  0.7561462E-02  0.1303125E+00
         -4   -1    0    0    0  501 -0.00000000000E+00  0.00000000000E+00  0.61546890364E+02  0.61546890364E+02  0.00000000000E+00 0.  1.
          4   -1    0    0  501    0  0.00000000000E+00 -0.00000000000E+00 -0.20595734781E+03  0.20595734781E+03  0.00000000000E+00 0. -1.
         25    2    1    2    0    0 -0.12777684935E+02  0.24260443686E+02 -0.60013378916E+02  0.14142483982E+03  0.12509013274E+03 0.  0.
          5    1    3    3  502    0 -0.47289288925E+02  0.76006269247E+01 -0.83450736647E+02  0.96309626848E+02  0.41800000000E+01 0.  1.
         -5    1    3    3    0  502  0.34511603990E+02  0.16659816762E+02  0.23437357731E+02  0.45115212976E+02  0.41800000000E+01 0.  1.
        -11    1    1    2    0    0  0.46489947568E+01 -0.58129859069E+02 -0.46308492061E+02  0.74465898938E+02  0.00000000000E+00 0.  1.
         11    1    1    2    0    0  0.81286901780E+01  0.33869415383E+02 -0.38088586468E+02  0.51613499412E+02  0.00000000000E+00 0. -1.
</event>
<event>
 7    1  0.2641580E-009  0.1483638E+03  0.7561462E-02  0.1202498E+00
          2   -1    0    0  501    0  0.00000000000E+00  0.00000000000E+00  0.61773618107E+03  0.61773618107E+03  0.00000000000E+00 0. -1.
         -2   -1    0    0    0  501 -0.00000000000E+00 -0.00000000000E+00 -0.48145779349E+02  0.48145779349E+02  0.00000000000E+00 0.  1.
         25    2    1    2    0    0 -0.65739591688E+02 -0.11294635598E+03  0.35373941341E+03  0.39731338601E+03  0.12509109025E+03 0.  0.
          5    1    3    3  502    0 -0.23304547639E+02 -0.10160291979E+02 -0.74259658310E+00  0.25775129940E+02  0.41800000000E+01 0. -1.
         -5    1    3    3    0  502 -0.42435044050E+02 -0.10278606400E+03  0.35448200999E+03  0.37153825607E+03  0.41800000000E+01 0. -1.
        -11    1    1    2    0    0  0.85565817733E+02  0.63934694956E+02  0.14924425623E+03  0.18352929576E+03  0.00000000000E+00 0.  1.
         11    1    1    2    0    0 -0.19826226045E+02  0.49011661020E+02  0.66606732087E+02  0.85039278657E+02  0.00000000000E+00 0. -1.
</event>
<event>
 7    1  0.2641580E-009  0.1103446E+03  0.7561462E-02  0.1259933E+00
         -3   -1    0    0    0  501 -0.00000000000E+00  0.00000000000E+00  0.18115220321E+03  0.18115220321E+03  0.00000000000E+00 0.  1.
          3   -1    0    0  501    0  0.00000000000E+00 -0.00000000000E+00 -0.14517987543E+03  0.14517987543E+03  0.00000000000E+00 0. -1.
         25    2    1    2    0    0  0.50615627644E+02 -0.53244338866E+02  0.11455021657E+03  0.18484175842E+03  0.12509125531E+03 0.  0.
          5    1    3    3  502    0 -0.40863341567E+02 -0.60701103315E+01  0.25910437334E+02  0.48943662371E+02  0.41800000000E+01 0. -1.
         -5    1    3    3    0  502  0.91478969211E+02 -0.47174228534E+02  0.88639779237E+02  0.13589809605E+03  0.41800000000E+01 0. -1.
        -11    1    1    2    0    0 -0.43172307478E+02  0.32270987210E+02  0.58141402596E+01  0.54213180828E+02  0.00000000000E+00 0.  1.
         11    1    1    2    0    0 -0.74433201661E+01  0.20973351656E+02 -0.84392029048E+02  0.87277139398E+02  0.00000000000E+00 0. -1.
</event>
<event>
 7    1  0.2641580E-009  0.8399556E+02  0.7561462E-02  0.1318080E+00
          2   -1    0    0  501    0  0.00000000000E+00  0.00000000000E+00  0.24866447434E+03  0.24866447434E+03  0.00000000000E+00 0. -1.
         -2   -1    0    0    0  501 -0.00000000000E+00 -0.00000000000E+00 -0.60918767607E+02  0.60918767607E+02  0.00000000000E+00 0.  1.
         25    2    1    2    0    0  0.56641062574E+02 -0.52700893429E+01  0.12321900383E+03  0.18457078321E+03  0.12508983691E+03 0.  0.
          5    1    3    3  502    0  0.21046966367E+02  0.12208222020E+02 -0.22556271566E+02  0.33440593074E+02  0.41800000000E+01 0. -1.
         -5    1    3    3    0  502  0.35594096206E+02 -0.17478311363E+02  0.14577527540E+03  0.15113019013E+03  0.41800000000E+01 0. -1.
        -11    1    1    2    0    0  0.23305055203E+02 -0.74217994220E-01  0.29425501902E+02  0.37536532452E+02  0.00000000000E+00 0. -1.
         11    1    1    2    0    0 -0.79946117777E+02  0.53443073371E+01  0.35101201002E+02  0.87475926290E+02  0.00000000000E+00 0.  1.
</event>
<event>
 7    1  0.2641580E-009  0.9516201E+02  0.7561462E-02  0.1290812E+00
         -3   -1    0    0    0  501 -0.00000000000E+00  0.00000000000E+00  0.31954839206E+03  0.31954839206E+03  0.00000000000E+00 0.  1.
          3   -1    0    0  501    0  0.00000000000E+00 -0.00000000000E+00 -0.40961593623E+02  0.40961593623E+02  0.00000000000E+00 0. -1.
         25    2    1    2    0    0 -0.18814672624E+02 -0.38868289687E+01  0.12829683142E+03  0.18021121638E+03  0.12508759416E+03 0.  0.
          5    1    3    3  502    0 -0.60141585620E+02 -0.24384758336E+02  0.30145020446E+02  0.71678598045E+02  0.41800000000E+01 0. -1.
         -5    1    3    3    0  502  0.41326912996E+02  0.20497929367E+02  0.98151810975E+02  0.10853261834E+03  0.41800000000E+01 0. -1.
        -11    1    1    2    0    0  0.47414994757E+02 -0.78445881638E+01  0.13951693156E+03  0.14756250704E+03  0.00000000000E+00 0.  1.
         11    1    1    2    0    0 -0.28600322133E+02  0.11731417132E+02  0.10773035460E+02  0.32736262264E+02  0.00000000000E+00 0. -1.
</event>
<event>
 7    1  0.2641580E-009  0.1994756E+03  0.7561462E-02  0.1150182E+00
         -1   -1    0    0    0  501 -0.00000000000E+00  0.00000000000E+00  0.15631887221E+03  0.15631887221E+03  0.00000000000E+00 0.  1.
          1   -1    0    0  501    0  0.00000000000E+00 -0.00000000000E+00 -0.42502164320E+03  0.42502164320E+03  0.00000000000E+00 0. -1.
         25    2    1    2    0    0  0.32043957043E+02  0.18670544734E+03 -0.29075220871E+03  0.36888044307E+03  0.12510074005E+03 0.  0.
          5    1    3    3  502    0 -0.17445660767E+02  0.10532920583E+03 -0.23571215861E+03  0.25879777201E+03  0.41800000000E+01 0. -1.
         -5    1    3    3    0  502  0.49489617810E+02  0.81376241508E+02 -0.55040050104E+02  0.11008267106E+03  0.41800000000E+01 0. -1.
        -11    1    1    2    0    0 -0.45534313280E+02 -0.11280608372E+03 -0.24491811453E+02  0.12409043089E+03  0.00000000000E+00 0.  1.
         11    1    1    2    0    0  0.13490356237E+02 -0.73899363618E+02  0.46541249171E+02  0.88369641444E+02  0.00000000000E+00 0. -1.
</event>
<event>
 7    1  0.2641580E-009  0.2262934E+03  0.7561462E-02  0.1129276E+00
         -1   -1    0    0    0  501 -0.00000000000E+00  0.00000000000E+00  0.35997927400E+03  0.35997927400E+03  0.00000000000E+00 0.  1.
          1   -1    0    0  501    0  0.00000000000E+00 -0.00000000000E+00 -0.15558493793E+03  0.15558493793E+03  0.00000000000E+00 0. -1.
         25    2    1    2    0    0 -0.26080042328E+02  0.20718876705E+03  0.13119569216E+03  0.27652755761E+03  0.12509127339E+03 0.  0.
          5    1    3    3  502    0  0.36177071051E+02  0.16243066271E+03  0.84932840408E+02  0.18687846435E+03  0.41800000000E+01 0. -1.
         -5    1    3    3    0  502 -0.62257113379E+02  0.44758104337E+02  0.46262851751E+02  0.89649093259E+02  0.41800000000E+01 0. -1.
        -11    1    1    2    0    0  0.88377288248E+01 -0.12724750790E+03  0.89274589097E+02  0.15569195861E+03  0.00000000000E+00 0.  1.
         11    1    1    2    0    0  0.17242313503E+02 -0.79941259144E+02 -0.16075945189E+02  0.83344695705E+02  0.00000000000E+00 0. -1.
</event>
<event>
 7    1  0.2641580E-009  0.1556699E+03  0.7561462E-02  0.1193674E+00
          3   -1    0    0  501    0  0.00000000000E+00  0.00000000000E+00  0.53058360698E+03  0.53058360698E+03  0.00000000000E+00 0. -1.
         -3   -1    0    0    0  501 -0.00000000000E+00 -0.00000000000E+00 -0.87279014766E+02  0.87279014766E+02  0.00000000000E+00 0.  1.
         25    2    1    2    0    0  0.11143852898E+03  0.10478935832E+03  0.37969760877E+03  0.42803866017E+03  0.12508982827E+03 0.  0.
          5    1    3    3  502    0  0.48900866031E+01  0.15528409048E+02 -0.61494329332E+01  0.17897831152E+02  0.41800000000E+01 0.  1.
         -5    1    3    3    0  502  0.10654844237E+03  0.89260949270E+02  0.38584704171E+03  0.41014082902E+03  0.41800000000E+01 0.  1.
        -11    1    1    2    0    0 -0.46034897986E+02 -0.25282302405E+02  0.69019823570E+02  0.86730287057E+02  0.00000000000E+00 0. -1.
         11    1    1    2    0    0 -0.65403630992E+02 -0.79507055913E+02 -0.54128401281E+01  0.10309367452E+03  0.00000000000E+00 0.  1.
</event>
<event>
 7    1  0.2641580E-009  0.1224599E+03  0.7561462E-02  0.1239093E+00
         -1   -1    0    0    0  501 -0.00000000000E+00  0.00000000000E+00  0.20055195825E+02  0.20055195825E+02  0.00000000000E+00 0.  1.
          1   -1    0    0  501    0  0.00000000000E+00 -0.00000000000E+00 -0.80732820996E+03  0.80732820996E+03  0.00000000000E+00 0. -1.
         25    2    1    2    0    0  0.55533556632E+02  0.30817884377E+02 -0.37045891039E+03  0.39613205757E+03  0.12508830816E+03 0.  0.
          5    1    3    3  502    0  0.83052825482E+02 -0.14536672449E+02 -0.18826293501E+03  0.20632375473E+03  0.41800000000E+01 0. -1.
         -5    1    3    3    0  502 -0.27519268851E+02  0.45354556827E+02 -0.18219597538E+03  0.18980830285E+03  0.41800000000E+01 0. -1.
        -11    1    1    2    0    0 -0.43863043368E+02 -0.60881430920E+02 -0.23787531861E+03  0.24942971437E+03  0.00000000000E+00 0. -1.
         11    1    1    2    0    0 -0.11670513264E+02  0.30063546542E+02 -0.17893878513E+03  0.18182163384E+03  0.00000000000E+00 0.  1.
</event>
<event>
 7    1  0.2641580E-009  0.1739200E+03  0.7561462E-02  0.1173821E+00
          2   -1    0    0  501    0  0.00000000000E+00  0.00000000000E+00  0.18323729071E+04  0.18323729071E+04  0.00000000000E+00 0.  1.
         -2   -1    0    0    0  501 -0.00000000000E+00 -0.00000000000E+00 -0.19591831502E+02  0.19591831502E+02  0.00000000000E+00 0. -1.
         25    2    1    2    0    0  0.15352206379E+03  0.99848495989E+01  0.10265107737E+04  0.10454852608E+04  0.12508533377E+03 0.  0.
          5    1    3    3  502    0  0.11414680033E+03 -0.26517315371E+02  0.40467254105E+03  0.42131935384E+03  0.41800000000E+01 0. -1.
         -5    1    3    3    0  502  0.39375263460E+02  0.36502164970E+02  0.62183823263E+03  0.62416590694E+03  0.41800000000E+01 0. -1.
        -11    1    1    2    0    0 -0.92045851446E+02 -0.48638333050E+02  0.52953585901E+03  0.53967244898E+03  0.00000000000E+00 0.  1.
         11    1    1    2    0    0 -0.61476212344E+02  0.38653483452E+02  0.25673444292E+03  0.26680702886E+03  0.00000000000E+00 0. -1.
</event>
<event>
 7    1  0.2641580E-009  0.1116908E+03  0.7561462E-02  0.1257470E+00
         -2   -1    0    0    0  501 -0.00000000000E+00  0.00000000000E+00  0.57274071356E+02  0.57274071356E+02  0.00000000000E+00 0.  1.
          2   -1    0    0  501    0  0.00000000000E+00 -0.00000000000E+00 -0.36619721681E+03  0.36619721681E+03  0.00000000000E+00 0. -1.
         25    2    1    2    0    0 -0.28554086695E+02 -0.40379100376E+02 -0.27565840063E+03  0.30672712370E+03  0.12509263353E+03 0.  0.
          5    1    3    3  502    0  0.24608891822E+02  0.34051422062E+02 -0.72692563207E+02  0.84064130560E+02  0.41800000000E+01 0.  1.
         -5    1    3    3    0  502 -0.53162978517E+02 -0.74430522438E+02 -0.20296583742E+03  0.22266299314E+03  0.41800000000E+01 0.  1.
        -11    1    1    2    0    0  0.99511968047E+01  0.61011713574E+02  0.12631223882E+02  0.63095192589E+02  0.00000000000E+00 0.  1.
         11    1    1    2    0    0  0.18602889890E+02 -0.20632613198E+02 -0.45895968708E+02  0.53648971875E+02  0.00000000000E+00 0. -1.
</event>
<event>
 7    1  0.2641580E-009  0.9317802E+02  0.7561462E-02  0.1295333E+00
         -1   -1    0    0    0  501 -0.00000000000E+00  0.00000000000E+00  0.22126934081E+03  0.22126934081E+03  0.00000000000E+00 0.  1.
          1   -1    0    0  501    0  0.00000000000E+00 -0.00000000000E+00 -0.54500432447E+02  0.54500432447E+02  0.00000000000E+00 0. -1.
         25    2    1    2    0    0 -0.17796790018E+02 -0.22487579958E+02  0.73692534000E+02  0.14798822558E+03  0.12509000103E+03 0.  0.
          5    1    3    3  502    0 -0.48628543796E+02 -0.49867220482E+02  0.79900743335E+02  0.10608051723E+03  0.41800000000E+01 0.  1.
         -5    1    3    3    0  502  0.30831753778E+02  0.27379640524E+02 -0.62082093350E+01  0.41907708353E+02  0.41800000000E+01 0.  1.
        -11    1    1    2    0    0  0.15216317898E+02 -0.24084927439E+02  0.70342029457E+02  0.75892168030E+02  0.00000000000E+00 0.  1.
         11    1    1    2    0    0  0.25804721204E+01  0.46572507397E+02  0.22734344907E+02  0.51889379645E+02  0.00000000000E+00 0. -1.
</event>
<event>
 7    1  0.2641580E-009  0.1606958E+03  0.7561462E-02  0.1187913E+00
          2   -1    0    0  501    0  0.00000000000E+00  0.00000000000E+00  0.59676131390E+03  0.59676131390E+03  0.00000000000E+00 0.  1.
         -2   -1    0    0    0  501 -0.00000000000E+00 -0.00000000000E+00 -0.52139128984E+02  0.52139128984E+02  0.00000000000E+00 0. -1.
         25    2    1    2    0    0  0.12430176718E+03  0.62181167893E+02  0.29398000146E+03  0.34840925759E+03  0.12508933827E+03 0.  0.
          5    1    3    3  502    0  0.83941833554E+02  0.77772119955E+02  0.28038270114E+03  0.30286410412E+03  0.41800000000E+01 0. -1.
         -5    1    3    3    0  502  0.40359933630E+02 -0.15590952062E+02  0.13597300321E+02  0.45545153472E+02  0.41800000000E+01 0. -1.
        -11    1    1    2    0    0 -0.84086666771E+02  0.59538148617E+01  0.15430605615E+03  0.17583052751E+03  0.00000000000E+00 0. -1.
         11    1    1    2    0    0 -0.40215100412E+02 -0.68134982755E+02  0.96336127310E+02  0.12466065779E+03  0.00000000000E+00 0.  1.
</event>
<event>
 7    1  0.2641580E-009  0.1600730E+03  0.7561462E-02  0.1188614E+00
          1   -1    0    0  501    0  0.00000000000E+00  0.00000000000E+00  0.68578970246E+03  0.68578970246E+03  0.00000000000E+00 0. -1.
         -1   -1    0    0    0  501 -0.00000000000E+00 -0.00000000000E+00 -0.42998493793E+02  0.42998493793E+02  0.00000000000E+00 0.  1.
         25    2    1    2    0    0 -0.17151380730E+02  0.11739748831E+03  0.46425645164E+03  0.49523482981E+03  0.12508854321E+03 0.  0.
          5    1    3    3  502    0 -0.31418140142E+02  0.13944129063E+03  0.35340945222E+03  0.38124360503E+03  0.41800000000E+01 0.  1.
         -5    1    3    3    0  502  0.14266759412E+02 -0.22043802315E+02  0.11084699942E+03  0.11399122477E+03  0.41800000000E+01 0.  1.
        -11    1    1    2    0    0  0.53637586084E+02 -0.47208289628E+02  0.86340128458E+02  0.11207243654E+03  0.00000000000E+00 0. -1.
         11    1    1    2    0    0 -0.36486205354E+02 -0.70189198685E+02  0.92194628573E+02  0.12148092991E+03  0.00000000000E+00 0.  1.
</event>
<event>
 7    1  0.2641580E-009  0.1868377E+03  0.7561462E-02  0.1161345E+00
         -1   -1    0    0    0  501 -0.00000000000E+00  0.00000000000E+00  0.64840800083E+02  0.64840800083E+02  0.00000000000E+00 0.  1.
          1   -1    0    0  501    0  0.00000000000E+00 -0.00000000000E+00 -0.93191291801E+03  0.93191291801E+03  0.00000000000E+00 0. -1.
         25    2    1    2    0    0 -0.13106249788E+03  0.13148198697E+03 -0.68747363697E+03  0.72300178640E+03  0.12508673135E+03 0.  0.
          5    1    3    3  502    0 -0.63741902954E+02  0.56382232132E+02 -0.12333480680E+03  0.14990307956E+03  0.41800000000E+01 0. -1.
         -5    1    3    3    0  502 -0.67320594929E+02  0.75099754835E+02 -0.56413883017E+03  0.57309870684E+03  0.41800000000E+01 0. -1.
        -11    1    1    2    0    0  0.37944908888E+01 -0.13374315013E+02  0.96492082570E+01  0.16922697278E+02  0.00000000000E+00 0.  1.
         11    1    1    2    0    0  0.12726800700E+03 -0.11810767195E+03 -0.18924768922E+03  0.25682923442E+03  0.00000000000E+00 0. -1.
</event>
<event>
 7    1  0.2641580E-009  0.1837917E+03  0.7561462E-02  0.1164183E+00
         -1   -1    0    0    0  501 -0.00000000000E+00  0.00000000000E+00  0.11901011326E+03  0.11901011326E+03  0.00000000000E+00 0.  1.
          1   -1    0    0  501    0  0.00000000000E+00 -0.00000000000E+00 -0.35729460002E+03  0.35729460002E+03  0.00000000000E+00 0. -1.
         25    2    1    2    0    0  0.16278058473E+03 -0.62837058562E+02 -0.11748185331E+03  0.24473769254E+03  0.12509411498E+03 0.  0.
          5    1    3    3  502    0  0.11730873529E+03 -0.82384363389E+01 -0.13101357985E+02  0.11839902529E+03  0.41800000000E+01 0.  1.
         -5    1    3    3    0  502  0.45471849440E+02 -0.54598622223E+02 -0.10438049532E+03  0.12633866725E+03  0.41800000000E+01 0.  1.
        -11    1    1    2    0    0 -0.13625889103E+03  0.67079758527E+02 -0.56786498227E+02  0.16214464459E+03  0.00000000000E+00 0.  1.
         11    1    1    2    0    0 -0.26521693694E+02 -0.42426999649E+01 -0.64016135235E+02  0.69422376147E+02  0.00000000000E+00 0. -1.
</event>
<event>
 7    1  0.2641580E-009  0.9415111E+02  0.7561462E-02  0.1293100E+00
         -1   -1    0    0    0  501 -0.00000000000E+00  0.00000000000E+00  0.48133871516E+02  0.48133871516E+02  0.00000000000E+00 0.  1.
          1   -1    0    0  501    0  0.00000000000E+00 -0.00000000000E+00 -0.28792524314E+03  0.28792524314E+03  0.00000000000E+00 0. -1.
         25    2    1    2    0    0 -0.30765687558E+02  0.46613601270E+01 -0.14689662583E+03  0.19543471415E+03  0.12509137862E+03 0.  0.
          5    1    3    3  502    0  0.30890927208E+02 -0.40735804563E+02 -0.47610280580E+02  0.69984758155E+02  0.41800000000E+01 0.  1.
         -5    1    3    3    0  502 -0.61656614766E+02  0.45397164690E+02 -0.99286345249E+02  0.12544995599E+03  0.41800000000E+01 0.  1.
        -11    1    1    2    0    0  0.26866486048E+02 -0.26740701433E+02  0.67377653273E+01  0.38500268406E+02  0.00000000000E+00 0.  1.
         11    1    1    2    0    0  0.38992015105E+01  0.22079341306E+02 -0.99632511122E+02  0.10212413210E+03  0.00000000000E+00 0. -1.
</event>
<event>
 7    1  0.2641580E-009  0.1190547E+03  0.7561462E-02  0.1244665E+00
          2   -1    0    0  501    0  0.00000000000E+00  0.00000000000E+00  0.14707701335E+03  0.14707701335E+03  0.00000000000E+00 0. -1.
         -2   -1    0    0    0  501 -0.00000000000E+00 -0.00000000000E+00 -0.11223030046E+03  0.11223030046E+03  0.00000000000E+00 0.  1.
         25    2    1    2    0    0 -0.58249017640E+02 -0.23164866025E+02  0.49792869426E+02  0.14851606133E+03  0.12509249200E+03 0.  0.
          5    1    3    3  502    0 -0.51106671555E+02  0.40681476996E+02  0.52754205654E+02  0.84067550590E+02  0.41800000000E+01 0.  1.
         -5    1    3    3    0  502 -0.71423460854E+01 -0.63846343021E+02 -0.29613362280E+01  0.64448510743E+02  0.41800000000E+01 0.  1.
        -11    1    1    2    0    0 -0.23746286201E+02  0.61939542700E+01  0.41985154173E+01  0.24897363506E+02  0.00000000000E+00 0. -1.
         11    1    1    2    0    0  0.81995303841E+02  0.16970911755E+02 -0.19144671959E+02  0.85893888969E+02  0.00000000000E+00 0.  1.
</event>
<event>
 7    1  0.2641580E-009  0.1880290E+03  0.7561462E-02  0.1160251E+00
          1   -1    0    0  501    0  0.00000000000E+00  0.00000000000E+00  0.33471831015E+03  0.33471831015E+03  0.00000000000E+00 0. -1.
         -1   -1    0    0    0  501 -0.00000000000E+00 -0.00000000000E+00 -0.12403474736E+03  0.12403474736E+03  0.00000000000E+00 0.  1.
         25    2    1    2    0    0 -0.14495689809E+03 -0.88603751195E+02  0.77979806801E+02  0.22492356737E+03  0.12508650552E+03 0.  0.
          5    1    3    3  502    0  0.10471661310E+02  0.15407548636E+02  0.23108895135E+02  0.29975684812E+02  0.41800000000E+01 0. -1.
         -5    1    3    3    0  502 -0.15542855940E+03 -0.10401129983E+03  0.54870911666E+02  0.19494788256E+03  0.41800000000E+01 0. -1.
        -11    1    1    2    0    0  0.11232657222E+03  0.67867191840E+02  0.14272412507E+03  0.19389015042E+03  0.00000000000E+00 0. -1.
         11    1    1    2    0    0  0.32630325872E+02  0.20736559355E+02 -0.10020369083E+02  0.39939339716E+02  0.00000000000E+00 0.  1.
</event>
<event>
 7    1  0.2641580E-009  0.1036321E+03  0.7561462E-02  0.1272838E+00
          1   -1    0    0  501    0  0.00000000000E+00  0.00000000000E+00  0.14871977097E+03  0.14871977097E+03  0.00000000000E+00 0. -1.
         -1   -1    0    0    0  501 -0.00000000000E+00 -0.00000000000E+00 -0.12253790248E+03  0.12253790248E+03  0.00000000000E+00 0.  1.
         25    2    1    2    0    0  0.51955668849E+02 -0.17881634150E+02  0.74500049701E+02  0.15562033873E+03  0.12509311754E+03 0.  0.
          5    1    3    3  502    0  0.27060383881E+02 -0.71162238393E+02  0.53022963015E+02  0.92872146286E+02  0.41800000000E+01 0. -1.
         -5    1    3    3    0  502  0.24895284967E+02  0.53280604243E+02  0.21477086686E+02  0.62748192441E+02  0.41800000000E+01 0. -1.
        -11    1    1    2    0    0  0.19008693974E+01  0.18101151856E+02  0.21042836924E+02  0.27822041421E+02  0.00000000000E+00 0. -1.
         11    1    1    2    0    0 -0.53856538246E+02 -0.21951770616E+00 -0.69361018136E+02  0.87815293297E+02  0.00000000000E+00 0.  1.
</event>
<event>
 6    1  0.2641580E-009  0.6282399E+02  0.7561462E-02  0.1386349E+00
          2   -1    0    0  501    0  0.00000000000E+00  0.00000000000E+00  0.91315359236E+02  0.91315359236E+02  0.00000000000E+00 0. -1.
         -2   -1    0    0    0  501 -0.00000000000E+00 -0.00000000000E+00 -0.14564004664E+03  0.14564004664E+03  0.00000000000E+00 0.  1.
          5    1    1    2  502    0 -0.29523190536E+01 -0.52243711219E+02  0.25684883001E+02  0.58440629398E+02  0.41800000000E+01 0.  1.
         -5    1    1    2    0  502  0.11598673878E+02  0.36967791389E+02 -0.61748912740E+02  0.73017446275E+02  0.41800000000E+01 0.  1.
        -11    1    1    2    0    0 -0.18802163480E+02  0.44114658064E+01 -0.59025331622E+02  0.62104526044E+02  0.00000000000E+00 0.  1.
         11    1    1    2    0    0  0.10155808655E+02  0.10864454023E+02  0.40764673952E+02  0.43392804163E+02  0.00000000000E+00 0. -1.
</event>
<event>
 7    1  0.2641580E-009  0.8963900E+02  0.7561462E-02  0.1303728E+00
         -1   -1    0    0    0  501 -0.00000000000E+00  0.00000000000E+00  0.68852490876E+02  0.68852490876E+02  0.00000000000E+00 0.  1.
          1   -1    0    0  501    0  0.00000000000E+00 -0.00000000000E+00 -0.21387458909E+03  0.21387458909E+03  0.00000000000E+00 0. -1.
         25    2    1    2    0    0  0.32668425028E+01  0.26897105636E+02 -0.25989017049E+02  0.13060075265E+03  0.12508797318E+03 0.  0.
          5    1    3    3  502    0  0.49689313142E+02  0.49024526044E+02  0.55185194726E+01  0.70145266780E+02  0.41800000000E+01 0.  1.
         -5    1    3    3    0  502 -0.46422470640E+02 -0.22127420408E+02 -0.31507536522E+02  0.60455485871E+02  0.41800000000E+01 0.  1.
        -11    1    1    2    0    0  0.21807696329E+02 -0.11850976449E+01 -0.11374742759E+03  0.11582511540E+03  0.00000000000E+00 0. -1.
         11    1    1    2    0    0 -0.25074538832E+02 -0.25712007991E+02 -0.52856535775E+01  0.36301211913E+02  0.00000000000E+00 0.  1.
</event>
<event>
 7    1  0.2641580E-009  0.6612964E+02  0.7561462E-02  0.1373772E+00
          1   -1    0    0  501    0  0.00000000000E+00  0.00000000000E+00  0.56012051201E+02  0.56012051201E+02  0.00000000000E+00 0. -1.
         -1   -1    0    0    0  501 -0.00000000000E+00 -0.00000000000E+00 -0.23499583536E+03  0.23499583536E+03  0.00000000000E+00 0.  1.
         25    2    1    2    0    0 -0.55798698321E+01  0.25170097950E+02 -0.78480442687E+02  0.14991787764E+03  0.12510604051E+03 0.  0.
          5    1    3    3  502    0  0.75374123232E+01  0.43091284584E+01 -0.10958924590E+03  0.11001207384E+03  0.41800000000E+01 0.  1.
         -5    1    3    3    0  502 -0.13117282155E+02  0.20860969492E+02  0.31108803215E+02  0.39905803798E+02  0.41800000000E+01 0.  1.
        -11    1    1    2    0    0 -0.76934222067E+01 -0.59929573427E+02 -0.73331590918E+02  0.95017181304E+02  0.00000000000E+00 0.  1.
         11    1    1    2    0    0  0.13273292039E+02  0.34759475477E+02 -0.27171750556E+02  0.46072827624E+02  0.00000000000E+00 0. -1.
</event>
<event>
 7    1  0.2641580E-009  0.9364291E+02  0.7561462E-02  0.1294262E+00
         -2   -1    0    0    0  501 -0.00000000000E+00  0.00000000000E+00  0.72668604198E+02  0.72668604198E+02  0.00000000000E+00 0.  1.
          2   -1    0    0  501    0  0.00000000000E+00 -0.00000000000E+00 -0.17020680024E+03  0.17020680024E+03  0.00000000000E+00 0. -1.
         25    2    1    2    0    0  0.23219508802E+02  0.17263767144E+02 -0.54524855212E+02  0.13948635077E+03  0.12508516687E+03 0.  0.
          5    1    3    3  502    0 -0.49311099216E+02  0.21337395124E+02 -0.34598768607E+02  0.64042299503E+02  0.41800000000E+01 0.  1.
         -5    1    3    3    0  502  0.72530608018E+02 -0.40736279796E+01 -0.19926086605E+02  0.75444051269E+02  0.41800000000E+01 0.  1.
        -11    1    1    2    0    0  0.98492413794E+01 -0.24824272897E+02  0.18950803681E+02  0.32747290587E+02  0.00000000000E+00 0.  1.
         11    1    1    2    0    0 -0.33068750182E+02  0.75605057528E+01 -0.61964144515E+02  0.70641763082E+02  0.00000000000E+00 0. -1.
</event>
<event>
 7    1  0.2641580E-009  0.1071142E+03  0.7561462E-02  0.1266009E+00
          1   -1    0    0  501    0  0.00000000000E+00  0.00000000000E+00  0.25380540566E+03  0.25380540566E+03  0.00000000000E+00 0. -1.
         -1   -1    0    0    0  501 -0.00000000000E+00 -0.00000000000E+00 -0.69660896568E+02  0.69660896568E+02  0.00000000000E+00 0.  1.
         25    2    1    2    0    0 -0.36315859945E+02 -0.63965592032E+02  0.64186832056E+02  0.15867839563E+03  0.12509374558E+03 0.  0.
          5    1    3    3  502    0  0.41674979143E+02 -0.24775073242E+02  0.50673467030E+02  0.70255823969E+02  0.41800000000E+01 0.  1.
         -5    1    3    3    0  502 -0.77990839088E+02 -0.39190518790E+02  0.13513365026E+02  0.88422571660E+02  0.41800000000E+01 0.  1.
        -11    1    1    2    0    0  0.23252883788E+02  0.60279022111E+02  0.13179417096E+03  0.14677861087E+03  0.00000000000E+00 0. -1.
         11    1    1    2    0    0  0.13062976157E+02  0.36865699215E+01 -0.11836493928E+02  0.18009295721E+02  0.00000000000E+00 0.  1.
</event>
<event>
 7    1  0.2641580E-009  0.1199852E+03  0.7561462E-02  0.1243121E+00
         -2   -1    0    0    0  501 -0.00000000000E+00  0.00000000000E+00  0.11714567332E+02  0.11714567332E+02  0.00000000000E+00 0.  1.
          2   -1    0    0  501    0  0.00000000000E+00 -0.00000000000E+00 -0.16099412291E+04  0.16099412291E+04  0.00000000000E+00 0. -1.
         25    2    1    2    0    0  0.11274237032E+02 -0.64970224382E+02 -0.12065016798E+04  0.12147601173E+04  0.12509037090E+03 0.  0.
          5    1    3    3  502    0 -0.53420039702E+02 -0.10204530250E+02 -0.57503676013E+03  0.57761802342E+03  0.41800000000E+01 0. -1.
         -5    1    3    3    0  502  0.64694276733E+02 -0.54765694132E+02 -0.63146491966E+03  0.63714209393E+03  0.41800000000E+01 0. -1.
        -11    1    1    2    0    0 -0.37713033880E+02  0.91698835321E+01 -0.77660701835E+02  0.86819031887E+02  0.00000000000E+00 0.  1.
         11    1    1    2    0    0  0.26438796848E+02  0.55800340850E+02 -0.31406428014E+03  0.32007664719E+03  0.00000000000E+00 0. -1.
</event>
<event>
 7    1  0.2641580E-009  0.1132030E+03  0.7561462E-02  0.1254751E+00
          1   -1    0    0  501    0  0.00000000000E+00  0.00000000000E+00  0.21378944480E+03  0.21378944480E+03  0.00000000000E+00 0. -1.
         -1   -1    0    0    0  501 -0.00000000000E+00 -0.00000000000E+00 -0.12733400355E+03  0.12733400355E+03  0.00000000000E+00 0.  1.
         25    2    1    2    0    0 -0.84950379439E+02 -0.38102501425E+02  0.13306117854E+03  0.20498970567E+03  0.12508850712E+03 0.  0.
          5    1    3    3  502    0  0.14617992660E+02 -0.28514540837E+02  0.90692214163E+02  0.96277281112E+02  0.41800000000E+01 0.  1.
         -5    1    3    3    0  502 -0.99568372099E+02 -0.95879605889E+01  0.42368964375E+02  0.10871242456E+03  0.41800000000E+01 0.  1.
        -11    1    1    2    0    0  0.45605140624E+02  0.13460277674E+02 -0.69626796352E+02  0.84314285246E+02  0.00000000000E+00 0.  1.
         11    1    1    2    0    0  0.39345238815E+02  0.24642223752E+02  0.23021059063E+02  0.51819457438E+02  0.00000000000E+00 0. -1.
</event>
<event>
 7    1  0.2794565E-009  0.1099155E+03  0.7561462E-02  0.1260726E+00
         -1   -1    0    0    0  501 -0.00000000000E+00  0.00000000000E+00  0.10911652622E+03  0.10911652622E+03  0.00000000000E+00 0. -1.
          1   -1    0    0  501    0  0.00000000000E+00 -0.00000000000E+00 -0.25301058339E+03  0.25301058339E+03  0.00000000000E+00 0.  1.
         25    2    1    2    0    0 -0.10562850966E+03  0.38995014780E+01 -0.15125916411E+03  0.22292891505E+03  0.12508148654E+03 0.  0.
          5    1    3    3  502    0 -0.23524306621E+02  0.16009982738E+02  0.18309012257E+02  0.34094059293E+02  0.41800000000E+01 0. -1.
         -5    1    3    3    0  502 -0.82104203043E+02 -0.12110481260E+02 -0.16956817636E+03  0.18883485576E+03  0.41800000000E+01 0. -1.
        -11    1    1    2    0    0  0.60592171393E+02 -0.13133398786E+02  0.47553172914E+02  0.78135789827E+02  0.00000000000E+00 0. -1.
         11    1    1    2    0    0  0.45036338271E+02  0.92338973077E+01 -0.40188065974E+02  0.61062404727E+02  0.00000000000E+00 0.  1.
</event>
<event>
 7    1  0.2641580E-009  0.6082271E+02  0.7561462E-02  0.1394411E+00
          1   -1    0    0  501    0  0.00000000000E+00  0.00000000000E+00  0.61087341730E+03  0.61087341730E+03  0.00000000000E+00 0. -1.
         -1   -1    0    0    0  501 -0.00000000000E+00 -0.00000000000E+00 -0.20005911735E+02  0.20005911735E+02  0.00000000000E+00 0.  1.
         25    2    1    2    0    0  0.31174494400E+02 -0.44253997093E+01  0.34223666295E+03  0.36573825175E+03  0.12508837699E+03 0.  0.
          5    1    3    3  502    0  0.16806751025E+02 -0.10163562518E+02  0.34809602661E+03  0.34867474963E+03  0.41800000000E+01 0.  1.
         -5    1    3    3    0  502  0.14367743375E+02  0.57381628090E+01 -0.58593636610E+01  0.17063502120E+02  0.41800000000E+01 0.  1.
        -11    1    1    2    0    0  0.15454592939E+02  0.28977197111E+02  0.51434871825E+02  0.61025145924E+02  0.00000000000E+00 0.  1.
         11    1    1    2    0    0 -0.46629087339E+02 -0.24551797402E+02  0.19719597079E+03  0.20411593137E+03  0.00000000000E+00 0. -1.
</event>
<event>
 7    1  0.2641580E-009  0.1326836E+03  0.7561462E-02  0.1223527E+00
          2   -1    0    0  501    0  0.00000000000E+00  0.00000000000E+00  0.44503822317E+03  0.44503822317E+03  0.00000000000E+00 0. -1.
         -2   -1    0    0    0  501 -0.00000000000E+00 -0.00000000000E+00 -0.62562101967E+02  0.62562101967E+02  0.00000000000E+00 0.  1.
         25    2    1    2    0    0  0.10895717797E+03 -0.18079533783E+02  0.11010958252E+03  0.19992422231E+03  0.12508812225E+03 0.  0.
          5    1    3    3  502    0  0.15565178780E+02  0.18916558344E+02 -0.22491012228E+02  0.33517592412E+02  0.41800000000E+01 0. -1.
         -5    1    3    3    0  502  0.93391999187E+02 -0.36996092127E+02  0.13260059475E+03  0.16640662989E+03  0.41800000000E+01 0. -1.
        -11    1    1    2    0    0 -0.45260496835E+02 -0.34878325489E+02  0.80760535516E+02  0.98930653791E+02  0.00000000000E+00 0.  1.
         11    1    1    2    0    0 -0.63696681133E+02  0.52957859273E+02  0.19160600317E+03  0.20874544904E+03  0.00000000000E+00 0. -1.
</event>
<event>
 7    1  0.2641580E-009  0.1456137E+03  0.7561462E-02  0.1205969E+00
         -3   -1    0    0    0  501 -0.00000000000E+00  0.00000000000E+00  0.49759029222E+02  0.49759029222E+02  0.00000000000E+00 0.  1.
          3   -1    0    0  501    0  0.00000000000E+00 -0.00000000000E+00 -0.46587202922E+03  0.46587202922E+03  0.00000000000E+00 0. -1.
         25    2    1    2    0    0 -0.64786681365E+02 -0.83159925765E+02 -0.20817308870E+03  0.26475815950E+03  0.12509180959E+03 0.  0.
          5    1    3    3  502    0  0.33862189537E+02 -0.35223079038E+02 -0.96110879729E+02  0.10789850221E+03  0.41800000000E+01 0. -1.
         -5    1    3    3    0  502 -0.98648870902E+02 -0.47936846727E+02 -0.11206220897E+03  0.15685965729E+03  0.41800000000E+01 0. -1.
        -11    1    1    2    0    0  0.59563605004E+02  0.11603798766E+02 -0.13765010320E+03  0.15043278265E+03  0.00000000000E+00 0. -1.
         11    1    1    2    0    0  0.52230763611E+01  0.71556126999E+02 -0.70289808104E+02  0.10044011629E+03  0.00000000000E+00 0.  1.
</event>
<event>
 7    1  0.2641580E-009  0.6294519E+02  0.7561462E-02  0.1385872E+00
         -2   -1    0    0    0  501 -0.00000000000E+00  0.00000000000E+00  0.17664496157E+02  0.17664496157E+02  0.00000000000E+00 0.  1.
          2   -1    0    0  501    0  0.00000000000E+00 -0.00000000000E+00 -0.81205719438E+03  0.81205719438E+03  0.00000000000E+00 0. -1.
         25    2    1    2    0    0  0.11191574454E+01 -0.37141194647E+02 -0.57515366724E+03  0.58977115825E+03  0.12509019672E+03 0.  0.
          5    1    3    3  502    0 -0.22680437894E+01 -0.49637083141E+01 -0.54592641317E+03  0.54596969093E+03  0.41800000000E+01 0.  1.
         -5    1    3    3    0  502  0.33872012349E+01 -0.32177486333E+02 -0.29227254071E+02  0.43801467320E+02  0.41800000000E+01 0.  1.
        -11    1    1    2    0    0 -0.13534453711E+02  0.59390499369E+02 -0.93048239959E+02  0.11121325376E+03  0.00000000000E+00 0.  1.
         11    1    1    2    0    0  0.12415296266E+02 -0.22249304722E+02 -0.12619079103E+03  0.12873727852E+03  0.00000000000E+00 0. -1.
</event>
<event>
 7    1  0.2641580E-009  0.1138450E+03  0.7561462E-02  0.1253611E+00
          1   -1    0    0  501    0  0.00000000000E+00  0.00000000000E+00  0.21301072993E+03  0.21301072993E+03  0.00000000000E+00 0. -1.
         -1   -1    0    0    0  501 -0.00000000000E+00 -0.00000000000E+00 -0.87481183189E+02  0.87481183189E+02  0.00000000000E+00 0.  1.
         25    2    1    2    0    0 -0.41266527802E+02  0.64928572347E+02  0.55628396323E+02  0.15703678035E+03  0.12508951228E+03 0.  0.
          5    1    3    3  502    0  0.14054916473E+02  0.70128767930E+02  0.69283474946E+02  0.99665726651E+02  0.41800000000E+01 0.  1.
         -5    1    3    3    0  502 -0.55321444275E+02 -0.52001955828E+01 -0.13655078623E+02  0.57371053703E+02  0.41800000000E+01 0.  1.
        -11    1    1    2    0    0  0.58267792412E+02 -0.42225666298E+02  0.44197337266E+01  0.72094913642E+02  0.00000000000E+00 0.  1.
         11    1    1    2    0    0 -0.17001264610E+02 -0.22702906049E+02  0.65481416689E+02  0.71360219121E+02  0.00000000000E+00 0. -1.
</event>
<event>
 7    1  0.2641580E-009  0.1285553E+03  0.7561462E-02  0.1229615E+00
         -2   -1    0    0    0  501 -0.00000000000E+00  0.00000000000E+00  0.24160558498E+02  0.24160558498E+02  0.00000000000E+00 0.  1.
          2   -1    0    0  501    0  0.00000000000E+00 -0.00000000000E+00 -0.14663780747E+04  0.14663780747E+04  0.00000000000E+00 0. -1.
         25    2    1    2    0    0 -0.11244550648E+03  0.10183902211E+02 -0.11683262959E+04  0.11804159704E+04  0.12509126919E+03 0.  0.
          5    1    3    3  502    0 -0.81784862272E+02  0.27122203167E+01 -0.11171225197E+04  0.11201233487E+04  0.41800000000E+01 0.  1.
         -5    1    3    3    0  502 -0.30660644210E+02  0.74716818939E+01 -0.51203776207E+02  0.60292621701E+02  0.41800000000E+01 0.  1.
        -11    1    1    2    0    0  0.93001693732E+02 -0.45111826134E+02 -0.21950999573E+03  0.24262940902E+03  0.00000000000E+00 0. -1.
         11    1    1    2    0    0  0.19443812749E+02  0.34927923923E+02 -0.54381224571E+02  0.67493253808E+02  0.00000000000E+00 0.  1.
</event>
<event>
 7    1  0.2822004E-009  0.6060510E+02  0.7561462E-02  0.1395310E+00
          3   -1    0    0  501    0  0.00000000000E+00  0.00000000000E+00  0.20595647740E+03  0.20595647740E+03  0.00000000000E+00 0. -1.
         -3   -1    0    0    0  501 -0.00000000000E+00 -0.00000000000E+00 -0.64550270107E+02  0.64550270107E+02  0.00000000000E+00 0.  1.
         25    2    1    2    0    0 -0.82551314032E+01 -0.73507662960E+01  0.12325927088E+03  0.17596155333E+03  0.12508972553E+03 0.  0.
          5    1    3    3  502    0 -0.39638254212E+02 -0.19272023900E+02 -0.38381289481E+01  0.44438786392E+02  0.41800000000E+01 0. -1.
         -5    1    3    3    0  502  0.31383122809E+02  0.11921257604E+02  0.12709739983E+03  0.13152276694E+03  0.41800000000E+01 0. -1.
        -11    1    1    2    0    0 -0.15279407271E+02 -0.55652312188E+01  0.50180705158E+02  0.52749741755E+02  0.00000000000E+00 0. -1.
         11    1    1    2    0    0  0.23534538674E+02  0.12915997515E+02 -0.32033768750E+02  0.41795452417E+02  0.00000000000E+00 0.  1.
</event>
<event>
 7    1  0.2641580E-009  0.8505174E+02  0.7561462E-02  0.1315297E+00
          2   -1    0    0  501    0  0.00000000000E+00  0.00000000000E+00  0.24704836093E+03  0.24704836093E+03  0.00000000000E+00 0. -1.
         -2   -1    0    0    0  501 -0.00000000000E+00 -0.00000000000E+00 -0.65674127794E+02  0.65674127794E+02  0.00000000000E+00 0.  1.
         25    2    1    2    0    0 -0.26285560166E+02  0.18112141612E+01  0.17200129208E+03  0.21430319314E+03  0.12508878024E+03 0.  0.
          5    1    3    3  502    0  0.30444955316E+02 -0.43809745514E+02  0.57446635425E+02  0.78509728237E+02  0.41800000000E+01 0. -1.
         -5    1    3    3    0  502 -0.56730515482E+02  0.45620959676E+02  0.11455465665E+03  0.13579346490E+03  0.41800000000E+01 0. -1.
        -11    1    1    2    0    0  0.57220692156E+00 -0.14836602777E+02  0.47988063595E+02  0.50232523830E+02  0.00000000000E+00 0. -1.
         11    1    1    2    0    0  0.25713353245E+02  0.13025388616E+02 -0.38615122537E+02  0.48186771756E+02  0.00000000000E+00 0.  1.
</event>
<event>
 7    1  0.2641580E-009  0.8811790E+02  0.7561462E-02  0.1307475E+00
         -4   -1    0    0    0  501 -0.00000000000E+00  0.00000000000E+00  0.22944424916E+03  0.22944424916E+03  0.00000000000E+00 0.  1.
          4   -1    0    0  501    0  0.00000000000E+00 -0.00000000000E+00 -0.73936474203E+02  0.73936474203E+02  0.00000000000E+00 0. -1.
         25    2    1    2    0    0 -0.65341019980E+02  0.31267915574E+02  0.76074891023E+02  0.16334458964E+03  0.12508770716E+03 0.  0.
          5    1    3    3  502    0  0.16295283104E+02  0.89691474906E+01  0.76267594263E+02  0.78614249299E+02  0.41800000000E+01 0.  1.
         -5    1    3    3    0  502 -0.81636303084E+02  0.22298768083E+02 -0.19270323933E+00  0.84730340338E+02  0.41800000000E+01 0.  1.
        -11    1    1    2    0    0  0.50624913067E+02 -0.24582419763E+02  0.99473366325E+02  0.11428966617E+03  0.00000000000E+00 0.  1.
         11    1    1    2    0    0  0.14716106913E+02 -0.66854958113E+01 -0.20040482397E+02  0.25746467556E+02  0.00000000000E+00 0. -1.
</event>
<event>
 7    1  0.2641580E-009  0.9266696E+02  0.7561462E-02  0.1296519E+00
         -2   -1    0    0    0  501 -0.00000000000E+00  0.00000000000E+00  0.17833913303E+03  0.17833913303E+03  0.00000000000E+00 0.  1.
          2   -1    0    0  501    0  0.00000000000E+00 -0.00000000000E+00 -0.92986003881E+02  0.92986003881E+02  0.00000000000E+00 0. -1.
         25    2    1    2    0    0 -0.51502833295E+01  0.52926904774E+02  0.81321970497E-01  0.13592376537E+03  0.12508989052E+03 0.  0.
          5    1    3    3  502    0 -0.60436191542E+02  0.19164665179E+02 -0.22177886889E+02  0.67298950262E+02  0.41800000000E+01 0. -1.
         -5    1    3    3    0  502  0.55285908212E+02  0.33762239595E+02  0.22259208859E+02  0.68624815106E+02  0.41800000000E+01 0. -1.
        -11    1    1    2    0    0  0.12632952023E+02 -0.25606668459E+02 -0.14260771999E+02  0.31916493610E+02  0.00000000000E+00 0. -1.
         11    1    1    2    0    0 -0.74826686935E+01 -0.27320236315E+02  0.99532579181E+02  0.10348487794E+03  0.00000000000E+00 0.  1.
</event>
<event>
 7    1  0.2641580E-009  0.9364037E+02  0.7561462E-02  0.1294268E+00
          1   -1    0    0  501    0  0.00000000000E+00  0.00000000000E+00  0.90152674700E+02  0.90152674700E+02  0.00000000000E+00 0. -1.
         -1   -1    0    0    0  501 -0.00000000000E+00 -0.00000000000E+00 -0.13036869811E+03  0.13036869811E+03  0.00000000000E+00 0.  1.
         25    2    1    2    0    0  0.66340813565E+01  0.61047997046E+01 -0.13779508324E+02  0.12616765459E+03  0.12508845910E+03 0.  0.
          5    1    3    3  502    0 -0.34042603765E+02 -0.31695545668E+02 -0.42823348596E+02  0.63362592050E+02  0.41800000000E+01 0.  1.
         -5    1    3    3    0  502  0.40676685121E+02  0.37800345373E+02  0.29043840272E+02  0.62805062539E+02  0.41800000000E+01 0.  1.
        -11    1    1    2    0    0 -0.67131400652E+00  0.39196250255E+02  0.40717599445E+01  0.39412890348E+02  0.00000000000E+00 0. -1.
         11    1    1    2    0    0 -0.59627673500E+01 -0.45301049960E+02 -0.30508275027E+02  0.54940827870E+02  0.00000000000E+00 0.  1.
</event>
<event>
 7    1  0.2641580E-009  0.1140746E+03  0.7561462E-02  0.1253205E+00
          2   -1    0    0  501    0  0.00000000000E+00  0.00000000000E+00  0.14435353056E+03  0.14435353056E+03  0.00000000000E+00 0. -1.
         -2   -1    0    0    0  501 -0.00000000000E+00 -0.00000000000E+00 -0.12774322832E+03  0.12774322832E+03  0.00000000000E+00 0.  1.
         25    2    1    2    0    0 -0.62145652054E+02 -0.10001939399E+02  0.44081476569E+02  0.14681074083E+03  0.12509235063E+03 0.  0.
          5    1    3    3  502    0  0.76786628358E+01  0.44164087891E+02 -0.55638138562E+01  0.45363608177E+02  0.41800000000E+01 0. -1.
         -5    1    3    3    0  502 -0.69824314890E+02 -0.54166027290E+02  0.49645290425E+02  0.10144713265E+03  0.41800000000E+01 0. -1.
        -11    1    1    2    0    0  0.34289400212E+02  0.40691118633E+02 -0.54210636075E+02  0.75962643227E+02  0.00000000000E+00 0.  1.
         11    1    1    2    0    0  0.27856251842E+02 -0.30689179234E+02  0.26739461744E+02  0.49323374815E+02  0.00000000000E+00 0. -1.
</event>
<event>
 7    1  0.2641580E-009  0.5654328E+02  0.7561462E-02  0.1412938E+00
         -3   -1    0    0    0  501 -0.00000000000E+00  0.00000000000E+00  0.28417910222E+03  0.28417910222E+03  0.00000000000E+00 0.  1.
          3   -1    0    0  501    0  0.00000000000E+00 -0.00000000000E+00 -0.47408425743E+02  0.47408425743E+02  0.00000000000E+00 0. -1.
         25    2    1    2    0    0  0.39260006728E+02 -0.12269510090E+02  0.12969259742E+03  0.18483040649E+03  0.12510084065E+03 0.  0.
          5    1    3    3  502    0  0.31145444712E+02 -0.22403559545E+02  0.15301820469E+03  0.15781001734E+03  0.41800000000E+01 0.  1.
         -5    1    3    3    0  502  0.81145620167E+01  0.10134049454E+02 -0.23325607271E+02  0.27020389146E+02  0.41800000000E+01 0.  1.
        -11    1    1    2    0    0 -0.56816447529E+01 -0.15988576033E+02 -0.11379952221E+02  0.20430833640E+02  0.00000000000E+00 0. -1.
         11    1    1    2    0    0 -0.33578361975E+02  0.28258086124E+02  0.11845803128E+03  0.12632628784E+03  0.00000000000E+00 0.  1.
</event>
<event>
 7    1  0.2641580E-009  0.1403649E+03  0.7561462E-02  0.1212839E+00
          3   -1    0    0  501    0  0.00000000000E+00  0.00000000000E+00  0.51794189396E+02  0.51794189396E+02  0.00000000000E+00 0. -1.
         -3   -1    0    0    0  501 -0.00000000000E+00 -0.00000000000E+00 -0.42559394790E+03  0.42559394790E+03  0.00000000000E+00 0.  1.
         25    2    1    2    0    0  0.99552966904E+02 -0.86568924450E+01 -0.22978516263E+03  0.28006212270E+03  0.12509131305E+03 0.  0.
          5    1    3    3  502    0  0.75589713350E+02 -0.62301837434E+02 -0.11559373866E+03  0.15157410244E+03  0.41800000000E+01 0. -1.
         -5    1    3    3    0  502  0.23963253554E+02  0.53644944989E+02 -0.11419142397E+03  0.12848802026E+03  0.41800000000E+01 0. -1.
        -11    1    1    2    0    0 -0.75379384321E+02 -0.27542662413E+02 -0.12773214361E+03  0.15085141811E+03  0.00000000000E+00 0.  1.
         11    1    1    2    0    0 -0.24173582583E+02  0.36199554858E+02 -0.16282452264E+02  0.46474596486E+02  0.00000000000E+00 0. -1.
</event>
<event>
 7    1  0.2641580E-009  0.1116267E+03  0.7561462E-02  0.1257587E+00
         -2   -1    0    0    0  501 -0.00000000000E+00  0.00000000000E+00  0.49049594879E+02  0.49049594879E+02  0.00000000000E+00 0.  1.
          2   -1    0    0  501    0  0.00000000000E+00 -0.00000000000E+00 -0.43329911364E+03  0.43329911364E+03  0.00000000000E+00 0. -1.
         25    2    1    2    0    0  0.70116258005E+02 -0.64315502038E+02 -0.17341107305E+03  0.23400498636E+03  0.12503663442E+03 0.  0.
          5    1    3    3  502    0  0.53312912976E+02 -0.53400626709E+02 -0.19201077257E+03  0.20634801382E+03  0.41800000000E+01 0. -1.
         -5    1    3    3    0  502  0.16803345029E+02 -0.10914875328E+02  0.18599699526E+02  0.27656972540E+02  0.41800000000E+01 0. -1.
        -11    1    1    2    0    0  0.17490923959E+02 -0.16174856843E+01 -0.11985022176E+02  0.21264746353E+02  0.00000000000E+00 0. -1.
         11    1    1    2    0    0 -0.87607181964E+02  0.65932987722E+02 -0.19885342354E+03  0.22707897581E+03  0.00000000000E+00 0.  1.
</event>
<event>
 7    1  0.2815564E-009  0.1446602E+03  0.7561462E-02  0.1207192E+00
         -1   -1    0    0    0  501 -0.00000000000E+00  0.00000000000E+00  0.45317060753E+02  0.45317060753E+02  0.00000000000E+00 0.  1.
          1   -1    0    0  501    0  0.00000000000E+00 -0.00000000000E+00 -0.60020032836E+03  0.60020032836E+03  0.00000000000E+00 0. -1.
         25    2    1    2    0    0  0.87706060983E+02 -0.73733947075E+02 -0.38647696534E+03  0.42206237814E+03  0.12507261177E+03 0.  0.
          5    1    3    3  502    0  0.48707636366E+02  0.25478680236E+02 -0.19751939643E+03  0.20506823584E+03  0.41800000000E+01 0.  1.
         -5    1    3    3    0  502  0.38998424618E+02 -0.99212627311E+02 -0.18895756892E+03  0.21699414230E+03  0.41800000000E+01 0.  1.
        -11    1    1    2    0    0 -0.75545117465E+02  0.28620671093E+02 -0.47219285326E+02  0.93572797828E+02  0.00000000000E+00 0.  1.
         11    1    1    2    0    0 -0.12160943518E+02  0.45113275982E+02 -0.12118701694E+03  0.12988221314E+03  0.00000000000E+00 0. -1.
</event>
<event>
 7    1  0.2641580E-009  0.8291002E+02  0.7561462E-02  0.1320990E+00
          1   -1    0    0  501    0  0.00000000000E+00  0.00000000000E+00  0.21445647501E+03  0.21445647501E+03  0.00000000000E+00 0. -1.
         -1   -1    0    0    0  501 -0.00000000000E+00 -0.00000000000E+00 -0.73531476227E+02  0.73531476227E+02  0.00000000000E+00 0.  1.
         25    2    1    2    0    0  0.53520051152E+02  0.19375344055E+02  0.38117853666E+02  0.14260064648E+03  0.12506867624E+03 0.  0.
          5    1    3    3  502    0  0.15703920711E+02  0.35962519925E+02  0.76493295895E+02  0.86073298310E+02  0.41800000000E+01 0.  1.
         -5    1    3    3    0  502  0.37816130441E+02 -0.16587175869E+02 -0.38375442229E+02  0.56527348170E+02  0.41800000000E+01 0.  1.
        -11    1    1    2    0    0 -0.24342084978E+02  0.22942161444E+02  0.84404158224E+02  0.90790648188E+02  0.00000000000E+00 0. -1.
         11    1    1    2    0    0 -0.29177966174E+02 -0.42317505499E+02  0.18402986889E+02  0.54596656565E+02  0.00000000000E+00 0.  1.
</event>
<event>
 7    1  0.2641580E-009  0.1132370E+03  0.7561462E-02  0.1254690E+00
         -1   -1    0    0    0  501 -0.00000000000E+00  0.00000000000E+00  0.45503412326E+02  0.45503412326E+02  0.00000000000E+00 0.  1.
          1   -1    0    0  501    0  0.00000000000E+00 -0.00000000000E+00 -0.42393805044E+03  0.42393805044E+03  0.00000000000E+00 0. -1.
         25    2    1    2    0    0  0.40071269230E+02  0.75473821726E+02 -0.20706809360E+03  0.25656735646E+03  0.12509040182E+03 0.  0.
          5    1    3    3  502    0  0.45913214061E+02  0.16533906390E+02 -0.90093996522E+01  0.49799949478E+02  0.41800000000E+01 0. -1.
         -5    1    3    3    0  502 -0.58419448309E+01  0.58939915337E+02 -0.19805869395E+03  0.20676740698E+03  0.41800000000E+01 0. -1.
        -11    1    1    2    0    0  0.20139953634E+02  0.17281091868E+01 -0.66071577116E+02  0.69094554028E+02  0.00000000000E+00 0. -1.
         11    1    1    2    0    0 -0.60211222864E+02 -0.77201930913E+02 -0.10529496740E+03  0.14377955228E+03  0.00000000000E+00 0.  1.
</event>
<event>
 7    1  0.2641580E-009  0.1036388E+03  0.7561462E-02  0.1272825E+00
         -2   -1    0    0    0  501 -0.00000000000E+00  0.00000000000E+00  0.18700078939E+02  0.18700078939E+02  0.00000000000E+00 0. -1.
          2   -1    0    0  501    0  0.00000000000E+00 -0.00000000000E+00 -0.62842846851E+03  0.62842846851E+03  0.00000000000E+00 0.  1.
         25    2    1    2    0    0 -0.13095113542E+02 -0.34521905075E+01 -0.34864355613E+03  0.37064240661E+03  0.12506024440E+03 0.  0.
          5    1    3    3  502    0  0.66330680597E+01  0.58400904952E+02 -0.19722428446E+03  0.20583866029E+03  0.41800000000E+01 0.  1.
         -5    1    3    3    0  502 -0.19728181601E+02 -0.61853095459E+02 -0.15141927167E+03  0.16480374632E+03  0.41800000000E+01 0.  1.
        -11    1    1    2    0    0  0.12914299185E+02 -0.38876882129E+02 -0.18438608426E+03  0.18888202444E+03  0.00000000000E+00 0.  1.
         11    1    1    2    0    0  0.18081435706E+00  0.42329072637E+02 -0.76698749185E+02  0.87604116402E+02  0.00000000000E+00 0. -1.
</event>
<event>
 7    1  0.2641580E-009  0.1642601E+03  0.7561462E-02  0.1183969E+00
          2   -1    0    0  501    0  0.00000000000E+00  0.00000000000E+00  0.94732412439E+03  0.94732412439E+03  0.00000000000E+00 0. -1.
         -2   -1    0    0    0  501 -0.00000000000E+00 -0.00000000000E+00 -0.34738251617E+02  0.34738251617E+02  0.00000000000E+00 0.  1.
         25    2    1    2    0    0 -0.78853907954E+02 -0.12148386125E+03  0.44839231506E+03  0.48752149578E+03  0.12508106688E+03 0.  0.
          5    1    3    3  502    0 -0.22905398586E+02 -0.11568046253E+03  0.38495896203E+03  0.40263817695E+03  0.41800000000E+01 0. -1.
         -5    1    3    3    0  502 -0.55948509368E+02 -0.58033987224E+01  0.63433353038E+02  0.84883318826E+02  0.41800000000E+01 0. -1.
        -11    1    1    2    0    0  0.71801213420E+02  0.63948475641E+02  0.17576390917E+03  0.20034413780E+03  0.00000000000E+00 0.  1.
         11    1    1    2    0    0  0.70526945332E+01  0.57535385611E+02  0.28842964854E+03  0.29419674242E+03  0.00000000000E+00 0. -1.
</event>
<event>
 7    1  0.2641580E-009  0.1428407E+03  0.7561462E-02  0.1209557E+00
          1   -1    0    0  501    0  0.00000000000E+00  0.00000000000E+00  0.17541362279E+04  0.17541362279E+04  0.00000000000E+00 0. -1.
         -1   -1    0    0    0  501 -0.00000000000E+00 -0.00000000000E+00 -0.13303505499E+02  0.13303505499E+02  0.00000000000E+00 0.  1.
         25    2    1    2    0    0  0.46817648221E+02 -0.92775475343E+02  0.10998172395E+04  0.11117751416E+04  0.12508726577E+03 0.  0.
          5    1    3    3  502    0  0.64205457495E+02 -0.10788610096E+03  0.69355300102E+03  0.70483685288E+03  0.41800000000E+01 0.  1.
         -5    1    3    3    0  502 -0.17387809274E+02  0.15110625621E+02  0.40626423850E+03  0.40693828869E+03  0.41800000000E+01 0.  1.
        -11    1    1    2    0    0 -0.51320138882E+02  0.82152309157E+01  0.28649471159E+03  0.29117085439E+03  0.00000000000E+00 0.  1.
         11    1    1    2    0    0  0.45024906617E+01  0.84560244428E+02  0.35452077128E+03  0.36449373744E+03  0.00000000000E+00 0. -1.
</event>
<event>
 7    1  0.2641580E-009  0.1188207E+03  0.7561462E-02  0.1245055E+00
          2   -1    0    0  501    0  0.00000000000E+00  0.00000000000E+00  0.62182899446E+03  0.62182899446E+03  0.00000000000E+00 0.  1.
         -2   -1    0    0    0  501 -0.00000000000E+00 -0.00000000000E+00 -0.32298779988E+02  0.32298779988E+02  0.00000000000E+00 0. -1.
         25    2    1    2    0    0 -0.96855811045E+02  0.12133566822E+02  0.27532608416E+03  0.31777471376E+03  0.12509214408E+03 0.  0.
          5    1    3    3  502    0 -0.52340610591E+02  0.54247699221E+02  0.22817737176E+03  0.24034295864E+03  0.41800000000E+01 0.  1.
         -5    1    3    3    0  502 -0.44515200454E+02 -0.42114132399E+02  0.47148712400E+02  0.77431755115E+02  0.41800000000E+01 0.  1.
        -11    1    1    2    0    0  0.27983391219E+02  0.77504899983E+01  0.24747942040E+02  0.38152338258E+02  0.00000000000E+00 0. -1.
         11    1    1    2    0    0  0.68872419826E+02 -0.19884056820E+02  0.28945618827E+03  0.29820072243E+03  0.00000000000E+00 0.  1.
</event>
<event>
 7    1  0.2641580E-009  0.1558897E+03  0.7561462E-02  0.1193417E+00
          1   -1    0    0  501    0  0.00000000000E+00  0.00000000000E+00  0.40476285175E+03  0.40476285175E+03  0.00000000000E+00 0. -1.
         -1   -1    0    0    0  501 -0.00000000000E+00 -0.00000000000E+00 -0.62863353258E+02  0.62863353258E+02  0.00000000000E+00 0.  1.
         25    2    1    2    0    0 -0.30782595432E+02  0.11182804525E+03  0.14250955019E+03  0.22227947111E+03  0.12508441748E+03 0.  0.
          5    1    3    3  502    0 -0.77869556583E+02  0.57586341155E+02  0.97049107894E+02  0.13717090170E+03  0.41800000000E+01 0.  1.
         -5    1    3    3    0  502  0.47086961151E+02  0.54241704099E+02  0.45460442293E+02  0.85108569413E+02  0.41800000000E+01 0.  1.
        -11    1    1    2    0    0  0.52333333327E+02 -0.34663449100E+02  0.83679439357E+02  0.10460679257E+03  0.00000000000E+00 0.  1.
         11    1    1    2    0    0 -0.21550737894E+02 -0.77164596154E+02  0.11571050895E+03  0.14073994133E+03  0.00000000000E+00 0. -1.
</event>
<event>
 7    1  0.2641580E-009  0.1019167E+03  0.7561462E-02  0.1276316E+00
          1   -1    0    0  501    0  0.00000000000E+00  0.00000000000E+00  0.12697844238E+03  0.12697844238E+03  0.00000000000E+00 0. -1.
         -1   -1    0    0    0  501 -0.00000000000E+00 -0.00000000000E+00 -0.12140342685E+03  0.12140342685E+03  0.00000000000E+00 0.  1.
         25    2    1    2    0    0 -0.44856845028E+02 -0.30806541090E+02  0.29904612132E+02  0.13965382222E+03  0.12509086583E+03 0.  0.
          5    1    3    3  502    0 -0.62789205007E+02  0.59779714620E+00  0.64013819034E+02  0.89766826023E+02  0.41800000000E+01 0.  1.
         -5    1    3    3    0  502  0.17932359979E+02 -0.31404338236E+02 -0.34109206902E+02  0.49886996201E+02  0.41800000000E+01 0.  1.
        -11    1    1    2    0    0 -0.27125421121E+02  0.14231886644E+02 -0.15517420286E+02  0.34338395431E+02  0.00000000000E+00 0. -1.
         11    1    1    2    0    0  0.71982266148E+02  0.16574654446E+02 -0.88121763161E+01  0.74389651574E+02  0.00000000000E+00 0.  1.
</event>
<event>
 7    1  0.2641580E-009  0.1240566E+03  0.7561462E-02  0.1236551E+00
         -2   -1    0    0    0  501 -0.00000000000E+00  0.00000000000E+00  0.48911057428E+02  0.48911057428E+02  0.00000000000E+00 0.  1.
          2   -1    0    0  501    0  0.00000000000E+00 -0.00000000000E+00 -0.51581492775E+03  0.51581492775E+03  0.00000000000E+00 0. -1.
         25    2    1    2    0    0  0.10276512239E+02  0.96277916571E+02 -0.14049727073E+03  0.21157053895E+03  0.12509023122E+03 0.  0.
          5    1    3    3  502    0 -0.24214769183E+02  0.30073063036E+02  0.12899828462E+02  0.40922147320E+02  0.41800000000E+01 0. -1.
         -5    1    3    3    0  502  0.34491281422E+02  0.66204853535E+02 -0.15339709919E+03  0.17064839163E+03  0.41800000000E+01 0. -1.
        -11    1    1    2    0    0  0.41780710294E+02 -0.39869986342E+02 -0.12832048659E+03  0.14071741485E+03  0.00000000000E+00 0.  1.
         11    1    1    2    0    0 -0.52057222533E+02 -0.56407930229E+02 -0.19808611301E+03  0.21243803138E+03  0.00000000000E+00 0. -1.
</event>
<event>
 7    1  0.2641580E-009  0.8577454E+02  0.7561462E-02  0.1313419E+00
         -2   -1    0    0    0  501 -0.00000000000E+00  0.00000000000E+00  0.26529450367E+02  0.26529450367E+02  0.00000000000E+00 0.  1.
          2   -1    0    0  501    0  0.00000000000E+00 -0.00000000000E+00 -0.54302387080E+03  0.54302387080E+03  0.00000000000E+00 0. -1.
         25    2    1    2    0    0 -0.42621437051E+02  0.20888969943E+02 -0.33864689143E+03  0.36411896878E+03  0.12509184781E+03 0.  0.
          5    1    3    3  502    0 -0.46338189945E+02 -0.22690628180E+02 -0.30341953995E+03  0.30780347964E+03  0.41800000000E+01 0.  1.
         -5    1    3    3    0  502  0.37167528936E+01  0.43579598123E+02 -0.35227351478E+02  0.56315489137E+02  0.41800000000E+01 0.  1.
        -11    1    1    2    0    0  0.47464081689E+02  0.66128721138E+01 -0.33647461747E+02  0.58555279951E+02  0.00000000000E+00 0.  1.
         11    1    1    2    0    0 -0.48426446373E+01 -0.27501842057E+02 -0.14420006725E+03  0.14687907244E+03  0.00000000000E+00 0. -1.
</event>
<event>
 7    1  0.2641580E-009  0.7592443E+02  0.7561462E-02  0.1341032E+00
          2   -1    0    0  501    0  0.00000000000E+00  0.00000000000E+00  0.16907837854E+03  0.16907837854E+03  0.00000000000E+00 0. -1.
         -2   -1    0    0    0  501 -0.00000000000E+00 -0.00000000000E+00 -0.94741063761E+02  0.94741063761E+02  0.00000000000E+00 0.  1.
         25    2    1    2    0    0  0.73052749769E+01 -0.64620948691E+02  0.42359666580E+02  0.14721097910E+03  0.12508995549E+03 0.  0.
          5    1    3    3  502    0  0.24135355115E+02 -0.64963980558E+02 -0.27913003876E+02  0.74829421499E+02  0.41800000000E+01 0.  1.
         -5    1    3    3    0  502 -0.16830080138E+02  0.34303186651E+00  0.70272670456E+02  0.72381557605E+02  0.41800000000E+01 0.  1.
        -11    1    1    2    0    0 -0.40157843038E+01  0.45203926587E+02  0.64334129293E+02  0.78729928834E+02  0.00000000000E+00 0. -1.
         11    1    1    2    0    0 -0.32894906731E+01  0.19417022104E+02 -0.32356481096E+02  0.37878534359E+02  0.00000000000E+00 0.  1.
</event>
<event>
 7    1  0.2641580E-009  0.1636740E+03  0.7561462E-02  0.1184610E+00
          2   -1    0    0  501    0  0.00000000000E+00  0.00000000000E+00  0.10705631470E+04  0.10705631470E+04  0.00000000000E+00 0.  1.
         -2   -1    0    0    0  501 -0.00000000000E+00 -0.00000000000E+00 -0.28000234020E+02  0.28000234020E+02  0.00000000000E+00 0. -1.
         25    2    1    2    0    0  0.55048185443E+02 -0.12248521936E+03  0.57990514794E+03  0.60825113332E+03  0.12508608593E+03 0.  0.
          5    1    3    3  502    0  0.27664965202E+02 -0.14395721305E+03  0.43060707549E+03  0.45489444418E+03  0.41800000000E+01 0.  1.
         -5    1    3    3    0  502  0.27383220240E+02  0.21471993693E+02  0.14929807245E+03  0.15335668913E+03  0.41800000000E+01 0.  1.
        -11    1    1    2    0    0  0.11837447253E+02  0.16062432134E+02  0.13987594494E+02  0.24367594942E+02  0.00000000000E+00 0. -1.
         11    1    1    2    0    0 -0.66885632695E+02  0.10642278722E+03  0.44867017059E+03  0.46594465281E+03  0.00000000000E+00 0.  1.
</event>
<event>
 7    1  0.2641580E-009  0.1838079E+03  0.7561462E-02  0.1164168E+00
          2   -1    0    0  501    0  0.00000000000E+00  0.00000000000E+00  0.22143745504E+04  0.22143745504E+04  0.00000000000E+00 0. -1.
         -2   -1    0    0    0  501 -0.00000000000E+00 -0.00000000000E+00 -0.27000867970E+02  0.27000867970E+02  0.00000000000E+00 0.  1.
         25    2    1    2    0    0 -0.11163463995E+03 -0.12698577557E+03  0.17736667167E+04  0.17860936908E+04  0.12509744344E+03 0.  0.
          5    1    3    3  502    0 -0.32129460467E+02 -0.38470848216E+01  0.84597148256E+02  0.90671121006E+02  0.41800000000E+01 0. -1.
         -5    1    3    3    0  502 -0.79505179484E+02 -0.12313869075E+03  0.16890695685E+04  0.16954225698E+04  0.41800000000E+01 0. -1.
        -11    1    1    2    0    0  0.12525672313E+03  0.11759945397E+03  0.39192482414E+03  0.42792983775E+03  0.00000000000E+00 0.  1.
         11    1    1    2    0    0 -0.13622083178E+02  0.93863216038E+01  0.21782141512E+02  0.27351889737E+02  0.00000000000E+00 0. -1.
</event>
<event>
 7    1  0.2641580E-009  0.1113827E+03  0.7561462E-02  0.1258031E+00
         -4   -1    0    0    0  501 -0.00000000000E+00  0.00000000000E+00  0.63981684854E+02  0.63981684854E+02  0.00000000000E+00 0.  1.
          4   -1    0    0  501    0  0.00000000000E+00 -0.00000000000E+00 -0.35477008264E+03  0.35477008264E+03  0.00000000000E+00 0. -1.
         25    2    1    2    0    0  0.69314192165E+02 -0.54314979093E+02 -0.23352363272E+03  0.27916902446E+03  0.12508989964E+03 0.  0.
          5    1    3    3  502    0  0.93025380425E+02 -0.29186556060E+02 -0.94453341576E+02  0.13581046570E+03  0.41800000000E+01 0.  1.
         -5    1    3    3    0  502 -0.23711188260E+02 -0.25128423033E+02 -0.13907029114E+03  0.14335855877E+03  0.41800000000E+01 0.  1.
        -11    1    1    2    0    0 -0.46815182219E+02  0.23949672316E+02 -0.79809972603E+02  0.95576565208E+02  0.00000000000E+00 0. -1.
         11    1    1    2    0    0 -0.22499009946E+02  0.30365306777E+02  0.22545207532E+02  0.44006177826E+02  0.00000000000E+00 0.  1.
</event>
<event>
 7    1  0.3230216E-009  0.1429602E+03  0.7561462E-02  0.1209400E+00
          1   -1    0    0  501    0  0.00000000000E+00  0.00000000000E+00  0.19517091459E+03  0.19517091459E+03  0.00000000000E+00 0. -1.
         -1   -1    0    0    0  501 -0.00000000000E+00 -0.00000000000E+00 -0.12980617409E+03  0.12980617409E+03  0.00000000000E+00 0.  1.
         25    2    1    2    0    0  0.11509368502E+03 -0.93063760750E+01  0.27836768238E+02  0.17250354007E+03  0.12509764467E+03 0.  0.
          5    1    3    3  502    0  0.12116898179E+03  0.28530499902E+02 -0.67799739086E+00  0.12455458102E+03  0.41800000000E+01 0.  1.
         -5    1    3    3    0  502 -0.60752967737E+01 -0.37836875977E+02  0.28514765629E+02  0.47948959044E+02  0.41800000000E+01 0.  1.
        -11    1    1    2    0    0 -0.65819476117E+02 -0.15548242766E+02 -0.22172273601E+02  0.71172754661E+02  0.00000000000E+00 0.  1.
         11    1    1    2    0    0 -0.49274208903E+02  0.24854618841E+02  0.59700245862E+02  0.81300793949E+02  0.00000000000E+00 0. -1.
</event>
<event>
 7    1  0.2641580E-009  0.6831602E+02  0.7561462E-02  0.1365915E+00
         -1   -1    0    0    0  501 -0.00000000000E+00  0.00000000000E+00  0.12476748284E+03  0.12476748284E+03  0.00000000000E+00 0.  1.
          1   -1    0    0  501    0  0.00000000000E+00 -0.00000000000E+00 -0.13268193437E+03  0.13268193437E+03  0.00000000000E+00 0. -1.
         25    2    1    2    0    0  0.40481130037E+02  0.19990462109E+02 -0.56743923726E+02  0.14458509908E+03  0.12508652019E+03 0.  0.
          5    1    3    3  502    0 -0.14869869785E+02 -0.17187332360E+02  0.28236993509E+02  0.36487225483E+02  0.41800000000E+01 0.  1.
         -5    1    3    3    0  502  0.55350999821E+02  0.37177794469E+02 -0.84980917235E+02  0.10809787360E+03  0.41800000000E+01 0.  1.
        -11    1    1    2    0    0 -0.67450525422E+01 -0.89734361024E+01 -0.26945447045E+02  0.29190330689E+02  0.00000000000E+00 0. -1.
         11    1    1    2    0    0 -0.33736077495E+02 -0.11017026006E+02  0.75774919243E+02  0.83673987433E+02  0.00000000000E+00 0.  1.
</event>
<event>
 7    1  0.2641580E-009  0.7573109E+02  0.7561462E-02  0.1341622E+00
          3   -1    0    0  501    0  0.00000000000E+00  0.00000000000E+00  0.27906973780E+03  0.27906973780E+03  0.00000000000E+00 0. -1.
         -3   -1    0    0    0  501 -0.00000000000E+00 -0.00000000000E+00 -0.56112864894E+02  0.56112864894E+02  0.00000000000E+00 0.  1.
         25    2    1    2    0    0 -0.14218784250E+02  0.59843753369E+02  0.11941867768E+03  0.18355467941E+03  0.12509217046E+03 0.  0.
          5    1    3    3  502    0 -0.83916055124E+00 -0.44178016988E+00  0.12154876861E+03  0.12162431875E+03  0.41800000000E+01 0.  1.
         -5    1    3    3    0  502 -0.13379623699E+02  0.60285533538E+02 -0.21300909298E+01  0.61930360662E+02  0.41800000000E+01 0.  1.
        -11    1    1    2    0    0  0.28447369815E+02 -0.53302582898E+01 -0.49690762647E+01  0.29365902366E+02  0.00000000000E+00 0.  1.
         11    1    1    2    0    0 -0.14228585565E+02 -0.54513495079E+02  0.10850727149E+03  0.12226202092E+03  0.00000000000E+00 0. -1.
</event>
<event>
 7    1  0.2641580E-009  0.1041275E+03  0.7561462E-02  0.1271848E+00
          1   -1    0    0  501    0  0.00000000000E+00  0.00000000000E+00  0.21135547283E+02  0.21135547283E+02  0.00000000000E+00 0. -1.
         -1   -1    0    0    0  501 -0.00000000000E+00 -0.00000000000E+00 -0.92429085929E+03  0.92429085929E+03  0.00000000000E+00 0.  1.
         25    2    1    2    0    0 -0.28542412309E+02 -0.50801514295E+02 -0.71757914805E+03  0.73072824637E+03  0.12509385741E+03 0.  0.
          5    1    3    3  502    0 -0.22300736297E+02 -0.83817026944E+02 -0.31566608578E+03  0.32739145828E+03  0.41800000000E+01 0. -1.
         -5    1    3    3    0  502 -0.62416760121E+01  0.33015512649E+02 -0.40191306228E+03  0.40333678808E+03  0.41800000000E+01 0. -1.
        -11    1    1    2    0    0 -0.21304545370E+02  0.12516703820E+02 -0.12495545081E+03  0.12737510045E+03  0.00000000000E+00 0.  1.
         11    1    1    2    0    0  0.49846957679E+02  0.38284810475E+02 -0.60620713142E+02  0.87323059754E+02  0.00000000000E+00 0. -1.
</event>
<event>
 7    1  0.2641580E-009  0.1372840E+03  0.7561462E-02  0.1217031E+00
          2   -1    0    0  501    0  0.00000000000E+00  0.00000000000E+00  0.10721385382E+03  0.10721385382E+03  0.00000000000E+00 0. -1.
         -2   -1    0    0    0  501 -0.00000000000E+00 -0.00000000000E+00 -0.19844127402E+03  0.19844127402E+03  0.00000000000E+00 0.  1.
         25    2    1    2    0    0 -0.87683943199E+02 -0.32375011448E+02 -0.22641387676E+02  0.15778857389E+03  0.12509191162E+03 0.  0.
          5    1    3    3  502    0 -0.88002332181E+02  0.23236968079E+02  0.12354219382E+02  0.91948171768E+02  0.41800000000E+01 0.  1.
         -5    1    3    3    0  502  0.31838898225E+00 -0.55611979527E+02 -0.34995607059E+02  0.65840402124E+02  0.41800000000E+01 0.  1.
        -11    1    1    2    0    0  0.28139757395E+02  0.56750124482E+02 -0.17514134351E+02  0.65720373378E+02  0.00000000000E+00 0. -1.
         11    1    1    2    0    0  0.59544185804E+02 -0.24375113034E+02 -0.51071898180E+02  0.82146180570E+02  0.00000000000E+00 0.  1.
</event>
<event>
 7    1  0.2641580E-009  0.9711804E+02  0.7561462E-02  0.1286476E+00
          1   -1    0    0  501    0  0.00000000000E+00  0.00000000000E+00  0.38338567087E+03  0.38338567087E+03  0.00000000000E+00 0. -1.
         -1   -1    0    0    0  501 -0.00000000000E+00 -0.00000000000E+00 -0.12428804999E+03  0.12428804999E+03  0.00000000000E+00 0.  1.
         25    2    1    2    0    0 -0.74182603954E+01 -0.22184944868E+02 -0.83555880833E+02  0.15223834645E+03  0.12509087314E+03 0.  0.
          5    1    3    3  502    0 -0.50343894273E+02  0.16332517801E+02 -0.77716019991E+02  0.94119663151E+02  0.41800000000E+01 0. -1.
         -5    1    3    3    0  502  0.42925633878E+02 -0.38517462669E+02 -0.58398608412E+01  0.58118683304E+02  0.41800000000E+01 0. -1.
        -11    1    1    2    0    0 -0.34342517501E+02 -0.31307365484E+01  0.65610305045E+02  0.74120996673E+02  0.00000000000E+00 0.  1.
         11    1    1    2    0    0  0.41760777897E+02  0.25315681417E+02  0.27704319667E+03  0.28131437773E+03  0.00000000000E+00 0. -1.
</event>
<event>
 7    1  0.2641580E-009  0.3164613E+03  0.7561462E-02  0.1077290E+00
          2   -1    0    0  501    0  0.00000000000E+00  0.00000000000E+00  0.12784357626E+04  0.12784357626E+04  0.00000000000E+00 0.  1.
         -2   -1    0    0    0  501 -0.00000000000E+00 -0.00000000000E+00 -0.85860016809E+02  0.85860016809E+02  0.00000000000E+00 0. -1.
         25    2    1    2    0    0 -0.27186049436E+03 -0.14558605600E+03  0.70919886734E+03  0.78339897156E+03  0.12508991610E+03 0.  0.
          5    1    3    3  502    0 -0.57416828525E+02 -0.50143667068E+02  0.74485641346E+02  0.10666143967E+03  0.41800000000E+01 0.  1.
         -5    1    3    3    0  502 -0.21444366583E+03 -0.95442388932E+02  0.63471322599E+03  0.67673753189E+03  0.41800000000E+01 0.  1.
        -11    1    1    2    0    0  0.57120641435E+02 -0.81761781248E+01  0.97317191419E+02  0.11313820448E+03  0.00000000000E+00 0.  1.
         11    1    1    2    0    0  0.21473985292E+03  0.15376223413E+03  0.38605968702E+03  0.46775860336E+03  0.00000000000E+00 0. -1.
</event>
<event>
 7    1  0.2641580E-009  0.9840213E+02  0.7561462E-02  0.1283692E+00
          1   -1    0    0  501    0  0.00000000000E+00  0.00000000000E+00  0.21905843497E+03  0.21905843497E+03  0.00000000000E+00 0. -1.
         -1   -1    0    0    0  501 -0.00000000000E+00 -0.00000000000E+00 -0.56268581588E+02  0.56268581588E+02  0.00000000000E+00 0.  1.
         25    2    1    2    0    0 -0.12943107011E+02 -0.60912910130E+01  0.67336272548E+02  0.14278172720E+03  0.12509124740E+03 0.  0.
          5    1    3    3  502    0  0.45762634885E+02 -0.20830898897E+02  0.64707364004E+02  0.82052790671E+02  0.41800000000E+01 0.  1.
         -5    1    3    3    0  502 -0.58705741896E+02  0.14739607884E+02  0.26289085441E+01  0.60728936532E+02  0.41800000000E+01 0.  1.
        -11    1    1    2    0    0  0.40057229633E+02  0.29587730833E+02  0.78256792936E+02  0.92758509595E+02  0.00000000000E+00 0.  1.
         11    1    1    2    0    0 -0.27114122621E+02 -0.23496439820E+02  0.17196787898E+02  0.39786779761E+02  0.00000000000E+00 0. -1.
</event>
<event>
 7    1  0.2641580E-009  0.8495443E+02  0.7561462E-02  0.1315552E+00
         -1   -1    0    0    0  501 -0.00000000000E+00  0.00000000000E+00  0.36980090506E+02  0.36980090506E+02  0.00000000000E+00 0.  1.
          1   -1    0    0  501    0  0.00000000000E+00 -0.00000000000E+00 -0.36927579690E+03  0.36927579690E+03  0.00000000000E+00 0. -1.
         25    2    1    2    0    0 -0.40082340794E+02  0.85031915676E+01 -0.15856853859E+03  0.20608288291E+03  0.12508906783E+03 0.  0.
          5    1    3    3  502    0  0.17386033834E+02  0.25479063322E+01  0.14763102695E+02  0.23327828882E+02  0.41800000000E+01 0. -1.
         -5    1    3    3    0  502 -0.57468374628E+02  0.59552852353E+01 -0.17333164128E+03  0.18275505403E+03  0.41800000000E+01 0. -1.
        -11    1    1    2    0    0  0.23397248232E+02  0.37937712836E+02 -0.50081289053E+02  0.67043544009E+02  0.00000000000E+00 0.  1.
         11    1    1    2    0    0  0.16685092562E+02 -0.46440904404E+02 -0.12364587875E+03  0.13312946048E+03  0.00000000000E+00 0. -1.
</event>
<event>
 7    1  0.2641580E-009  0.1434859E+03  0.7561462E-02  0.1208714E+00
          2   -1    0    0  501    0  0.00000000000E+00  0.00000000000E+00  0.60627348408E+02  0.60627348408E+02  0.00000000000E+00 0.  1.
         -2   -1    0    0    0  501 -0.00000000000E+00 -0.00000000000E+00 -0.35728506207E+03  0.35728506207E+03  0.00000000000E+00 0. -1.
         25    2    1    2    0    0  0.97145463616E+02  0.33745882120E+01 -0.14252177764E+03  0.21309263286E+03  0.12508950447E+03 0.  0.
          5    1    3    3  502    0  0.12402605185E+03 -0.15387739702E+02 -0.10701648766E+03  0.16458810741E+03  0.41800000000E+01 0.  1.
         -5    1    3    3    0  502 -0.26880588230E+02  0.18762327914E+02 -0.35505289977E+02  0.48504525446E+02  0.41800000000E+01 0.  1.
        -11    1    1    2    0    0 -0.43427205941E+02  0.40605095439E+02 -0.10175505922E+03  0.11785070245E+03  0.00000000000E+00 0. -1.
         11    1    1    2    0    0 -0.53718257674E+02 -0.43979683651E+02 -0.52380876809E+02  0.86969075176E+02  0.00000000000E+00 0.  1.
</event>
<event>
 7    1  0.2641580E-009  0.1746867E+03  0.7561462E-02  0.1173047E+00
         -2   -1    0    0    0  501 -0.00000000000E+00  0.00000000000E+00  0.97690966805E+02  0.97690966805E+02  0.00000000000E+00 0.  1.
          2   -1    0    0  501    0  0.00000000000E+00 -0.00000000000E+00 -0.38263768552E+03  0.38263768552E+03  0.00000000000E+00 0. -1.
         25    2    1    2    0    0  0.11253464171E+02 -0.15902834896E+03 -0.16646063430E+03  0.26224714102E+03  0.12509102277E+03 0.  0.
          5    1    3    3  502    0 -0.16759668429E+01 -0.17114073873E+03 -0.17253316584E+03  0.24305786767E+03  0.41800000000E+01 0.  1.
         -5    1    3    3    0  502  0.12929431014E+02  0.12112389779E+02  0.60725315481E+01  0.19189273355E+02  0.41800000000E+01 0.  1.
        -11    1    1    2    0    0 -0.91604407346E+01  0.45008861077E+02  0.92426175680E+01  0.46852291613E+02  0.00000000000E+00 0.  1.
         11    1    1    2    0    0 -0.20930234364E+01  0.11401948788E+03 -0.12772870199E+03  0.17122921969E+03  0.00000000000E+00 0. -1.
</event>
<event>
 7    1  0.2641580E-009  0.1138087E+03  0.7561462E-02  0.1253675E+00
          1   -1    0    0  501    0  0.00000000000E+00  0.00000000000E+00  0.13300731038E+03  0.13300731038E+03  0.00000000000E+00 0. -1.
         -1   -1    0    0    0  501 -0.00000000000E+00 -0.00000000000E+00 -0.32643826864E+03  0.32643826864E+03  0.00000000000E+00 0.  1.
         25    2    1    2    0    0 -0.38145974889E+02 -0.15467291378E+02  0.89948615603E+02  0.15947515899E+03  0.12508884996E+03 0.  0.
          5    1    3    3  502    0 -0.46232571855E+02  0.48170144811E+02  0.38890650738E+02  0.77380673726E+02  0.41800000000E+01 0. -1.
         -5    1    3    3    0  502  0.80865969663E+01 -0.63637436189E+02  0.51057964865E+02  0.82094485268E+02  0.41800000000E+01 0. -1.
        -11    1    1    2    0    0  0.56014576886E+02 -0.17713265153E+02 -0.20040436276E+03  0.20883797835E+03  0.00000000000E+00 0.  1.
         11    1    1    2    0    0 -0.17868601997E+02  0.33180556531E+02 -0.82975211099E+02  0.91132441677E+02  0.00000000000E+00 0. -1.
</event>
<event>
 7    1  0.2641580E-009  0.2257614E+03  0.7561462E-02  0.1129659E+00
         -2   -1    0    0    0  501 -0.00000000000E+00  0.00000000000E+00  0.46710019822E+02  0.46710019822E+02  0.00000000000E+00 0.  1.
          2   -1    0    0  501    0  0.00000000000E+00 -0.00000000000E+00 -0.15581554215E+04  0.15581554215E+04  0.00000000000E+00 0. -1.
         25    2    1    2    0    0  0.20886754496E+03 -0.31253098778E+02 -0.11558180441E+04  0.11815944683E+04  0.12509088191E+03 0.  0.
          5    1    3    3  502    0  0.78336021049E+02  0.30636990634E+02 -0.65335256561E+03  0.65875807758E+03  0.41800000000E+01 0.  1.
         -5    1    3    3    0  502  0.13053152391E+03 -0.61890089412E+02 -0.50246547854E+03  0.52283639069E+03  0.41800000000E+01 0.  1.
        -11    1    1    2    0    0 -0.10331128687E+03 -0.20338638182E+02 -0.11775667173E+03  0.15796681910E+03  0.00000000000E+00 0.  1.
         11    1    1    2    0    0 -0.10555625808E+03  0.51591736960E+02 -0.23787068575E+03  0.26530415391E+03  0.00000000000E+00 0. -1.
</event>
<event>
 6    1  0.2641580E-009  0.1779239E+03  0.7561462E-02  0.1169828E+00
          2   -1    0    0  501    0  0.00000000000E+00  0.00000000000E+00  0.10397326457E+04  0.10397326457E+04  0.00000000000E+00 0. -1.
         -2   -1    0    0    0  501 -0.00000000000E+00 -0.00000000000E+00 -0.43255860556E+02  0.43255860556E+02  0.00000000000E+00 0.  1.
          5    1    1    2  502    0 -0.11944485520E+02 -0.52774466929E+02  0.63360668572E+02  0.83425786277E+02  0.41800000000E+01 0. -1.
         -5    1    1    2    0  502  0.13237582707E+03 -0.20351360522E+02  0.16098399247E+03  0.20945370777E+03  0.41800000000E+01 0. -1.
        -11    1    1    2    0    0 -0.13270154677E+03  0.50775222689E+02  0.65311199249E+03  0.66838843384E+03  0.00000000000E+00 0. -1.
         11    1    1    2    0    0  0.12270205223E+02  0.22350604762E+02  0.11902013163E+03  0.12172057838E+03  0.00000000000E+00 0.  1.
</event>
<event>
 7    1  0.2641580E-009  0.1236516E+03  0.7561462E-02  0.1237192E+00
         -2   -1    0    0    0  501 -0.00000000000E+00  0.00000000000E+00  0.17015701243E+02  0.17015701243E+02  0.00000000000E+00 0. -1.
          2   -1    0    0  501    0  0.00000000000E+00 -0.00000000000E+00 -0.99905437478E+03  0.99905437478E+03  0.00000000000E+00 0.  1.
         25    2    1    2    0    0 -0.58668028383E+02  0.32659925891E+02 -0.65042713074E+03  0.66574143284E+03  0.12509034613E+03 0.  0.
          5    1    3    3  502    0 -0.73652873043E+02  0.69014631739E+02 -0.50679635625E+03  0.51676666321E+03  0.41800000000E+01 0. -1.
         -5    1    3    3    0  502  0.14984844659E+02 -0.36354705849E+02 -0.14363077449E+03  0.14897476963E+03  0.41800000000E+01 0. -1.
        -11    1    1    2    0    0  0.79211768249E+02 -0.17276783679E+02 -0.29265861968E+03  0.30368085082E+03  0.00000000000E+00 0.  1.
         11    1    1    2    0    0 -0.20543739866E+02 -0.15383142211E+02 -0.38952923124E+02  0.46647792358E+02  0.00000000000E+00 0. -1.
</event>
<event>
 7    1  0.2641580E-009  0.1265294E+03  0.7561462E-02  0.1232698E+00
          2   -1    0    0  501    0  0.00000000000E+00  0.00000000000E+00  0.13136803340E+04  0.13136803340E+04  0.00000000000E+00 0. -1.
         -2   -1    0    0    0  501 -0.00000000000E+00 -0.00000000000E+00 -0.16767259592E+02  0.16767259592E+02  0.00000000000E+00 0.  1.
         25    2    1    2    0    0  0.12283493134E+02  0.93138622918E+02  0.82696822596E+03  0.84163470101E+03  0.12508731319E+03 0.  0.
          5    1    3    3  502    0  0.41377276833E+02 -0.43558480286E+01  0.42175003317E+03  0.42381790351E+03  0.41800000000E+01 0.  1.
         -5    1    3    3    0  502 -0.29093783699E+02  0.97494470947E+02  0.40521819278E+03  0.41781679751E+03  0.41800000000E+01 0.  1.
        -11    1    1    2    0    0  0.19270234391E+02 -0.12885981322E+02  0.19811426227E+02  0.30493983952E+02  0.00000000000E+00 0.  1.
         11    1    1    2    0    0 -0.31553727524E+02 -0.80252641596E+02  0.45013342222E+03  0.45831890863E+03  0.00000000000E+00 0. -1.
</event>
<event>
 7    1  0.2641580E-009  0.1255897E+03  0.7561462E-02  0.1234151E+00
         -2   -1    0    0    0  501 -0.00000000000E+00  0.00000000000E+00  0.32632227867E+03  0.32632227867E+03  0.00000000000E+00 0.  1.
          2   -1    0    0  501    0  0.00000000000E+00 -0.00000000000E+00 -0.60743659587E+02  0.60743659587E+02  0.00000000000E+00 0. -1.
         25    2    1    2    0    0 -0.48285911808E+02  0.39923217701E+02  0.23099740029E+03  0.27006131633E+03  0.12509165856E+03 0.  0.
          5    1    3    3  502    0 -0.69112734253E+02  0.72865574732E+02  0.15970244373E+03  0.18870162943E+03  0.41800000000E+01 0. -1.
         -5    1    3    3    0  502  0.20826822445E+02 -0.32942357032E+02  0.71294956566E+02  0.81359686895E+02  0.41800000000E+01 0. -1.
        -11    1    1    2    0    0  0.27800149601E+02  0.28636657521E+02  0.82248055396E+01  0.40749894454E+02  0.00000000000E+00 0. -1.
         11    1    1    2    0    0  0.20485762207E+02 -0.68559875222E+02  0.26356413253E+02  0.76254727481E+02  0.00000000000E+00 0.  1.
</event>
<event>
 7    1  0.2641580E-009  0.1085587E+03  0.7561462E-02  0.1263262E+00
         -4   -1    0    0    0  501 -0.00000000000E+00  0.00000000000E+00  0.84118365571E+02  0.84118365571E+02  0.00000000000E+00 0.  1.
          4   -1    0    0  501    0  0.00000000000E+00 -0.00000000000E+00 -0.18993558040E+03  0.18993558040E+03  0.00000000000E+00 0. -1.
         25    2    1    2    0    0 -0.18229755669E+02  0.51915526936E+02 -0.22575405485E+02  0.13850102469E+03  0.12508132946E+03 0.  0.
          5    1    3    3  502    0  0.49356623731E+02  0.45501954743E+02 -0.21005925513E+02  0.70464356225E+02  0.41800000000E+01 0. -1.
         -5    1    3    3    0  502 -0.67586379401E+02  0.64135721930E+01 -0.15694799719E+01  0.68036668467E+02  0.41800000000E+01 0. -1.
        -11    1    1    2    0    0  0.35713145757E+02 -0.11039803949E+02  0.40426156498E+01  0.37598521146E+02  0.00000000000E+00 0.  1.
         11    1    1    2    0    0 -0.17483390087E+02 -0.40875722987E+02 -0.87284424998E+02  0.97954400136E+02  0.00000000000E+00 0. -1.
</event>
<event>
 7    1  0.2641580E-009  0.4795209E+02  0.7561462E-02  0.1456711E+00
         -1   -1    0    0    0  501 -0.00000000000E+00  0.00000000000E+00  0.15919714298E+03  0.15919714298E+03  0.00000000000E+00 0.  1.
          1   -1    0    0  501    0  0.00000000000E+00 -0.00000000000E+00 -0.10377382706E+03  0.10377382706E+03  0.00000000000E+00 0. -1.
         25    2    1    2    0    0 -0.35418132811E+02  0.24055704505E+02 -0.14544421973E+02  0.13300803192E+03  0.12508587168E+03 0.  0.
          5    1    3    3  502    0 -0.13064670986E+02  0.95219871477E+01 -0.69663230543E+02  0.71636526695E+02  0.41800000000E+01 0. -1.
         -5    1    3    3    0  502 -0.22353461824E+02  0.14533717357E+02  0.55118808570E+02  0.61371505227E+02  0.41800000000E+01 0. -1.
        -11    1    1    2    0    0  0.32130117951E+02 -0.45665256704E+01  0.93651783980E+02  0.99115358441E+02  0.00000000000E+00 0.  1.
         11    1    1    2    0    0  0.32880148593E+01 -0.19489178834E+02 -0.23684046083E+02  0.30847579682E+02  0.00000000000E+00 0. -1.
</event>
<event>
 7    1  0.2641580E-009  0.1076617E+03  0.7561462E-02  0.1264962E+00
          2   -1    0    0  501    0  0.00000000000E+00  0.00000000000E+00  0.12327890252E+04  0.12327890252E+04  0.00000000000E+00 0. -1.
         -2   -1    0    0    0  501 -0.00000000000E+00 -0.00000000000E+00 -0.18975747016E+02  0.18975747016E+02  0.00000000000E+00 0.  1.
         25    2    1    2    0    0  0.91434835326E+01 -0.74368772680E+02  0.96651249159E+03  0.97744998762E+03  0.12509102389E+03 0.  0.
          5    1    3    3  502    0 -0.13280125722E+02 -0.72714962961E+02  0.25398648932E+03  0.26455705762E+03  0.41800000000E+01 0. -1.
         -5    1    3    3    0  502  0.22423609254E+02 -0.16538097189E+01  0.71252600227E+03  0.71289293000E+03  0.41800000000E+01 0. -1.
        -11    1    1    2    0    0 -0.50647959283E+02  0.40922905120E+02  0.14541367945E+03  0.15932682798E+03  0.00000000000E+00 0.  1.
         11    1    1    2    0    0  0.41504475750E+02  0.33445867560E+02  0.10188710712E+03  0.11498795659E+03  0.00000000000E+00 0. -1.
</event>
<event>
 7    1  0.2641580E-009  0.1168193E+03  0.7561462E-02  0.1248438E+00
         -1   -1    0    0    0  501 -0.00000000000E+00  0.00000000000E+00  0.32877583813E+03  0.32877583813E+03  0.00000000000E+00 0.  1.
          1   -1    0    0  501    0  0.00000000000E+00 -0.00000000000E+00 -0.59011692792E+02  0.59011692792E+02  0.00000000000E+00 0. -1.
         25    2    1    2    0    0 -0.83281652163E+02  0.20871992354E+00  0.12048307167E+03  0.19261067978E+03  0.12508727455E+03 0.  0.
          5    1    3    3  502    0  0.12725535323E+02  0.30810023581E+02  0.74590490897E+02  0.81807154544E+02  0.41800000000E+01 0. -1.
         -5    1    3    3    0  502 -0.96007187486E+02 -0.30601303658E+02  0.45892580774E+02  0.11080352524E+03  0.41800000000E+01 0. -1.
        -11    1    1    2    0    0  0.51237146046E+02 -0.26551119824E+02  0.14170976649E+03  0.15300936251E+03  0.00000000000E+00 0.  1.
         11    1    1    2    0    0  0.32044506117E+02  0.26342399901E+02  0.75713071788E+01  0.42167488628E+02  0.00000000000E+00 0. -1.
</event>
<event>
 7    1  0.2641580E-009  0.8503704E+02  0.7561462E-02  0.1315336E+00
         -2   -1    0    0    0  501 -0.00000000000E+00  0.00000000000E+00  0.84894545274E+02  0.84894545274E+02  0.00000000000E+00 0.  1.
          2   -1    0    0  501    0  0.00000000000E+00 -0.00000000000E+00 -0.19016324887E+03  0.19016324887E+03  0.00000000000E+00 0. -1.
         25    2    1    2    0    0  0.38045562685E+02 -0.64056291378E+01 -0.93065921860E+01  0.13123387125E+03  0.12508884594E+03 0.  0.
          5    1    3    3  502    0  0.82079669912E+02 -0.13311442627E+01  0.98118895090E+01  0.82780370461E+02  0.41800000000E+01 0. -1.
         -5    1    3    3    0  502 -0.44034107227E+02 -0.50744848750E+01 -0.19118481695E+02  0.48453500786E+02  0.41800000000E+01 0. -1.
        -11    1    1    2    0    0 -0.25091207258E+02 -0.55826274078E+01 -0.11501471397E+03  0.11785210579E+03  0.00000000000E+00 0. -1.
         11    1    1    2    0    0 -0.12954355427E+02  0.11988256546E+02  0.19052602558E+02  0.25971817106E+02  0.00000000000E+00 0.  1.
</event>
<event>
 7    1  0.2641580E-009  0.1285668E+03  0.7561462E-02  0.1229598E+00
         -1   -1    0    0    0  501 -0.00000000000E+00  0.00000000000E+00  0.29419847019E+02  0.29419847019E+02  0.00000000000E+00 0.  1.
          1   -1    0    0  501    0  0.00000000000E+00 -0.00000000000E+00 -0.80422410450E+03  0.80422410450E+03  0.00000000000E+00 0. -1.
         25    2    1    2    0    0 -0.85379269559E+01  0.10828240012E+03 -0.40625146801E+03  0.43873193849E+03  0.12508990455E+03 0.  0.
          5    1    3    3  502    0 -0.37628029445E+02  0.54484228519E+02 -0.68127685332E+02  0.95096023397E+02  0.41800000000E+01 0. -1.
         -5    1    3    3    0  502  0.29090102489E+02  0.53798171600E+02 -0.33812378268E+03  0.34363591509E+03  0.41800000000E+01 0. -1.
        -11    1    1    2    0    0  0.38870349962E+02 -0.46110759825E+02 -0.25426293644E+03  0.26131733032E+03  0.00000000000E+00 0.  1.
         11    1    1    2    0    0 -0.30332423006E+02 -0.62171640293E+02 -0.11428985303E+03  0.13359468270E+03  0.00000000000E+00 0. -1.
</event>
<event>
 7    1  0.2641580E-009  0.1106734E+03  0.7561462E-02  0.1259328E+00
         -1   -1    0    0    0  501 -0.00000000000E+00  0.00000000000E+00  0.36906095128E+02  0.36906095128E+02  0.00000000000E+00 0.  1.
          1   -1    0    0  501    0  0.00000000000E+00 -0.00000000000E+00 -0.65816157444E+03  0.65816157444E+03  0.00000000000E+00 0. -1.
         25    2    1    2    0    0 -0.39704648679E+02 -0.48844373076E+02 -0.53695545477E+03  0.55491573840E+03  0.12509230359E+03 0.  0.
          5    1    3    3  502    0  0.30814268266E+02 -0.40707136221E+02 -0.36883269071E+03  0.37237295311E+03  0.41800000000E+01 0.  1.
         -5    1    3    3    0  502 -0.70518916945E+02 -0.81372368546E+01 -0.16812276405E+03  0.18254278529E+03  0.41800000000E+01 0.  1.
        -11    1    1    2    0    0 -0.75421428946E+01  0.51155196351E+02 -0.10923360901E+02  0.52849388327E+02  0.00000000000E+00 0. -1.
         11    1    1    2    0    0  0.47246791574E+02 -0.23108232751E+01 -0.73376663650E+02  0.87302542841E+02  0.00000000000E+00 0.  1.
</event>
<event>
 7    1  0.2641580E-009  0.1302380E+03  0.7561462E-02  0.1227103E+00
          2   -1    0    0  501    0  0.00000000000E+00  0.00000000000E+00  0.53843661268E+03  0.53843661268E+03  0.00000000000E+00 0. -1.
         -2   -1    0    0    0  501 -0.00000000000E+00 -0.00000000000E+00 -0.51091572066E+02  0.51091572066E+02  0.00000000000E+00 0.  1.
         25    2    1    2    0    0 -0.87674256910E+02  0.58638439546E+02  0.12986702161E+03  0.20889834917E+03  0.12509130693E+03 0.  0.
          5    1    3    3  502    0 -0.10644312978E+03  0.39150184885E+02  0.13953655992E+03  0.17986328366E+03  0.41800000000E+01 0.  1.
         -5    1    3    3    0  502  0.18768872868E+02  0.19488254661E+02 -0.96695383102E+01  0.29035065517E+02  0.41800000000E+01 0.  1.
        -11    1    1    2    0    0  0.60256698146E+02 -0.63812419266E+01  0.10392226067E+03  0.12029724096E+03  0.00000000000E+00 0.  1.
         11    1    1    2    0    0  0.27417558765E+02 -0.52257197619E+02  0.25355575834E+03  0.26033259461E+03  0.00000000000E+00 0. -1.
</event>
<event>
 7    1  0.2641580E-009  0.1122303E+03  0.7561462E-02  0.1256495E+00
         -1   -1    0    0    0  501 -0.00000000000E+00  0.00000000000E+00  0.11077486371E+03  0.11077486371E+03  0.00000000000E+00 0.  1.
          1   -1    0    0  501    0  0.00000000000E+00 -0.00000000000E+00 -0.19272270369E+03  0.19272270369E+03  0.00000000000E+00 0. -1.
         25    2    1    2    0    0 -0.64685681225E+02 -0.15102806226E+02 -0.11419747755E+03  0.18192526617E+03  0.12507360424E+03 0.  0.
          5    1    3    3  502    0 -0.89297849757E+02 -0.37726924683E+02 -0.11196717670E+03  0.14816054763E+03  0.41800000000E+01 0. -1.
         -5    1    3    3    0  502  0.24612168531E+02  0.22624118457E+02 -0.22303008551E+01  0.33764718534E+02  0.41800000000E+01 0. -1.
        -11    1    1    2    0    0  0.67526654087E+02  0.33321380174E+02 -0.95334571595E+01  0.75901582291E+02  0.00000000000E+00 0. -1.
         11    1    1    2    0    0 -0.28409728618E+01 -0.18218573948E+02  0.41783094733E+02  0.45670718945E+02  0.00000000000E+00 0.  1.
</event>
<event>
 7    1  0.2641580E-009  0.1031656E+03  0.7561462E-02  0.1273776E+00
          2   -1    0    0  501    0  0.00000000000E+00  0.00000000000E+00  0.29462433784E+03  0.29462433784E+03  0.00000000000E+00 0. -1.
         -2   -1    0    0    0  501 -0.00000000000E+00 -0.00000000000E+00 -0.43051228820E+02  0.43051228820E+02  0.00000000000E+00 0.  1.
         25    2    1    2    0    0 -0.16367769883E+02 -0.70988821873E+00  0.18451027899E+03  0.22351631090E+03  0.12508833020E+03 0.  0.
          5    1    3    3  502    0  0.64418594641E+01  0.55153323978E+02  0.45476370495E+02  0.71895475327E+02  0.41800000000E+01 0. -1.
         -5    1    3    3    0  502 -0.22809629347E+02 -0.55863212197E+02  0.13903390849E+03  0.15162083557E+03  0.41800000000E+01 0. -1.
        -11    1    1    2    0    0 -0.16181461876E+02  0.37617858760E+02  0.43004308118E+02  0.59382771263E+02  0.00000000000E+00 0. -1.
         11    1    1    2    0    0  0.32549231759E+02 -0.36907970542E+02  0.24058521916E+02  0.54776484502E+02  0.00000000000E+00 0.  1.
</event>
<event>
 7    1  0.2641580E-009  0.1228237E+03  0.7561462E-02  0.1238510E+00
          2   -1    0    0  501    0  0.00000000000E+00  0.00000000000E+00  0.19768385656E+03  0.19768385656E+03  0.00000000000E+00 0. -1.
         -2   -1    0    0    0  501 -0.00000000000E+00 -0.00000000000E+00 -0.10728534828E+03  0.10728534828E+03  0.00000000000E+00 0.  1.
         25    2    1    2    0    0  0.89390192672E+02  0.28580466863E+01  0.99794485462E+01  0.15409574723E+03  0.12508850844E+03 0.  0.
          5    1    3    3  502    0  0.30283307515E+01  0.43279115922E+02 -0.27521982586E+02  0.51547886355E+02  0.41800000000E+01 0.  1.
         -5    1    3    3    0  502  0.86361861920E+02 -0.40421069236E+02  0.37501431133E+02  0.10254786087E+03  0.41800000000E+01 0.  1.
        -11    1    1    2    0    0 -0.93701960741E+01  0.21100191455E+02 -0.12232548240E+02  0.26127646093E+02  0.00000000000E+00 0.  1.
         11    1    1    2    0    0 -0.80019996598E+02 -0.23958238141E+02  0.92651607972E+02  0.12474581151E+03  0.00000000000E+00 0. -1.
</event>
<event>
 7    1  0.2641580E-009  0.2333311E+03  0.7561462E-02  0.1124317E+00
          1   -1    0    0  501    0  0.00000000000E+00  0.00000000000E+00  0.10325653674E+04  0.10325653674E+04  0.00000000000E+00 0. -1.
         -1   -1    0    0    0  501 -0.00000000000E+00 -0.00000000000E+00 -0.10588955124E+03  0.10588955124E+03  0.00000000000E+00 0.  1.
         25    2    1    2    0    0 -0.18097217059E+03  0.11317036042E+03  0.86265135933E+03  0.89742562442E+03  0.12508767568E+03 0.  0.
          5    1    3    3  502    0  0.44933703891E+01  0.46690452431E+02  0.23084992560E+03  0.23560422168E+03  0.41800000000E+01 0. -1.
         -5    1    3    3    0  502 -0.18546554098E+03  0.66479907984E+02  0.63180143373E+03  0.66182140274E+03  0.41800000000E+01 0. -1.
        -11    1    1    2    0    0  0.16348374636E+03 -0.73688183267E+02  0.21816670593E+02  0.18064564980E+03  0.00000000000E+00 0.  1.
         11    1    1    2    0    0  0.17488424227E+02 -0.39482177148E+02  0.42207786232E+02  0.60383644416E+02  0.00000000000E+00 0. -1.
</event>
<event>
 7    1  0.2641580E-009  0.1202734E+03  0.7561462E-02  0.1242647E+00
         -2   -1    0    0    0  501 -0.00000000000E+00  0.00000000000E+00  0.28074952782E+03  0.28074952782E+03  0.00000000000E+00 0. -1.
          2   -1    0    0  501    0  0.00000000000E+00 -0.00000000000E+00 -0.58495317208E+02  0.58495317208E+02  0.00000000000E+00 0.  1.
         25    2    1    2    0    0 -0.12291129593E+02 -0.65636334533E+02  0.98776106026E+02  0.17280517049E+03  0.12508280277E+03 0.  0.
          5    1    3    3  502    0 -0.31737572282E+02  0.29366996759E+02  0.41632876609E+02  0.60170281766E+02  0.41800000000E+01 0.  1.
         -5    1    3    3    0  502  0.19446442689E+02 -0.95003331293E+02  0.57143229417E+02  0.11263488873E+03  0.41800000000E+01 0.  1.
        -11    1    1    2    0    0 -0.77539443256E+00  0.80355813943E+02  0.60870459771E+02  0.10081106558E+03  0.00000000000E+00 0.  1.
         11    1    1    2    0    0  0.13066524026E+02 -0.14719479410E+02  0.62607644814E+02  0.65628608955E+02  0.00000000000E+00 0. -1.
</event>
<event>
 7    1  0.2641580E-009  0.1063598E+03  0.7561462E-02  0.1267463E+00
         -1   -1    0    0    0  501 -0.00000000000E+00  0.00000000000E+00  0.13919708074E+03  0.13919708074E+03  0.00000000000E+00 0.  1.
          1   -1    0    0  501    0  0.00000000000E+00 -0.00000000000E+00 -0.10968143185E+03  0.10968143185E+03  0.00000000000E+00 0. -1.
         25    2    1    2    0    0 -0.24789752400E+02  0.53899334100E+02  0.15976218322E+02  0.13936360935E+03  0.12508919226E+03 0.  0.
          5    1    3    3  502    0 -0.58482854492E+02  0.39771026537E+02  0.52001627353E+02  0.87884130926E+02  0.41800000000E+01 0.  1.
         -5    1    3    3    0  502  0.33693102092E+02  0.14128307564E+02 -0.36025409030E+02  0.51479478426E+02  0.41800000000E+01 0.  1.
        -11    1    1    2    0    0 -0.10611011212E+01  0.23485395327E+02 -0.85056426735E+01  0.25000713720E+02  0.00000000000E+00 0. -1.
         11    1    1    2    0    0  0.25850853522E+02 -0.77384729427E+02  0.22045073244E+02  0.84514189522E+02  0.00000000000E+00 0.  1.
</event>
<event>
 7    1  0.2641580E-009  0.1080695E+03  0.7561462E-02  0.1264187E+00
         -2   -1    0    0    0  501 -0.00000000000E+00  0.00000000000E+00  0.26623540579E+02  0.26623540579E+02  0.00000000000E+00 0.  1.
          2   -1    0    0  501    0  0.00000000000E+00 -0.00000000000E+00 -0.63584290098E+03  0.63584290098E+03  0.00000000000E+00 0. -1.
         25    2    1    2    0    0  0.66647296459E+02  0.25490066827E+02 -0.32306048383E+03  0.35370569523E+03  0.12509211406E+03 0.  0.
          5    1    3    3  502    0  0.90188368969E+02  0.32009595014E+02 -0.14407945407E+03  0.17301710191E+03  0.41800000000E+01 0.  1.
         -5    1    3    3    0  502 -0.23541072510E+02 -0.65195281873E+01 -0.17898102976E+03  0.18068859332E+03  0.41800000000E+01 0.  1.
        -11    1    1    2    0    0 -0.48866111425E+02  0.15186957871E+02 -0.62681664336E+02  0.80916818889E+02  0.00000000000E+00 0. -1.
         11    1    1    2    0    0 -0.17781185034E+02 -0.40677024698E+02 -0.22347721224E+03  0.22784392743E+03  0.00000000000E+00 0.  1.
</event>
<event>
 7    1  0.2641580E-009  0.7194636E+02  0.7561462E-02  0.1353597E+00
         -1   -1    0    0    0  501 -0.00000000000E+00  0.00000000000E+00  0.64607274748E+02  0.64607274748E+02  0.00000000000E+00 0.  1.
          1   -1    0    0  501    0  0.00000000000E+00 -0.00000000000E+00 -0.19549276703E+03  0.19549276703E+03  0.00000000000E+00 0. -1.
         25    2    1    2    0    0 -0.22609133352E+02  0.15924913355E+02 -0.81888844243E+02  0.15204724669E+03  0.12509119328E+03 0.  0.
          5    1    3    3  502    0 -0.43656836890E+02  0.30742783182E+02 -0.10456877834E+03  0.11748676491E+03  0.41800000000E+01 0.  1.
         -5    1    3    3    0  502  0.21047703537E+02 -0.14817869827E+02  0.22679934095E+02  0.34560481781E+02  0.41800000000E+01 0.  1.
        -11    1    1    2    0    0  0.37377803802E+02  0.59646493269E+01  0.13516309525E+02  0.40191639452E+02  0.00000000000E+00 0.  1.
         11    1    1    2    0    0 -0.14768670450E+02 -0.21889562682E+02 -0.62512957565E+02  0.67861155640E+02  0.00000000000E+00 0. -1.
</event>
<event>
 7    1  0.2641580E-009  0.1388291E+03  0.7561462E-02  0.1214913E+00
          2   -1    0    0  501    0  0.00000000000E+00  0.00000000000E+00  0.31130224922E+03  0.31130224922E+03  0.00000000000E+00 0. -1.
         -2   -1    0    0    0  501 -0.00000000000E+00 -0.00000000000E+00 -0.12582979780E+03  0.12582979780E+03  0.00000000000E+00 0.  1.
         25    2    1    2    0    0 -0.10596967891E+03  0.54839783749E+01 -0.41900310465E+02  0.16930371835E+03  0.12509382943E+03 0.  0.
          5    1    3    3  502    0 -0.10842996895E+03  0.49673397014E+02 -0.26407394730E+02  0.12222654145E+03  0.41800000000E+01 0.  1.
         -5    1    3    3    0  502  0.24602900392E+01 -0.44189418639E+02 -0.15492915735E+02  0.47077176898E+02  0.41800000000E+01 0.  1.
        -11    1    1    2    0    0  0.85652291028E+02  0.12710461156E+02  0.22423750447E+03  0.24037539223E+03  0.00000000000E+00 0. -1.
         11    1    1    2    0    0  0.20317387886E+02 -0.18194439530E+02  0.31352574245E+01  0.27452936445E+02  0.00000000000E+00 0.  1.
</event>
<event>
 7    1  0.2641580E-009  0.8903143E+02  0.7561462E-02  0.1305214E+00
         -1   -1    0    0    0  501 -0.00000000000E+00  0.00000000000E+00  0.40788436447E+02  0.40788436447E+02  0.00000000000E+00 0.  1.
          1   -1    0    0  501    0  0.00000000000E+00 -0.00000000000E+00 -0.43771062412E+03  0.43771062412E+03  0.00000000000E+00 0. -1.
         25    2    1    2    0    0 -0.45983227994E+02  0.59884265527E+02 -0.25512358885E+03  0.29400057231E+03  0.12509080068E+03 0.  0.
          5    1    3    3  502    0 -0.14232003102E+02  0.67934074060E+02 -0.48555478178E+02  0.84809758825E+02  0.41800000000E+01 0. -1.
         -5    1    3    3    0  502 -0.31751224892E+02 -0.80498085334E+01 -0.20656811068E+03  0.20919081349E+03  0.41800000000E+01 0. -1.
        -11    1    1    2    0    0  0.23144467793E+02 -0.29452572439E+02  0.23281426889E+00  0.37458972425E+02  0.00000000000E+00 0.  1.
         11    1    1    2    0    0  0.22838760201E+02 -0.30431693088E+02 -0.14203141308E+03  0.14703951582E+03  0.00000000000E+00 0. -1.
</event>
<event>
 7    1  0.2641580E-009  0.1551081E+03  0.7561462E-02  0.1194333E+00
          2   -1    0    0  501    0  0.00000000000E+00  0.00000000000E+00  0.54889010345E+03  0.54889010345E+03  0.00000000000E+00 0. -1.
         -2   -1    0    0    0  501 -0.00000000000E+00 -0.00000000000E+00 -0.48755661618E+02  0.48755661618E+02  0.00000000000E+00 0.  1.
         25    2    1    2    0    0 -0.31748332053E+02 -0.11378791484E+03  0.20843521825E+03  0.27027357642E+03  0.12508764828E+03 0.  0.
          5    1    3    3  502    0 -0.12679957324E+01 -0.13341569176E+03  0.14498572078E+03  0.19707786850E+03  0.41800000000E+01 0. -1.
         -5    1    3    3    0  502 -0.30480336320E+02  0.19627776920E+02  0.63449497470E+02  0.73195707922E+02  0.41800000000E+01 0. -1.
        -11    1    1    2    0    0 -0.19906440310E+02  0.61332912665E+01  0.14021076958E+02  0.25109245840E+02  0.00000000000E+00 0.  1.
         11    1    1    2    0    0  0.51654772362E+02  0.10765462357E+03  0.27767814662E+03  0.30226294280E+03  0.00000000000E+00 0. -1.
</event>
<event>
 7    1  0.2641580E-009  0.1342526E+03  0.7561462E-02  0.1221279E+00
          2   -1    0    0  501    0  0.00000000000E+00  0.00000000000E+00  0.23126289259E+03  0.23126289259E+03  0.00000000000E+00 0. -1.
         -2   -1    0    0    0  501 -0.00000000000E+00 -0.00000000000E+00 -0.85013177167E+02  0.85013177167E+02  0.00000000000E+00 0.  1.
         25    2    1    2    0    0  0.88396969759E+01 -0.89349139634E+02  0.95603626820E+02  0.18124319005E+03  0.12509049317E+03 0.  0.
          5    1    3    3  502    0 -0.49988918719E+02 -0.61385047060E+01  0.20291361808E+02  0.54459021280E+02  0.41800000000E+01 0.  1.
         -5    1    3    3    0  502  0.58828615695E+02 -0.83210634928E+02  0.75312265012E+02  0.12678416877E+03  0.41800000000E+01 0.  1.
        -11    1    1    2    0    0 -0.31782920562E+02  0.99129145997E+01 -0.72776726937E+01  0.34079090879E+02  0.00000000000E+00 0.  1.
         11    1    1    2    0    0  0.22943223586E+02  0.79436225034E+02  0.57923761299E+02  0.10095378883E+03  0.00000000000E+00 0. -1.
</event>
<event>
 7    1  0.2641580E-009  0.1210948E+03  0.7561462E-02  0.1241302E+00
          2   -1    0    0  501    0  0.00000000000E+00  0.00000000000E+00  0.13885036200E+03  0.13885036200E+03  0.00000000000E+00 0. -1.
         -2   -1    0    0    0  501 -0.00000000000E+00 -0.00000000000E+00 -0.14737158407E+03  0.14737158407E+03  0.00000000000E+00 0.  1.
         25    2    1    2    0    0  0.58899605419E+02 -0.59788630212E+02 -0.46640732195E+02  0.15766181391E+03  0.12505217250E+03 0.  0.
          5    1    3    3  502    0  0.57833214620E+02 -0.85807340884E+02  0.59316924689E+00  0.10356352984E+03  0.41800000000E+01 0. -1.
         -5    1    3    3    0  502  0.10663907986E+01  0.26018710672E+02 -0.47233901442E+02  0.54098284075E+02  0.41800000000E+01 0. -1.
        -11    1    1    2    0    0 -0.19079187438E+02  0.68825320181E+02 -0.18170374611E+01  0.71443976069E+02  0.00000000000E+00 0.  1.
         11    1    1    2    0    0 -0.39820417981E+02 -0.90366899692E+01  0.39936547578E+02  0.57116156088E+02  0.00000000000E+00 0. -1.
</event>
<event>
 7    1  0.2641580E-009  0.8624262E+02  0.7561462E-02  0.1312215E+00
         -1   -1    0    0    0  501 -0.00000000000E+00  0.00000000000E+00  0.58190955873E+02  0.58190955873E+02  0.00000000000E+00 0.  1.
          1   -1    0    0  501    0  0.00000000000E+00 -0.00000000000E+00 -0.28029019003E+03  0.28029019003E+03  0.00000000000E+00 0. -1.
         25    2    1    2    0    0 -0.14568278479E+02 -0.36996869986E+02 -0.18757306913E+03  0.22893441574E+03  0.12508520024E+03 0.  0.
          5    1    3    3  502    0  0.46684073111E+00  0.20346346218E+02 -0.16350053658E+03  0.16481531969E+03  0.41800000000E+01 0. -1.
         -5    1    3    3    0  502 -0.15035119210E+02 -0.57343216204E+02 -0.24072532559E+02  0.64119096048E+02  0.41800000000E+01 0. -1.
        -11    1    1    2    0    0  0.42402376121E+02 -0.41478988226E+01  0.89481048620E+01  0.43534298501E+02  0.00000000000E+00 0.  1.
         11    1    1    2    0    0 -0.27834097642E+02  0.41144768808E+02 -0.43474269881E+02  0.66012431659E+02  0.00000000000E+00 0. -1.
</event>
<event>
 7    1  0.2641580E-009  0.1460254E+03  0.7561462E-02  0.1205444E+00
          2   -1    0    0  501    0  0.00000000000E+00  0.00000000000E+00  0.53248158612E+02  0.53248158612E+02  0.00000000000E+00 0. -1.
         -2   -1    0    0    0  501 -0.00000000000E+00 -0.00000000000E+00 -0.51155194820E+03  0.51155194820E+03  0.00000000000E+00 0.  1.
         25    2    1    2    0    0  0.11242958339E+03 -0.27476897768E+02 -0.16486648257E+03  0.23711476099E+03  0.12508821557E+03 0.  0.
          5    1    3    3  502    0  0.43559371449E+02  0.39302404148E+02 -0.11441050691E+03  0.12864421598E+03  0.41800000000E+01 0. -1.
         -5    1    3    3    0  502  0.68870211941E+02 -0.66779301915E+02 -0.50455975659E+02  0.10847054502E+03  0.41800000000E+01 0. -1.
        -11    1    1    2    0    0 -0.10403408705E+03 -0.45193214923E+01 -0.26247320819E+03  0.28237510611E+03  0.00000000000E+00 0.  1.
         11    1    1    2    0    0 -0.83954963349E+01  0.31996219260E+02 -0.30964098837E+02  0.45310239709E+02  0.00000000000E+00 0. -1.
</event>
<event>
 7    1  0.2641580E-009  0.1135559E+03  0.7561462E-02  0.1254123E+00
          1   -1    0    0  501    0  0.00000000000E+00  0.00000000000E+00  0.17454142296E+02  0.17454142296E+02  0.00000000000E+00 0. -1.
         -1   -1    0    0    0  501 -0.00000000000E+00 -0.00000000000E+00 -0.96423966537E+03  0.96423966537E+03  0.00000000000E+00 0.  1.
         25    2    1    2    0    0  0.53367743469E+02  0.13900539907E+02 -0.64739326416E+03  0.66166952023E+03  0.12508866643E+03 0.  0.
          5    1    3    3  502    0  0.54542884026E+01 -0.42479173129E+02 -0.94552749339E+02  0.10388418657E+03  0.41800000000E+01 0. -1.
         -5    1    3    3    0  502  0.47913455066E+02  0.56379713036E+02 -0.55284051482E+03  0.55778533366E+03  0.41800000000E+01 0. -1.
        -11    1    1    2    0    0  0.27860322287E+02 -0.39096924046E+01 -0.11312582931E+03  0.11657159392E+03  0.00000000000E+00 0.  1.
         11    1    1    2    0    0 -0.81228065755E+02 -0.99908475023E+01 -0.18626642960E+03  0.20345269351E+03  0.00000000000E+00 0. -1.
</event>
<event>
 7    1  0.2641580E-009  0.9815236E+02  0.7561462E-02  0.1284230E+00
         -2   -1    0    0    0  501 -0.00000000000E+00  0.00000000000E+00  0.89585036655E+01  0.89585036655E+01  0.00000000000E+00 0.  1.
          2   -1    0    0  501    0  0.00000000000E+00 -0.00000000000E+00 -0.17832541273E+04  0.17832541273E+04  0.00000000000E+00 0. -1.
         25    2    1    2    0    0 -0.38477432899E+02  0.41134328107E+02 -0.12489864314E+04  0.12564982557E+04  0.12509282521E+03 0.  0.
          5    1    3    3  502    0  0.46221223049E+01  0.47444353627E+02 -0.11043725314E+04  0.11054087439E+04  0.41800000000E+01 0.  1.
         -5    1    3    3    0  502 -0.43099555204E+02 -0.63100255194E+01 -0.14461390006E+03  0.15108951178E+03  0.41800000000E+01 0.  1.
        -11    1    1    2    0    0  0.18062632597E+02  0.27603687873E+02 -0.18733271180E+03  0.19021505512E+03  0.00000000000E+00 0.  1.
         11    1    1    2    0    0  0.20414800302E+02 -0.68738015980E+02 -0.33797648040E+03  0.34549932014E+03  0.00000000000E+00 0. -1.
</event>
<event>
 7    1  0.2641580E-009  0.1401744E+03  0.7561462E-02  0.1213095E+00
         -4   -1    0    0    0  501 -0.00000000000E+00  0.00000000000E+00  0.59492628294E+02  0.59492628294E+02  0.00000000000E+00 0.  1.
          4   -1    0    0  501    0  0.00000000000E+00 -0.00000000000E+00 -0.59176720561E+03  0.59176720561E+03  0.00000000000E+00 0. -1.
         25    2    1    2    0    0  0.33533659405E+02 -0.93891494357E+02 -0.48177601818E+03  0.50763854273E+03  0.12509452165E+03 0.  0.
          5    1    3    3  502    0 -0.38406391891E+02 -0.67698257929E+02 -0.30779966217E+03  0.31751568385E+03  0.41800000000E+01 0.  1.
         -5    1    3    3    0  502  0.71940051296E+02 -0.26193236428E+02 -0.17397635601E+03  0.19012285887E+03  0.41800000000E+01 0.  1.
        -11    1    1    2    0    0  0.24868057753E+02  0.22943425675E+02  0.78952838066E+01  0.34744158998E+02  0.00000000000E+00 0.  1.
         11    1    1    2    0    0 -0.58401717158E+02  0.70948068683E+02 -0.58393842940E+02  0.10887713217E+03  0.00000000000E+00 0. -1.
</event>
<event>
 7    1  0.2641580E-009  0.1593469E+03  0.7561462E-02  0.1189436E+00
          2   -1    0    0  501    0  0.00000000000E+00  0.00000000000E+00  0.76180030278E+03  0.76180030278E+03  0.00000000000E+00 0. -1.
         -2   -1    0    0    0  501 -0.00000000000E+00 -0.00000000000E+00 -0.39727275122E+02  0.39727275122E+02  0.00000000000E+00 0.  1.
         25    2    1    2    0    0 -0.47809344805E+02  0.10850668965E+03  0.23834962657E+03  0.29414140732E+03  0.12509671404E+03 0.  0.
          5    1    3    3  502    0  0.34138402857E+02  0.64854962315E+01  0.88410688540E+02  0.95086352644E+02  0.41800000000E+01 0. -1.
         -5    1    3    3    0  502 -0.81947747662E+02  0.10202119342E+03  0.14993893803E+03  0.19905505468E+03  0.41800000000E+01 0. -1.
        -11    1    1    2    0    0  0.34017022544E+02 -0.12598979991E+03  0.42488323054E+03  0.44447311178E+03  0.00000000000E+00 0. -1.
         11    1    1    2    0    0  0.13792322261E+02  0.17483110255E+02  0.58840170548E+02  0.62913058801E+02  0.00000000000E+00 0.  1.
</event>
<event>
 7    1  0.2641580E-009  0.1164636E+03  0.7561462E-02  0.1249048E+00
          1   -1    0    0  501    0  0.00000000000E+00  0.00000000000E+00  0.15393471425E+03  0.15393471425E+03  0.00000000000E+00 0. -1.
         -1   -1    0    0    0  501 -0.00000000000E+00 -0.00000000000E+00 -0.10823831177E+03  0.10823831177E+03  0.00000000000E+00 0.  1.
         25    2    1    2    0    0  0.16826706661E+02 -0.48723387214E+02 -0.23489642912E+02  0.13732314405E+03  0.12509506805E+03 0.  0.
          5    1    3    3  502    0 -0.38499906773E+02  0.20060722320E+02  0.62960335502E+01  0.44065721825E+02  0.41800000000E+01 0. -1.
         -5    1    3    3    0  502  0.55326613434E+02 -0.68784109534E+02 -0.29785676463E+02  0.93257422229E+02  0.41800000000E+01 0. -1.
        -11    1    1    2    0    0 -0.35885834662E+02  0.66058959515E+02  0.37498307750E+02  0.84010132399E+02  0.00000000000E+00 0. -1.
         11    1    1    2    0    0  0.19059128000E+02 -0.17335572301E+02  0.31687737647E+02  0.40839749562E+02  0.00000000000E+00 0.  1.
</event>
<event>
 7    1  0.2641580E-009  0.6925864E+02  0.7561462E-02  0.1362632E+00
         -4   -1    0    0    0  501 -0.00000000000E+00  0.00000000000E+00  0.15798251172E+03  0.15798251172E+03  0.00000000000E+00 0.  1.
          4   -1    0    0  501    0  0.00000000000E+00 -0.00000000000E+00 -0.10111107324E+03  0.10111107324E+03  0.00000000000E+00 0. -1.
         25    2    1    2    0    0 -0.39720209640E+02 -0.13613120728E+01 -0.13161099792E+02  0.13191022165E+03  0.12509014271E+03 0.  0.
          5    1    3    3  502    0  0.24972366534E+01 -0.30999240090E+02 -0.56354618487E+02  0.64501972853E+02  0.41800000000E+01 0. -1.
         -5    1    3    3    0  502 -0.42217446293E+02  0.29637928018E+02  0.43193518696E+02  0.67408248798E+02  0.41800000000E+01 0. -1.
        -11    1    1    2    0    0  0.31880687179E+02 -0.16487799819E+02  0.91438561871E+02  0.98230526594E+02  0.00000000000E+00 0.  1.
         11    1    1    2    0    0  0.78395224607E+01  0.17849111892E+02 -0.21406023594E+02  0.28952836715E+02  0.00000000000E+00 0. -1.
</event>
<event>
 7    1  0.2641580E-009  0.1337679E+03  0.7561462E-02  0.1221970E+00
          1   -1    0    0  501    0  0.00000000000E+00  0.00000000000E+00  0.57072832015E+03  0.57072832015E+03  0.00000000000E+00 0. -1.
         -1   -1    0    0    0  501 -0.00000000000E+00 -0.00000000000E+00 -0.35781382338E+02  0.35781382338E+02  0.00000000000E+00 0.  1.
         25    2    1    2    0    0 -0.80695157732E+02 -0.45118057212E+02  0.28511859934E+03  0.32478330437E+03  0.12507690251E+03 0.  0.
          5    1    3    3  502    0  0.62983413413E+01  0.29410790795E+02  0.21168344269E+02  0.37016684318E+02  0.41800000000E+01 0. -1.
         -5    1    3    3    0  502 -0.86993499073E+02 -0.74528848006E+02  0.26395025507E+03  0.28776662005E+03  0.41800000000E+01 0. -1.
        -11    1    1    2    0    0  0.64482719167E+02 -0.98499018943E+01  0.84511100743E+02  0.10675751864E+03  0.00000000000E+00 0. -1.
         11    1    1    2    0    0  0.16212438565E+02  0.54967959106E+02  0.16531723773E+03  0.17496887947E+03  0.00000000000E+00 0.  1.
</event>
<event>
 7    1  0.2641580E-009  0.9890376E+02  0.7561462E-02  0.1282618E+00
         -4   -1    0    0    0  501 -0.00000000000E+00  0.00000000000E+00  0.20131657026E+03  0.20131657026E+03  0.00000000000E+00 0. -1.
          4   -1    0    0  501    0  0.00000000000E+00 -0.00000000000E+00 -0.88044823283E+02  0.88044823283E+02  0.00000000000E+00 0.  1.
         25    2    1    2    0    0 -0.55549740735E+02  0.27350018387E+02  0.11213869106E+03  0.17903635691E+03  0.12508050952E+03 0.  0.
          5    1    3    3  502    0  0.36807231620E+01  0.64977580440E+02  0.32680456841E+02  0.72945996066E+02  0.41800000000E+01 0.  1.
         -5    1    3    3    0  502 -0.59230463897E+02 -0.37627562052E+02  0.79458234220E+02  0.10609036085E+03  0.41800000000E+01 0.  1.
        -11    1    1    2    0    0  0.34706142067E+02 -0.13342866844E+02  0.45854257130E+02  0.59035254634E+02  0.00000000000E+00 0. -1.
         11    1    1    2    0    0  0.20843598668E+02 -0.14007151543E+02 -0.44721201210E+02  0.51289781999E+02  0.00000000000E+00 0.  1.
</event>
<event>
 7    1  0.2641580E-009  0.1078027E+03  0.7561462E-02  0.1264694E+00
          2   -1    0    0  501    0  0.00000000000E+00  0.00000000000E+00  0.61409743921E+02  0.61409743921E+02  0.00000000000E+00 0. -1.
         -2   -1    0    0    0  501 -0.00000000000E+00 -0.00000000000E+00 -0.28506925711E+03  0.28506925711E+03  0.00000000000E+00 0.  1.
         25    2    1    2    0    0  0.42866970219E+02  0.32710479338E+02 -0.56467292484E+02  0.14745776771E+03  0.12509070926E+03 0.  0.
          5    1    3    3  502    0  0.14601637488E+02 -0.44112804956E+02  0.21275571296E+01  0.46702743793E+02  0.41800000000E+01 0.  1.
         -5    1    3    3    0  502  0.28265332731E+02  0.76823284294E+02 -0.58594849614E+02  0.10075502392E+03  0.41800000000E+01 0.  1.
        -11    1    1    2    0    0 -0.62927198563E+01 -0.47221329602E+02 -0.14753706144E+03  0.15503753349E+03  0.00000000000E+00 0.  1.
         11    1    1    2    0    0 -0.36574250363E+02  0.14510850265E+02 -0.19655159270E+02  0.43983699832E+02  0.00000000000E+00 0. -1.
</event>
<event>
 7    1  0.2641580E-009  0.6823565E+02  0.7561462E-02  0.1366198E+00
         -1   -1    0    0    0  501 -0.00000000000E+00  0.00000000000E+00  0.12113225720E+03  0.12113225720E+03  0.00000000000E+00 0.  1.
          1   -1    0    0  501    0  0.00000000000E+00 -0.00000000000E+00 -0.11185066667E+03  0.11185066667E+03  0.00000000000E+00 0. -1.
         25    2    1    2    0    0 -0.16864188891E+02  0.30823787705E+02 -0.14845655145E+02  0.13080197543E+03  0.12511697145E+03 0.  0.
          5    1    3    3  502    0  0.19495422063E+02  0.20011415718E+02 -0.63185921104E+02  0.69213158187E+02  0.41800000000E+01 0.  1.
         -5    1    3    3    0  502 -0.36359610954E+02  0.10812371986E+02  0.48340265960E+02  0.61588817246E+02  0.41800000000E+01 0.  1.
        -11    1    1    2    0    0  0.17386326605E+02  0.15763985555E+02  0.45289692992E+02  0.51009252932E+02  0.00000000000E+00 0.  1.
         11    1    1    2    0    0 -0.52213771494E+00 -0.46587773260E+02 -0.21162447317E+02  0.51171695512E+02  0.00000000000E+00 0. -1.
</event>
<event>
 7    1  0.2641580E-009  0.1236683E+03  0.7561462E-02  0.1237165E+00
          2   -1    0    0  501    0  0.00000000000E+00  0.00000000000E+00  0.17536713860E+03  0.17536713860E+03  0.00000000000E+00 0. -1.
         -2   -1    0    0    0  501 -0.00000000000E+00 -0.00000000000E+00 -0.10247668172E+03  0.10247668172E+03  0.00000000000E+00 0.  1.
         25    2    1    2    0    0 -0.73094818920E+02  0.16495535666E+02  0.23416605074E+02  0.14768479019E+03  0.12508998605E+03 0.  0.
          5    1    3    3  502    0  0.12596498066E+02  0.48842882370E+02 -0.69708307587E+01  0.51091719517E+02  0.41800000000E+01 0. -1.
         -5    1    3    3    0  502 -0.85691316986E+02 -0.32347346703E+02  0.30387435833E+02  0.96593070673E+02  0.41800000000E+01 0. -1.
        -11    1    1    2    0    0  0.88152283607E+02 -0.10301311981E+02  0.63125181377E+02  0.10891157265E+03  0.00000000000E+00 0.  1.
         11    1    1    2    0    0 -0.15057464687E+02 -0.61942236857E+01 -0.13651329574E+02  0.21247457472E+02  0.00000000000E+00 0. -1.
</event>
<event>
 7    1  0.2641580E-009  0.1279721E+03  0.7561462E-02  0.1230496E+00
         -3   -1    0    0    0  501 -0.00000000000E+00  0.00000000000E+00  0.32014635202E+02  0.32014635202E+02  0.00000000000E+00 0.  1.
          3   -1    0    0  501    0  0.00000000000E+00 -0.00000000000E+00 -0.59384077258E+03  0.59384077258E+03  0.00000000000E+00 0. -1.
         25    2    1    2    0    0 -0.60648123439E+02  0.56708566199E+02 -0.34810779117E+03  0.37910386903E+03  0.12508658156E+03 0.  0.
          5    1    3    3  502    0 -0.89525804337E+02  0.56273280734E+02 -0.32525754025E+03  0.34204019012E+03  0.41800000000E+01 0. -1.
         -5    1    3    3    0  502  0.28877680898E+02  0.43528546472E+00 -0.22850250913E+02  0.37063678909E+02  0.41800000000E+01 0. -1.
        -11    1    1    2    0    0  0.15439526248E+02 -0.71672132842E+02 -0.15235592486E+03  0.16907868415E+03  0.00000000000E+00 0. -1.
         11    1    1    2    0    0  0.45208597192E+02  0.14963566643E+02 -0.61362421356E+02  0.77672854598E+02  0.00000000000E+00 0.  1.
</event>
<event>
 7    1  0.2641580E-009  0.9630295E+02  0.7561462E-02  0.1288268E+00
         -1   -1    0    0    0  501 -0.00000000000E+00  0.00000000000E+00  0.13638902177E+03  0.13638902177E+03  0.00000000000E+00 0.  1.
          1   -1    0    0  501    0  0.00000000000E+00 -0.00000000000E+00 -0.80203595940E+02  0.80203595940E+02  0.00000000000E+00 0. -1.
         25    2    1    2    0    0 -0.28884707350E+02 -0.11664654865E+02  0.62259174077E+01  0.12906312762E+03  0.12509251925E+03 0.  0.
          5    1    3    3  502    0  0.22097763496E+02  0.42074353223E+02 -0.18037323703E+02  0.51003723365E+02  0.41800000000E+01 0. -1.
         -5    1    3    3    0  502 -0.50982470846E+02 -0.53739008088E+02  0.24263241111E+02  0.78059404257E+02  0.41800000000E+01 0. -1.
        -11    1    1    2    0    0 -0.11470405211E+02  0.25567399530E+02  0.12281439652E+02  0.30595683917E+02  0.00000000000E+00 0. -1.
         11    1    1    2    0    0  0.40355112561E+02 -0.13902744665E+02  0.37678068775E+02  0.56933806176E+02  0.00000000000E+00 0.  1.
</event>
<event>
 6    1  0.2641580E-009  0.7372611E+02  0.7561462E-02  0.1347862E+00
         -2   -1    0    0    0  501 -0.00000000000E+00  0.00000000000E+00  0.19574527350E+03  0.19574527350E+03  0.00000000000E+00 0.  1.
          2   -1    0    0  501    0  0.00000000000E+00 -0.00000000000E+00 -0.64124529443E+02  0.64124529443E+02  0.00000000000E+00 0. -1.
          5    1    1    2  502    0 -0.24275825229E+02 -0.14828427331E+02 -0.32580566020E+02  0.43453004842E+02  0.41800000000E+01 0.  1.
         -5    1    1    2    0  502 -0.53208900130E+01  0.29833025100E+02  0.95681912750E+02  0.10045308400E+03  0.41800000000E+01 0.  1.
        -11    1    1    2    0    0 -0.20403917936E+02 -0.29664467159E+02  0.95035509100E+01  0.37237319437E+02  0.00000000000E+00 0. -1.
         11    1    1    2    0    0  0.50000633178E+02  0.14659869390E+02  0.59015846413E+02  0.78726394663E+02  0.00000000000E+00 0.  1.
</event>
<event>
 7    1  0.2641580E-009  0.2034628E+03  0.7561462E-02  0.1146850E+00
         -1   -1    0    0    0  501 -0.00000000000E+00  0.00000000000E+00  0.10470291413E+04  0.10470291413E+04  0.00000000000E+00 0.  1.
          1   -1    0    0  501    0  0.00000000000E+00 -0.00000000000E+00 -0.47653964825E+02  0.47653964825E+02  0.00000000000E+00 0. -1.
         25    2    1    2    0    0  0.55933507674E+01  0.19327199507E+03  0.58034462802E+03  0.62436708206E+03  0.12509602806E+03 0.  0.
          5    1    3    3  502    0 -0.13030639966E+02  0.19274516380E+03  0.41335992147E+03  0.45629419547E+03  0.41800000000E+01 0.  1.
         -5    1    3    3    0  502  0.18623990734E+02  0.52683126343E+00  0.16698470656E+03  0.16807288659E+03  0.41800000000E+01 0.  1.
        -11    1    1    2    0    0  0.84934572399E+01 -0.82694426769E+02  0.88158175532E+02  0.12117083373E+03  0.00000000000E+00 0. -1.
         11    1    1    2    0    0 -0.14086808007E+02 -0.11057756830E+03  0.33087237294E+03  0.34914519035E+03  0.00000000000E+00 0.  1.
</event>
<event>
 7    1  0.2641580E-009  0.8989691E+02  0.7561462E-02  0.1303102E+00
         -1   -1    0    0    0  501 -0.00000000000E+00  0.00000000000E+00  0.12136875733E+03  0.12136875733E+03  0.00000000000E+00 0.  1.
          1   -1    0    0  501    0  0.00000000000E+00 -0.00000000000E+00 -0.13570304443E+03  0.13570304443E+03  0.00000000000E+00 0. -1.
         25    2    1    2    0    0 -0.12886164368E+02 -0.53926214357E+02 -0.48011927105E+02  0.14500745222E+03  0.12509167130E+03 0.  0.
          5    1    3    3  502    0  0.58263691044E+01 -0.72854302300E+02 -0.76439821114E+02  0.10584051489E+03  0.41800000000E+01 0.  1.
         -5    1    3    3    0  502 -0.18712533472E+02  0.18928087942E+02  0.28427894009E+02  0.39166937331E+02  0.41800000000E+01 0.  1.
        -11    1    1    2    0    0 -0.22450136112E+02  0.14624383893E+02 -0.22460325057E+02  0.34962085426E+02  0.00000000000E+00 0. -1.
         11    1    1    2    0    0  0.35336300479E+02  0.39301830464E+02  0.56137965059E+02  0.77102264107E+02  0.00000000000E+00 0.  1.
</event>
<event>
 7    1  0.2641580E-009  0.1380948E+03  0.7561462E-02  0.1215916E+00
          1   -1    0    0  501    0  0.00000000000E+00  0.00000000000E+00  0.10316895811E+04  0.10316895811E+04  0.00000000000E+00 0. -1.
         -1   -1    0    0    0  501 -0.00000000000E+00 -0.00000000000E+00 -0.24420843496E+02  0.24420843496E+02  0.00000000000E+00 0.  1.
         25    2    1    2    0    0  0.92557348575E+02  0.45331495315E+02  0.70685445453E+03  0.72519888435E+03  0.12509354396E+03 0.  0.
          5    1    3    3  502    0  0.22674398696E+02  0.69387101529E+02  0.19958582197E+03  0.21255745328E+03  0.41800000000E+01 0.  1.
         -5    1    3    3    0  502  0.69882949879E+02 -0.24055606214E+02  0.50726863255E+03  0.51264143107E+03  0.41800000000E+01 0.  1.
        -11    1    1    2    0    0 -0.68618339345E+02  0.94471721251E+01  0.99089198539E+02  0.12089828296E+03  0.00000000000E+00 0.  1.
         11    1    1    2    0    0 -0.23939009230E+02 -0.54778667440E+02  0.20132508450E+03  0.21001325724E+03  0.00000000000E+00 0. -1.
</event>
<event>
 7    1  0.2641580E-009  0.1214311E+03  0.7561462E-02  0.1240755E+00
         -2   -1    0    0    0  501 -0.00000000000E+00  0.00000000000E+00  0.22864723439E+02  0.22864723439E+02  0.00000000000E+00 0.  1.
          2   -1    0    0  501    0  0.00000000000E+00 -0.00000000000E+00 -0.16177489344E+04  0.16177489344E+04  0.00000000000E+00 0. -1.
         25    2    1    2    0    0 -0.56033372508E+02  0.81197638514E+02 -0.13626458091E+04  0.13719272115E+04  0.12509147492E+03 0.  0.
          5    1    3    3  502    0 -0.57813685323E+02  0.35429868531E+02 -0.12233500817E+04  0.12252349133E+04  0.41800000000E+01 0.  1.
         -5    1    3    3    0  502  0.17803128150E+01  0.45767769983E+02 -0.13929572739E+03  0.14669229820E+03  0.41800000000E+01 0.  1.
        -11    1    1    2    0    0  0.58237200208E+01 -0.78432886806E+02 -0.10008749664E+03  0.12729155679E+03  0.00000000000E+00 0. -1.
         11    1    1    2    0    0  0.50209652487E+02 -0.27647517076E+01 -0.13215090519E+03  0.14139488957E+03  0.00000000000E+00 0.  1.
</event>
<event>
 7    1  0.2641580E-009  0.1269724E+03  0.7561462E-02  0.1232019E+00
         -1   -1    0    0    0  501 -0.00000000000E+00  0.00000000000E+00  0.37107985083E+03  0.37107985083E+03  0.00000000000E+00 0.  1.
          1   -1    0    0  501    0  0.00000000000E+00 -0.00000000000E+00 -0.47622445875E+02  0.47622445875E+02  0.00000000000E+00 0. -1.
         25    2    1    2    0    0 -0.26806216843E+01 -0.76919267401E+02  0.18514044341E+03  0.23632426814E+03  0.12509363092E+03 0.  0.
          5    1    3    3  502    0 -0.58177819255E+02 -0.24904485064E+02  0.48339502491E+02  0.79743789292E+02  0.41800000000E+01 0.  1.
         -5    1    3    3    0  502  0.55497197571E+02 -0.52014782337E+02  0.13680094092E+03  0.15658047885E+03  0.41800000000E+01 0.  1.
        -11    1    1    2    0    0 -0.30340224884E+02 -0.32208432321E+00  0.16890309694E+02  0.34726294733E+02  0.00000000000E+00 0. -1.
         11    1    1    2    0    0  0.33020846568E+02  0.77241351725E+02  0.12142665185E+03  0.14765173383E+03  0.00000000000E+00 0.  1.
</event>
<event>
 7    1  0.3071326E-009  0.2229764E+03  0.7561462E-02  0.1131683E+00
          1   -1    0    0  501    0  0.00000000000E+00  0.00000000000E+00  0.85014820951E+03  0.85014820951E+03  0.00000000000E+00 0. -1.
         -1   -1    0    0    0  501 -0.00000000000E+00 -0.00000000000E+00 -0.65716448691E+02  0.65716448691E+02  0.00000000000E+00 0.  1.
         25    2    1    2    0    0  0.14940984268E+03  0.14243360790E+03  0.33462502542E+03  0.41260071077E+03  0.12511916378E+03 0.  0.
          5    1    3    3  502    0  0.16243638567E+03  0.10425409705E+03  0.22938077482E+03  0.29981245538E+03  0.41800000000E+01 0. -1.
         -5    1    3    3    0  502 -0.13026542996E+02  0.38179510849E+02  0.10524425059E+03  0.11278825539E+03  0.41800000000E+01 0.  1.
        -11    1    1    2    0    0 -0.63497506414E+02 -0.94806358423E+02  0.15464405730E+03  0.19218471161E+03  0.00000000000E+00 0.  1.
         11    1    1    2    0    0 -0.85912336263E+02 -0.47627249477E+02  0.29516267810E+03  0.31107923582E+03  0.00000000000E+00 0. -1.
</event>
<event>
 7    1  0.2641580E-009  0.7707376E+02  0.7561462E-02  0.1337567E+00
          1   -1    0    0  501    0  0.00000000000E+00  0.00000000000E+00  0.20551317127E+03  0.20551317127E+03  0.00000000000E+00 0. -1.
         -1   -1    0    0    0  501 -0.00000000000E+00 -0.00000000000E+00 -0.70792126865E+02  0.70792126865E+02  0.00000000000E+00 0.  1.
         25    2    1    2    0    0 -0.23735753405E+02 -0.30825950985E+02  0.11108662583E+03  0.17176001314E+03  0.12509052096E+03 0.  0.
          5    1    3    3  502    0 -0.43463691171E+02 -0.34704638597E+02 -0.29837866995E+01  0.55855883964E+02  0.41800000000E+01 0.  1.
         -5    1    3    3    0  502  0.19727937766E+02  0.38786876121E+01  0.11407041253E+03  0.11590412918E+03  0.41800000000E+01 0.  1.
        -11    1    1    2    0    0  0.10202496274E+02  0.51843648035E+02  0.46710563137E+02  0.70524687028E+02  0.00000000000E+00 0. -1.
         11    1    1    2    0    0  0.13533257132E+02 -0.21017697050E+02 -0.23076144563E+02  0.34020597963E+02  0.00000000000E+00 0.  1.
</event>
<event>
 7    1  0.2641580E-009  0.8612155E+02  0.7561462E-02  0.1312525E+00
         -2   -1    0    0    0  501 -0.00000000000E+00  0.00000000000E+00  0.16750154743E+03  0.16750154743E+03  0.00000000000E+00 0.  1.
          2   -1    0    0  501    0  0.00000000000E+00 -0.00000000000E+00 -0.11430655694E+03  0.11430655694E+03  0.00000000000E+00 0. -1.
         25    2    1    2    0    0  0.79523905209E+01  0.56535475073E+02 -0.36948385224E+02  0.14237843156E+03  0.12508770582E+03 0.  0.
          5    1    3    3  502    0  0.32042449833E+02  0.36416319311E+02 -0.77135988775E+02  0.91215678849E+02  0.41800000000E+01 0.  1.
         -5    1    3    3    0  502 -0.24090059312E+02  0.20119155762E+02  0.40187603552E+02  0.51162752716E+02  0.41800000000E+01 0.  1.
        -11    1    1    2    0    0  0.19805029322E+02 -0.60678161783E+02  0.91232342266E+02  0.11134369663E+03  0.00000000000E+00 0.  1.
         11    1    1    2    0    0 -0.27757419843E+02  0.41426867099E+01 -0.10889665604E+01  0.28085976174E+02  0.00000000000E+00 0. -1.
</event>
<event>
 7    1  0.2641580E-009  0.8655346E+02  0.7561462E-02  0.1311419E+00
          1   -1    0    0  501    0  0.00000000000E+00  0.00000000000E+00  0.70478989870E+03  0.70478989870E+03  0.00000000000E+00 0. -1.
         -1   -1    0    0    0  501 -0.00000000000E+00 -0.00000000000E+00 -0.20970702295E+02  0.20970702295E+02  0.00000000000E+00 0.  1.
         25    2    1    2    0    0 -0.18234804021E+02  0.26562924593E+02  0.38575983297E+03  0.40681372203E+03  0.12509459884E+03 0.  0.
          5    1    3    3  502    0 -0.21191739040E+02  0.40448120183E+02  0.40328572666E+02  0.61065590992E+02  0.41800000000E+01 0.  1.
         -5    1    3    3    0  502  0.29569350192E+01 -0.13885195590E+02  0.34543126030E+03  0.34574813104E+03  0.41800000000E+01 0.  1.
        -11    1    1    2    0    0 -0.44888117286E+02 -0.26953179004E+01  0.14116662861E+03  0.14815608271E+03  0.00000000000E+00 0.  1.
         11    1    1    2    0    0  0.63122921306E+02 -0.23867606693E+02  0.15689273483E+03  0.17079079625E+03  0.00000000000E+00 0. -1.
</event>
<event>
 7    1  0.2641580E-009  0.8841888E+02  0.7561462E-02  0.1306726E+00
         -2   -1    0    0    0  501 -0.00000000000E+00  0.00000000000E+00  0.95570110217E+01  0.95570110217E+01  0.00000000000E+00 0.  1.
          2   -1    0    0  501    0  0.00000000000E+00 -0.00000000000E+00 -0.14249975011E+04  0.14249975011E+04  0.00000000000E+00 0. -1.
         25    2    1    2    0    0 -0.35552454410E+02 -0.22005695789E+02 -0.84754116877E+03  0.85774168904E+03  0.12508614914E+03 0.  0.
          5    1    3    3  502    0 -0.51693711410E+02 -0.50487633100E+01 -0.81871679264E+03  0.82037332280E+03  0.41800000000E+01 0. -1.
         -5    1    3    3    0  502  0.16141257000E+02 -0.16956932479E+02 -0.28824376129E+02  0.37368366246E+02  0.41800000000E+01 0. -1.
        -11    1    1    2    0    0 -0.29029709648E+02  0.21904474984E+02 -0.21446247471E+03  0.21752398287E+03  0.00000000000E+00 0. -1.
         11    1    1    2    0    0  0.64582164058E+02  0.10122080446E+00 -0.35343684658E+03  0.35928884018E+03  0.00000000000E+00 0.  1.
</event>
<event>
 7    1  0.2641580E-009  0.1266644E+03  0.7561462E-02  0.1232491E+00
         -2   -1    0    0    0  501 -0.00000000000E+00  0.00000000000E+00  0.54415613012E+02  0.54415613012E+02  0.00000000000E+00 0.  1.
          2   -1    0    0  501    0  0.00000000000E+00 -0.00000000000E+00 -0.38224592097E+03  0.38224592097E+03  0.00000000000E+00 0. -1.
         25    2    1    2    0    0 -0.91243448384E+02  0.86020604494E+01 -0.22212545379E+03  0.27089663027E+03  0.12508359106E+03 0.  0.
          5    1    3    3  502    0  0.24427386813E+02  0.22604950411E+02 -0.24854929511E+02  0.41748304523E+02  0.41800000000E+01 0.  1.
         -5    1    3    3    0  502 -0.11567083520E+03 -0.14002889961E+02 -0.19727052428E+03  0.22914832575E+03  0.41800000000E+01 0.  1.
        -11    1    1    2    0    0  0.73998717732E+02  0.13439464084E+02 -0.23297327082E+02  0.78734965993E+02  0.00000000000E+00 0.  1.
         11    1    1    2    0    0  0.17244730652E+02 -0.22041524533E+02 -0.82407527085E+02  0.87029937719E+02  0.00000000000E+00 0. -1.
</event>
<event>
 7    1  0.2641580E-009  0.1481414E+03  0.7561462E-02  0.1202776E+00
         -2   -1    0    0    0  501 -0.00000000000E+00  0.00000000000E+00  0.28462723319E+03  0.28462723319E+03  0.00000000000E+00 0.  1.
          2   -1    0    0  501    0  0.00000000000E+00 -0.00000000000E+00 -0.12258797424E+03  0.12258797424E+03  0.00000000000E+00 0. -1.
         25    2    1    2    0    0 -0.70180971783E+02 -0.76077657883E+02 -0.36555624123E+02  0.16642007991E+03  0.12508457344E+03 0.  0.
          5    1    3    3  502    0  0.35561417696E+02 -0.10119395405E+02 -0.13668287739E+02  0.39639766417E+02  0.41800000000E+01 0. -1.
         -5    1    3    3    0  502 -0.10574238948E+03 -0.65958262477E+02 -0.22887336384E+02  0.12678031349E+03  0.41800000000E+01 0. -1.
        -11    1    1    2    0    0  0.89800357561E+02  0.69929157880E+02  0.15221297185E+03  0.19006046443E+03  0.00000000000E+00 0. -1.
         11    1    1    2    0    0 -0.19619385778E+02  0.61485000030E+01  0.46381911226E+02  0.50734663097E+02  0.00000000000E+00 0.  1.
</event>
<event>
 7    1  0.2641580E-009  0.2380144E+03  0.7561462E-02  0.1121123E+00
          2   -1    0    0  501    0  0.00000000000E+00  0.00000000000E+00  0.61433345955E+03  0.61433345955E+03  0.00000000000E+00 0. -1.
         -2   -1    0    0    0  501 -0.00000000000E+00 -0.00000000000E+00 -0.97756224717E+02  0.97756224717E+02  0.00000000000E+00 0.  1.
         25    2    1    2    0    0 -0.14386427464E+03  0.16544192928E+03  0.21793031085E+03  0.33347831171E+03  0.12508478130E+03 0.  0.
          5    1    3    3  502    0 -0.11469647891E+03  0.37290283846E+02  0.11160088780E+03  0.16437176796E+03  0.41800000000E+01 0. -1.
         -5    1    3    3    0  502 -0.29167795730E+02  0.12815164543E+03  0.10632942305E+03  0.16910654375E+03  0.41800000000E+01 0. -1.
        -11    1    1    2    0    0  0.67818367586E+02 -0.44916579865E+02  0.61648335206E+02  0.10206540728E+03  0.00000000000E+00 0. -1.
         11    1    1    2    0    0  0.76045907053E+02 -0.12052534941E+03  0.23699858878E+03  0.27654596528E+03  0.00000000000E+00 0.  1.
</event>
<event>
 7    1  0.2641580E-009  0.1030980E+03  0.7561462E-02  0.1273913E+00
          1   -1    0    0  501    0  0.00000000000E+00  0.00000000000E+00  0.15554145151E+03  0.15554145151E+03  0.00000000000E+00 0. -1.
         -1   -1    0    0    0  501 -0.00000000000E+00 -0.00000000000E+00 -0.10798251492E+03  0.10798251492E+03  0.00000000000E+00 0.  1.
         25    2    1    2    0    0 -0.53314424049E+02  0.32276560976E+02  0.56290288192E+02  0.15068018261E+03  0.12510682111E+03 0.  0.
          5    1    3    3  502    0 -0.73957310743E+02 -0.16852722272E+02  0.60422298176E+02  0.97067113778E+02  0.41800000000E+01 0. -1.
         -5    1    3    3    0  502  0.20642886694E+02  0.49129283248E+02 -0.41320099844E+01  0.53613068836E+02  0.41800000000E+01 0. -1.
        -11    1    1    2    0    0 -0.58575162633E+00 -0.21870946753E+02 -0.42918435745E+02  0.48173369652E+02  0.00000000000E+00 0.  1.
         11    1    1    2    0    0  0.53900175675E+02 -0.10405614223E+02  0.34187084142E+02  0.64670414157E+02  0.00000000000E+00 0. -1.
</event>
<event>
 7    1  0.2641580E-009  0.1602198E+03  0.7561462E-02  0.1188449E+00
         -4   -1    0    0    0  501 -0.00000000000E+00  0.00000000000E+00  0.13141771240E+04  0.13141771240E+04  0.00000000000E+00 0.  1.
          4   -1    0    0  501    0  0.00000000000E+00 -0.00000000000E+00 -0.23148217877E+02  0.23148217877E+02  0.00000000000E+00 0. -1.
         25    2    1    2    0    0  0.11720661545E+03 -0.63391873206E+02  0.74477243406E+03  0.76687015813E+03  0.12509172876E+03 0.  0.
          5    1    3    3  502    0  0.57589397806E+02 -0.84038723189E+02  0.28338554496E+03  0.30117085720E+03  0.41800000000E+01 0. -1.
         -5    1    3    3    0  502  0.59617217641E+02  0.20646849983E+02  0.46138688910E+03  0.46569930093E+03  0.41800000000E+01 0. -1.
        -11    1    1    2    0    0 -0.10589400134E+03  0.16698496399E+02  0.27845516931E+03  0.29837838497E+03  0.00000000000E+00 0. -1.
         11    1    1    2    0    0 -0.11312614105E+02  0.46693376807E+02  0.26780130271E+03  0.27207679873E+03  0.00000000000E+00 0.  1.
</event>
<event>
 7    1  0.2641580E-009  0.1113466E+03  0.7561462E-02  0.1258096E+00
         -1   -1    0    0    0  501 -0.00000000000E+00  0.00000000000E+00  0.83614071584E+02  0.83614071584E+02  0.00000000000E+00 0.  1.
          1   -1    0    0  501    0  0.00000000000E+00 -0.00000000000E+00 -0.41783567255E+03  0.41783567255E+03  0.00000000000E+00 0. -1.
         25    2    1    2    0    0  0.59606578653E+02  0.70036002948E+02 -0.33972345497E+03  0.37352002211E+03  0.12508874901E+03 0.  0.
          5    1    3    3  502    0  0.43567567567E+01  0.73103350924E+02 -0.28958847712E+03  0.29873406188E+03  0.41800000000E+01 0.  1.
         -5    1    3    3    0  502  0.55249821897E+02 -0.30673479764E+01 -0.50134977851E+02  0.74785960229E+02  0.41800000000E+01 0.  1.
        -11    1    1    2    0    0 -0.12923974757E+02 -0.28778215310E+02  0.44411854361E+02  0.54475936042E+02  0.00000000000E+00 0.  1.
         11    1    1    2    0    0 -0.46682603897E+02 -0.41257787638E+02 -0.38910000350E+02  0.73453785979E+02  0.00000000000E+00 0. -1.
</event>
<event>
 7    1  0.2641580E-009  0.9407861E+02  0.7561462E-02  0.1293265E+00
          1   -1    0    0  501    0  0.00000000000E+00  0.00000000000E+00  0.11602415626E+04  0.11602415626E+04  0.00000000000E+00 0. -1.
         -1   -1    0    0    0  501 -0.00000000000E+00 -0.00000000000E+00 -0.14552018246E+02  0.14552018246E+02  0.00000000000E+00 0.  1.
         25    2    1    2    0    0 -0.34704411122E+02 -0.23396760000E+01  0.92299381174E+03  0.93207424671E+03  0.12503981219E+03 0.  0.
          5    1    3    3  502    0  0.25920652326E+02 -0.30901638696E+02  0.12845480548E+03  0.13470301014E+03  0.41800000000E+01 0.  1.
         -5    1    3    3    0  502 -0.60625063449E+02  0.28561962696E+02  0.79453900626E+03  0.79737123657E+03  0.41800000000E+01 0.  1.
        -11    1    1    2    0    0 -0.15885926343E+02  0.21180863349E+02  0.14917926275E+03  0.15151054109E+03  0.00000000000E+00 0. -1.
         11    1    1    2    0    0  0.50590337465E+02 -0.18841187349E+02  0.73516469824E+02  0.91208793002E+02  0.00000000000E+00 0.  1.
</event>
<event>
 7    1  0.2641580E-009  0.3718464E+03  0.7561462E-02  0.1053989E+00
          4   -1    0    0  501    0  0.00000000000E+00  0.00000000000E+00  0.15062728393E+03  0.15062728393E+03  0.00000000000E+00 0. -1.
         -4   -1    0    0    0  501 -0.00000000000E+00 -0.00000000000E+00 -0.11057691153E+04  0.11057691153E+04  0.00000000000E+00 0.  1.
         25    2    1    2    0    0 -0.36403248353E+03  0.20434423886E+02 -0.70926433800E+03  0.80724242528E+03  0.12508883755E+03 0.  0.
          5    1    3    3  502    0 -0.35577025171E+03  0.38976447316E+02 -0.69598847083E+03  0.78262957993E+03  0.41800000000E+01 0. -1.
         -5    1    3    3    0  502 -0.82622318277E+01 -0.18542023430E+02 -0.13275867163E+02  0.24612845357E+02  0.41800000000E+01 0. -1.
        -11    1    1    2    0    0  0.17022217282E+03 -0.61841740011E+00 -0.61712303391E+02  0.18106457122E+03  0.00000000000E+00 0.  1.
         11    1    1    2    0    0  0.19381031071E+03 -0.19816006486E+02 -0.18416518999E+03  0.26808940273E+03  0.00000000000E+00 0. -1.
</event>
<event>
 7    1  0.2641580E-009  0.1124618E+03  0.7561462E-02  0.1256078E+00
          1   -1    0    0  501    0  0.00000000000E+00  0.00000000000E+00  0.33315190692E+03  0.33315190692E+03  0.00000000000E+00 0. -1.
         -1   -1    0    0    0  501 -0.00000000000E+00 -0.00000000000E+00 -0.50389151276E+02  0.50389151276E+02  0.00000000000E+00 0.  1.
         25    2    1    2    0    0 -0.36949978017E+02 -0.62818326050E+02  0.15608721817E+03  0.21288991513E+03  0.12508978106E+03 0.  0.
          5    1    3    3  502    0 -0.38641568105E+02  0.13780024695E+02  0.26333907347E+01  0.41321507874E+02  0.41800000000E+01 0.  1.
         -5    1    3    3    0  502  0.16915900873E+01 -0.76598350745E+02  0.15345382744E+03  0.17156840726E+03  0.41800000000E+01 0.  1.
        -11    1    1    2    0    0 -0.23362177372E+02  0.30839884031E+02  0.18861939159E+02  0.43042566460E+02  0.00000000000E+00 0.  1.
         11    1    1    2    0    0  0.60312155390E+02  0.31978442019E+02  0.10781359831E+03  0.12760857660E+03  0.00000000000E+00 0. -1.
</event>
<event>
 7    1  0.2641580E-009  0.1119360E+03  0.7561462E-02  0.1257026E+00
         -2   -1    0    0    0  501 -0.00000000000E+00  0.00000000000E+00  0.14303603669E+02  0.14303603669E+02  0.00000000000E+00 0.  1.
          2   -1    0    0  501    0  0.00000000000E+00 -0.00000000000E+00 -0.11981394654E+04  0.11981394654E+04  0.00000000000E+00 0. -1.
         25    2    1    2    0    0  0.75750440381E+01 -0.71290743811E+02 -0.76251610221E+03  0.77602786362E+03  0.12509471425E+03 0.  0.
          5    1    3    3  502    0  0.42995555948E+02 -0.19970846276E+02 -0.10193970014E+03  0.11250167731E+03  0.41800000000E+01 0. -1.
         -5    1    3    3    0  502 -0.35420511910E+02 -0.51319897535E+02 -0.66057640207E+03  0.66352618631E+03  0.41800000000E+01 0. -1.
        -11    1    1    2    0    0 -0.25808906900E+02 -0.12042002223E+02 -0.10715241941E+03  0.11087267688E+03  0.00000000000E+00 0.  1.
         11    1    1    2    0    0  0.18233862862E+02  0.83332746034E+02 -0.31416734009E+03  0.32554252855E+03  0.00000000000E+00 0. -1.
</event>
<event>
 7    1  0.2641580E-009  0.8779571E+02  0.7561462E-02  0.1308279E+00
          1   -1    0    0  501    0  0.00000000000E+00  0.00000000000E+00  0.38645896967E+02  0.38645896967E+02  0.00000000000E+00 0.  1.
         -1   -1    0    0    0  501 -0.00000000000E+00 -0.00000000000E+00 -0.32291459940E+03  0.32291459940E+03  0.00000000000E+00 0. -1.
         25    2    1    2    0    0 -0.22883760630E+02  0.11796257028E+02 -0.13810928058E+03  0.18811129592E+03  0.12509543593E+03 0.  0.
          5    1    3    3  502    0  0.45831729190E+02 -0.20183937800E+02 -0.69690162850E+02  0.85919322295E+02  0.41800000000E+01 0. -1.
         -5    1    3    3    0  502 -0.68715489821E+02  0.31980194828E+02 -0.68419117730E+02  0.10219197363E+03  0.41800000000E+01 0. -1.
        -11    1    1    2    0    0  0.20135306750E+02  0.13333853906E+02  0.96443356440E+00  0.24169244299E+02  0.00000000000E+00 0.  1.
         11    1    1    2    0    0  0.27484538806E+01 -0.25130110934E+02 -0.14712385542E+03  0.14927995615E+03  0.00000000000E+00 0. -1.
</event>
<event>
 7    1  0.2641580E-009  0.1230059E+03  0.7561462E-02  0.1238219E+00
          1   -1    0    0  501    0  0.00000000000E+00  0.00000000000E+00  0.33294319602E+03  0.33294319602E+03  0.00000000000E+00 0. -1.
         -1   -1    0    0    0  501 -0.00000000000E+00 -0.00000000000E+00 -0.97937365539E+02  0.97937365539E+02  0.00000000000E+00 0.  1.
         25    2    1    2    0    0  0.70372901106E+02  0.87611114021E+01  0.27297094887E+03  0.30852727110E+03  0.12508731271E+03 0.  0.
          5    1    3    3  502    0  0.29748240988E+02 -0.51805445865E+02  0.18349213293E+03  0.19301709072E+03  0.41800000000E+01 0.  1.
         -5    1    3    3    0  502  0.40624660118E+02  0.60566557267E+02  0.89478815942E+02  0.11551018038E+03  0.41800000000E+01 0.  1.
        -11    1    1    2    0    0 -0.78987606576E+02 -0.34308494923E+02 -0.40707499379E+02  0.95253426827E+02  0.00000000000E+00 0.  1.
         11    1    1    2    0    0  0.86147054699E+01  0.25547383521E+02  0.27423809820E+01  0.27099863626E+02  0.00000000000E+00 0. -1.
</event>
<event>
 7    1  0.2949682E-009  0.1015114E+03  0.7561462E-02  0.1277149E+00
          2   -1    0    0  501    0  0.00000000000E+00  0.00000000000E+00  0.76468334654E+02  0.76468334654E+02  0.00000000000E+00 0. -1.
         -2   -1    0    0    0  501 -0.00000000000E+00 -0.00000000000E+00 -0.19234127931E+03  0.19234127931E+03  0.00000000000E+00 0.  1.
         25    2    1    2    0    0  0.15222439190E+02  0.38920170890E+02 -0.26712346715E+02  0.13456335354E+03  0.12508894552E+03 0.  0.
          5    1    3    3  502    0  0.65554994068E+02  0.33753823540E+02  0.61146399655E+01  0.74105594072E+02  0.41800000000E+01 0.  1.
         -5    1    3    3    0  502 -0.50332554878E+02  0.51663473495E+01 -0.32826986680E+02  0.60457759469E+02  0.41800000000E+01 0.  1.
        -11    1    1    2    0    0  0.26240728131E+02 -0.19021941220E+02  0.16519385500E+01  0.32452102576E+02  0.00000000000E+00 0. -1.
         11    1    1    2    0    0 -0.41463167321E+02 -0.19898229670E+02 -0.90812536491E+02  0.10179415785E+03  0.00000000000E+00 0.  1.
</event>
<event>
 6    1  0.2641580E-009  0.1018022E+03  0.7561462E-02  0.1276551E+00
         -2   -1    0    0    0  501 -0.00000000000E+00  0.00000000000E+00  0.96672764432E+02  0.96672764432E+02  0.00000000000E+00 0.  1.
          2   -1    0    0  501    0  0.00000000000E+00 -0.00000000000E+00 -0.18636241920E+03  0.18636241920E+03  0.00000000000E+00 0. -1.
          5    1    1    2  502    0 -0.18605829840E+02 -0.43451837334E+02  0.13386956614E+02  0.49304381946E+02  0.41800000000E+01 0. -1.
         -5    1    1    2    0  502  0.71216707942E+02 -0.10086495655E+02 -0.90400463460E+02  0.11559962404E+03  0.41800000000E+01 0. -1.
        -11    1    1    2    0    0 -0.91854535183E+01 -0.55818128638E+01 -0.38801527271E+02  0.40262733511E+02  0.00000000000E+00 0. -1.
         11    1    1    2    0    0 -0.43425424584E+02  0.59120145853E+02  0.26125379348E+02  0.77868444135E+02  0.00000000000E+00 0.  1.
</event>
<event>
 7    1  0.2641580E-009  0.1078466E+03  0.7561462E-02  0.1264610E+00
          1   -1    0    0  501    0  0.00000000000E+00  0.00000000000E+00  0.51366845773E+03  0.51366845773E+03  0.00000000000E+00 0. -1.
         -1   -1    0    0    0  501 -0.00000000000E+00 -0.00000000000E+00 -0.44122247618E+02  0.44122247618E+02  0.00000000000E+00 0.  1.
         25    2    1    2    0    0 -0.28327280600E+02 -0.95134560698E+02  0.32786932061E+03  0.36469047520E+03  0.12509129403E+03 0.  0.
          5    1    3    3  502    0 -0.26076033340E+02 -0.47680421040E+02  0.28425103463E+02  0.61472278078E+02  0.41800000000E+01 0. -1.
         -5    1    3    3    0  502 -0.22512472597E+01 -0.47454139659E+02  0.29944421715E+03  0.30321819712E+03  0.41800000000E+01 0. -1.
        -11    1    1    2    0    0 -0.80989554667E+01  0.66954339129E+02  0.12862234612E+03  0.14523148601E+03  0.00000000000E+00 0. -1.
         11    1    1    2    0    0  0.36426236066E+02  0.28180221570E+02  0.13054543376E+02  0.47868744128E+02  0.00000000000E+00 0.  1.
</event>
<event>
 7    1  0.2641580E-009  0.8277821E+02  0.7561462E-02  0.1321347E+00
         -1   -1    0    0    0  501 -0.00000000000E+00  0.00000000000E+00  0.41584897790E+03  0.41584897790E+03  0.00000000000E+00 0.  1.
          1   -1    0    0  501    0  0.00000000000E+00 -0.00000000000E+00 -0.34425160819E+02  0.34425160819E+02  0.00000000000E+00 0. -1.
         25    2    1    2    0    0  0.35279534269E+02  0.17881393316E+02  0.27425018603E+03  0.30401498947E+03  0.12509020554E+03 0.  0.
          5    1    3    3  502    0  0.33708629929E+02 -0.14541802093E+02  0.26819760705E+03  0.27073079723E+03  0.41800000000E+01 0.  1.
         -5    1    3    3    0  502  0.15709043399E+01  0.32423195410E+02  0.60525789771E+01  0.33284192243E+02  0.41800000000E+01 0.  1.
        -11    1    1    2    0    0  0.21631985358E+02  0.18388852560E+02  0.15267693670E+02  0.32236550048E+02  0.00000000000E+00 0. -1.
         11    1    1    2    0    0 -0.56911519627E+02 -0.36270245877E+02  0.91905937388E+02  0.11402259920E+03  0.00000000000E+00 0.  1.
</event>
<event>
 7    1  0.2641580E-009  0.2538980E+03  0.7561462E-02  0.1110866E+00
          2   -1    0    0  501    0  0.00000000000E+00  0.00000000000E+00  0.23966673270E+04  0.23966673270E+04  0.00000000000E+00 0. -1.
         -2   -1    0    0    0  501 -0.00000000000E+00 -0.00000000000E+00 -0.34335540609E+02  0.34335540609E+02  0.00000000000E+00 0.  1.
         25    2    1    2    0    0 -0.14438164451E+03  0.19961420029E+03  0.16291033997E+04  0.16523672258E+04  0.12509066116E+03 0.  0.
          5    1    3    3  502    0 -0.12102243684E+03  0.13032793905E+03  0.77625412957E+03  0.79637914839E+03  0.41800000000E+01 0. -1.
         -5    1    3    3    0  502 -0.23359207672E+02  0.69286261244E+02  0.85284927015E+03  0.85598807736E+03  0.41800000000E+01 0. -1.
        -11    1    1    2    0    0  0.55306038263E+02 -0.25124654879E+02  0.24843135976E+03  0.25575016454E+03  0.00000000000E+00 0.  1.
         11    1    1    2    0    0  0.89075606251E+02 -0.17448954541E+03  0.48479702686E+03  0.52288547727E+03  0.00000000000E+00 0. -1.
</event>
<event>
 7    1  0.2641580E-009  0.1311502E+03  0.7561462E-02  0.1225759E+00
          1   -1    0    0  501    0  0.00000000000E+00  0.00000000000E+00  0.62574314570E+02  0.62574314570E+02  0.00000000000E+00 0. -1.
         -1   -1    0    0    0  501 -0.00000000000E+00 -0.00000000000E+00 -0.52793618548E+03  0.52793618548E+03  0.00000000000E+00 0.  1.
         25    2    1    2    0    0 -0.84342281620E+02 -0.79532019010E+02 -0.10289751911E+03  0.19918626719E+03  0.12509319358E+03 0.  0.
          5    1    3    3  502    0 -0.73103033845E+02 -0.73055944521E+02 -0.13161719398E+03  0.16739708104E+03  0.41800000000E+01 0.  1.
         -5    1    3    3    0  502 -0.11239247775E+02 -0.64760744890E+01  0.28719674871E+02  0.31789186149E+02  0.41800000000E+01 0.  1.
        -11    1    1    2    0    0  0.93117917907E+02  0.91398563766E+02 -0.34238415226E+03  0.36640353684E+03  0.00000000000E+00 0.  1.
         11    1    1    2    0    0 -0.87756362877E+01 -0.11866544756E+02 -0.20080199544E+02  0.24920696026E+02  0.00000000000E+00 0. -1.
</event>
<event>
 7    1  0.2641580E-009  0.8993476E+02  0.7561462E-02  0.1303010E+00
          1   -1    0    0  501    0  0.00000000000E+00  0.00000000000E+00  0.14585186170E+03  0.14585186170E+03  0.00000000000E+00 0. -1.
         -1   -1    0    0    0  501 -0.00000000000E+00 -0.00000000000E+00 -0.12020254968E+03  0.12020254968E+03  0.00000000000E+00 0.  1.
         25    2    1    2    0    0 -0.34718662288E+02  0.17811207805E+02  0.79340638818E+02  0.15318735302E+03  0.12509517786E+03 0.  0.
          5    1    3    3  502    0  0.35429904964E+02  0.17237654385E+02  0.72447993355E+02  0.82574808723E+02  0.41800000000E+01 0. -1.
         -5    1    3    3    0  502 -0.70148567252E+02  0.57355342038E+00  0.68926454627E+01  0.70612544300E+02  0.41800000000E+01 0. -1.
        -11    1    1    2    0    0 -0.77313850754E+01  0.14628790290E+02  0.17352129204E+02  0.23976492830E+02  0.00000000000E+00 0. -1.
         11    1    1    2    0    0  0.42450047364E+02 -0.32439998095E+02 -0.71043456011E+02  0.88890565527E+02  0.00000000000E+00 0.  1.
</event>
<event>
 7    1  0.2641580E-009  0.1026878E+03  0.7561462E-02  0.1274743E+00
          4   -1    0    0  501    0  0.00000000000E+00  0.00000000000E+00  0.18092019847E+03  0.18092019847E+03  0.00000000000E+00 0. -1.
         -4   -1    0    0    0  501 -0.00000000000E+00 -0.00000000000E+00 -0.12012735575E+03  0.12012735575E+03  0.00000000000E+00 0.  1.
         25    2    1    2    0    0  0.60359916681E+02 -0.91550366145E+01 -0.48688065270E+02  0.14745830187E+03  0.12508512642E+03 0.  0.
          5    1    3    3  502    0  0.18008509344E+02 -0.53931585892E+02  0.14773438873E+02  0.58895239721E+02  0.41800000000E+01 0. -1.
         -5    1    3    3    0  502  0.42351407338E+02  0.44776549278E+02 -0.63461504143E+02  0.88563062147E+02  0.41800000000E+01 0. -1.
        -11    1    1    2    0    0 -0.45825581268E+02 -0.23020824185E+02  0.16090685598E+02  0.53748045617E+02  0.00000000000E+00 0.  1.
         11    1    1    2    0    0 -0.14534335414E+02  0.32175860799E+02  0.93390222392E+02  0.99841206736E+02  0.00000000000E+00 0. -1.
</event>
<event>
 7    1  0.2641580E-009  0.1956331E+03  0.7561462E-02  0.1153477E+00
          1   -1    0    0  501    0  0.00000000000E+00  0.00000000000E+00  0.20754137401E+03  0.20754137401E+03  0.00000000000E+00 0. -1.
         -1   -1    0    0    0  501 -0.00000000000E+00 -0.00000000000E+00 -0.20274387566E+03  0.20274387566E+03  0.00000000000E+00 0.  1.
         25    2    1    2    0    0 -0.11433981701E+03  0.11850813805E+03  0.58838108655E+02  0.21499562235E+03  0.12507366655E+03 0.  0.
          5    1    3    3  502    0 -0.20979276550E+02  0.11027567324E+03  0.40465345088E+02  0.11939753224E+03  0.41800000000E+01 0.  1.
         -5    1    3    3    0  502 -0.93360540458E+02  0.82324648132E+01  0.18372763567E+02  0.95598090109E+02  0.41800000000E+01 0.  1.
        -11    1    1    2    0    0  0.12662578383E+03 -0.93996119517E+02 -0.57058874074E+02  0.16770532110E+03  0.00000000000E+00 0.  1.
         11    1    1    2    0    0 -0.12285966819E+02 -0.24512018535E+02  0.30182637779E+01  0.27584306219E+02  0.00000000000E+00 0. -1.
</event>
<event>
 7    1  0.2641580E-009  0.1470652E+03  0.7561462E-02  0.1204126E+00
          1   -1    0    0  501    0  0.00000000000E+00  0.00000000000E+00  0.32880295887E+03  0.32880295887E+03  0.00000000000E+00 0. -1.
         -1   -1    0    0    0  501 -0.00000000000E+00 -0.00000000000E+00 -0.96106443513E+02  0.96106443513E+02  0.00000000000E+00 0.  1.
         25    2    1    2    0    0 -0.11531873862E+03  0.62929349571E+02  0.70216250651E+02  0.19451284110E+03  0.12508560661E+03 0.  0.
          5    1    3    3  502    0 -0.47641408891E+02  0.30759449401E+02  0.98970553276E+02  0.11414241273E+03  0.41800000000E+01 0. -1.
         -5    1    3    3    0  502 -0.67677329729E+02  0.32169900171E+02 -0.28754302624E+02  0.80370428366E+02  0.41800000000E+01 0. -1.
        -11    1    1    2    0    0  0.15911488607E+02  0.24912351418E+02  0.19823492166E+02  0.35591734497E+02  0.00000000000E+00 0.  1.
         11    1    1    2    0    0  0.99407250013E+02 -0.87841700989E+02  0.14265677254E+03  0.19480482678E+03  0.00000000000E+00 0. -1.
</event>
<event>
 7    1  0.2641580E-009  0.1022531E+03  0.7561462E-02  0.1275628E+00
          2   -1    0    0  501    0  0.00000000000E+00  0.00000000000E+00  0.11382986367E+03  0.11382986367E+03  0.00000000000E+00 0. -1.
         -2   -1    0    0    0  501 -0.00000000000E+00 -0.00000000000E+00 -0.13215301342E+03  0.13215301342E+03  0.00000000000E+00 0.  1.
         25    2    1    2    0    0  0.41775443552E+02 -0.21369493718E+02  0.32333503399E+01  0.13364002682E+03  0.12508940510E+03 0.  0.
          5    1    3    3  502    0  0.47710361374E+02  0.35821380879E+02 -0.30197242439E+02  0.66998475814E+02  0.41800000000E+01 0.  1.
         -5    1    3    3    0  502 -0.59349178221E+01 -0.57190874597E+02  0.33430592779E+02  0.66641551004E+02  0.41800000000E+01 0.  1.
        -11    1    1    2    0    0  0.21292963917E+02  0.44939395715E+01 -0.39092575235E+02  0.44741649989E+02  0.00000000000E+00 0.  1.
         11    1    1    2    0    0 -0.63068407469E+02  0.16875554146E+02  0.17536075146E+02  0.67601200285E+02  0.00000000000E+00 0. -1.
</event>
<event>
 7    1  0.2641580E-009  0.9779695E+02  0.7561462E-02  0.1284998E+00
          2   -1    0    0  501    0  0.00000000000E+00  0.00000000000E+00  0.11410215123E+03  0.11410215123E+03  0.00000000000E+00 0. -1.
         -2   -1    0    0    0  501 -0.00000000000E+00 -0.00000000000E+00 -0.24342784897E+03  0.24342784897E+03  0.00000000000E+00 0.  1.
         25    2    1    2    0    0 -0.28314277045E+01  0.34460585799E+02  0.60904582158E+02  0.14336215367E+03  0.12509112686E+03 0.  0.
          5    1    3    3  502    0 -0.54702468526E+02  0.49569807001E+02  0.23751267230E+02  0.77660291810E+02  0.41800000000E+01 0.  1.
         -5    1    3    3    0  502  0.51871040821E+02 -0.15109221202E+02  0.37153314928E+02  0.65701861856E+02  0.41800000000E+01 0.  1.
        -11    1    1    2    0    0 -0.13278545747E+02 -0.45851955874E+02 -0.18839896365E+03  0.19435249198E+03  0.00000000000E+00 0.  1.
         11    1    1    2    0    0  0.16109973452E+02  0.11391370075E+02 -0.18313162553E+01  0.19815354553E+02  0.00000000000E+00 0. -1.
</event>
<event>
 6    1  0.2641580E-009  0.1282945E+03  0.7561462E-02  0.1230009E+00
         -2   -1    0    0    0  501 -0.00000000000E+00  0.00000000000E+00  0.13124749878E+03  0.13124749878E+03  0.00000000000E+00 0.  1.
          2   -1    0    0  501    0  0.00000000000E+00 -0.00000000000E+00 -0.14210924306E+03  0.14210924306E+03  0.00000000000E+00 0. -1.
          5    1    1    2  502    0  0.85842367107E+02 -0.57813622374E+02  0.29938746173E+01  0.10362317602E+03  0.41800000000E+01 0.  1.
         -5    1    1    2    0  502 -0.36365758340E+02 -0.49200482418E+01 -0.28905400934E+02  0.46900638135E+02  0.41800000000E+01 0.  1.
        -11    1    1    2    0    0 -0.47848431817E+02 -0.51921967201E+01  0.24880612602E+02  0.54180035231E+02  0.00000000000E+00 0.  1.
         11    1    1    2    0    0 -0.16281769501E+01  0.67925867335E+02 -0.98308305622E+01  0.68652892459E+02  0.00000000000E+00 0. -1.
</event>
<event>
 7    1  0.2641580E-009  0.1278473E+03  0.7561462E-02  0.1230685E+00
         -2   -1    0    0    0  501 -0.00000000000E+00  0.00000000000E+00  0.12560879344E+03  0.12560879344E+03  0.00000000000E+00 0.  1.
          2   -1    0    0  501    0  0.00000000000E+00 -0.00000000000E+00 -0.24945309371E+03  0.24945309371E+03  0.00000000000E+00 0. -1.
         25    2    1    2    0    0  0.11168912821E+03 -0.32696108689E+00  0.23551700180E+02  0.16934112649E+03  0.12508863367E+03 0.  0.
          5    1    3    3  502    0  0.99688171735E+02  0.66128033110E+01  0.69099640544E+02  0.12154708337E+03  0.41800000000E+01 0. -1.
         -5    1    3    3    0  502  0.12000956477E+02 -0.69397643979E+01 -0.45547940365E+02  0.47794043120E+02  0.41800000000E+01 0. -1.
        -11    1    1    2    0    0 -0.12530896453E+03 -0.74615489234E+01 -0.11742454806E+03  0.17189105791E+03  0.00000000000E+00 0.  1.
         11    1    1    2    0    0  0.13619836314E+02  0.77885100102E+01 -0.29971452403E+02  0.33829702755E+02  0.00000000000E+00 0. -1.
</event>
<event>
 7    1  0.2641580E-009  0.1199452E+03  0.7561462E-02  0.1243187E+00
          2   -1    0    0  501    0  0.00000000000E+00  0.00000000000E+00  0.73613665017E+02  0.73613665017E+02  0.00000000000E+00 0. -1.
         -2   -1    0    0    0  501 -0.00000000000E+00 -0.00000000000E+00 -0.25414277124E+03  0.25414277124E+03  0.00000000000E+00 0.  1.
         25    2    1    2    0    0 -0.44357052420E+02  0.63973777498E+02 -0.13151414725E+03  0.19749335240E+03  0.12508981177E+03 0.  0.
          5    1    3    3  502    0  0.28758432996E+02  0.19411432604E+02  0.59876275524E+01  0.35456667467E+02  0.41800000000E+01 0. -1.
         -5    1    3    3    0  502 -0.73115485416E+02  0.44562344894E+02 -0.13750177480E+03  0.16203668493E+03  0.41800000000E+01 0. -1.
        -11    1    1    2    0    0 -0.23572823632E+01 -0.71810063567E+02 -0.19481092690E+02  0.74442964625E+02  0.00000000000E+00 0. -1.
         11    1    1    2    0    0  0.46714334783E+02  0.78362860693E+01 -0.29533866286E+02  0.55820119235E+02  0.00000000000E+00 0.  1.
</event>
<event>
 7    1  0.2641580E-009  0.8712248E+02  0.7561462E-02  0.1309974E+00
          1   -1    0    0  501    0  0.00000000000E+00  0.00000000000E+00  0.74732433593E+02  0.74732433593E+02  0.00000000000E+00 0. -1.
         -1   -1    0    0    0  501 -0.00000000000E+00 -0.00000000000E+00 -0.17078044115E+03  0.17078044115E+03  0.00000000000E+00 0.  1.
         25    2    1    2    0    0 -0.99333070054E+01 -0.15124219776E+02 -0.76940656951E+02  0.14796759716E+03  0.12508849869E+03 0.  0.
          5    1    3    3  502    0 -0.57035036541E+02 -0.39538837177E+01 -0.80974948950E+02  0.99212112905E+02  0.41800000000E+01 0.  1.
         -5    1    3    3    0  502  0.47101729536E+02 -0.11170336058E+02  0.40342919991E+01  0.48755484254E+02  0.41800000000E+01 0.  1.
        -11    1    1    2    0    0 -0.20735380583E+02 -0.14806141788E+02 -0.41876603872E+02  0.49018647415E+02  0.00000000000E+00 0.  1.
         11    1    1    2    0    0  0.30668687588E+02  0.29930361564E+02  0.22769253262E+02  0.48526630172E+02  0.00000000000E+00 0. -1.
</event>
<event>
 7    1  0.2641580E-009  0.9309020E+02  0.7561462E-02  0.1295536E+00
          1   -1    0    0  501    0  0.00000000000E+00  0.00000000000E+00  0.26697203542E+02  0.26697203542E+02  0.00000000000E+00 0. -1.
         -1   -1    0    0    0  501 -0.00000000000E+00 -0.00000000000E+00 -0.46697960077E+03  0.46697960077E+03  0.00000000000E+00 0.  1.
         25    2    1    2    0    0  0.11614021356E+02 -0.24774633194E+02 -0.25933631146E+03  0.28923029764E+03  0.12510065823E+03 0.  0.
          5    1    3    3  502    0  0.15992306497E+02  0.43696449521E+02 -0.47939773440E+02  0.66938985989E+02  0.41800000000E+01 0. -1.
         -5    1    3    3    0  502 -0.43782851408E+01 -0.68471082715E+02 -0.21139653802E+03  0.22229131165E+03  0.41800000000E+01 0. -1.
        -11    1    1    2    0    0  0.23873869256E+02 -0.50094400185E+01 -0.14153338556E+03  0.14362017738E+03  0.00000000000E+00 0.  1.
         11    1    1    2    0    0 -0.35487890612E+02  0.29784073212E+02 -0.39412700205E+02  0.60826329288E+02  0.00000000000E+00 0. -1.
</event>
<event>
 7    1  0.2641580E-009  0.2336129E+03  0.7561462E-02  0.1124122E+00
         -1   -1    0    0    0  501 -0.00000000000E+00  0.00000000000E+00  0.61803391434E+03  0.61803391434E+03  0.00000000000E+00 0.  1.
          1   -1    0    0  501    0  0.00000000000E+00 -0.00000000000E+00 -0.13960594937E+03  0.13960594937E+03  0.00000000000E+00 0. -1.
         25    2    1    2    0    0  0.12734655217E+01  0.23122949448E+03  0.54974195945E+02  0.26858666342E+03  0.12509169723E+03 0.  0.
          5    1    3    3  502    0 -0.55108370013E+01  0.22037361300E+03  0.89836655161E+01  0.22066507942E+03  0.41800000000E+01 0. -1.
         -5    1    3    3    0  502  0.67843025230E+01  0.10855881480E+02  0.45990530429E+02  0.47921583995E+02  0.41800000000E+01 0. -1.
        -11    1    1    2    0    0 -0.14200799231E+02 -0.17524597030E+03  0.37391499296E+03  0.41318910291E+03  0.00000000000E+00 0.  1.
         11    1    1    2    0    0  0.12927333709E+02 -0.55983524179E+02  0.49538776071E+02  0.75864097378E+02  0.00000000000E+00 0. -1.
</event>
<event>
 7    1  0.2641580E-009  0.6361076E+02  0.7561462E-02  0.1383275E+00
         -3   -1    0    0    0  501 -0.00000000000E+00  0.00000000000E+00  0.26442820684E+03  0.26442820684E+03  0.00000000000E+00 0.  1.
          3   -1    0    0  501    0  0.00000000000E+00 -0.00000000000E+00 -0.61887183390E+02  0.61887183390E+02  0.00000000000E+00 0. -1.
         25    2    1    2    0    0  0.21789685032E+02  0.48490492333E+02  0.59172459222E+02  0.14823990542E+03  0.12509025305E+03 0.  0.
          5    1    3    3  502    0  0.70929076549E+01  0.35065883534E+02  0.97998849285E+02  0.10440867966E+03  0.41800000000E+01 0. -1.
         -5    1    3    3    0  502  0.14696777377E+02  0.13424608798E+02 -0.38826390063E+02  0.43831225764E+02  0.41800000000E+01 0. -1.
        -11    1    1    2    0    0 -0.32780515869E+02 -0.15830089147E+02  0.13858337929E+03  0.14328470595E+03  0.00000000000E+00 0.  1.
         11    1    1    2    0    0  0.10990830837E+02 -0.32660403186E+02  0.47851849371E+01  0.34790778859E+02  0.00000000000E+00 0. -1.
</event>
<event>
 7    1  0.2641580E-009  0.1229890E+03  0.7561462E-02  0.1238246E+00
         -1   -1    0    0    0  501 -0.00000000000E+00  0.00000000000E+00  0.10165762210E+04  0.10165762210E+04  0.00000000000E+00 0.  1.
          1   -1    0    0  501    0  0.00000000000E+00 -0.00000000000E+00 -0.17314158791E+02  0.17314158791E+02  0.00000000000E+00 0. -1.
         25    2    1    2    0    0  0.34251509522E+02 -0.70234331888E+02  0.58970060975E+03  0.60786583086E+03  0.12509209371E+03 0.  0.
          5    1    3    3  502    0  0.64808718617E+01 -0.95550841129E+02  0.28193735038E+03  0.29778869502E+03  0.41800000000E+01 0. -1.
         -5    1    3    3    0  502  0.27770637661E+02  0.25316509240E+02  0.30776325937E+03  0.31007713584E+03  0.41800000000E+01 0. -1.
        -11    1    1    2    0    0  0.17376466726E+02  0.56170723033E+02  0.15226507594E+03  0.16322299186E+03  0.00000000000E+00 0. -1.
         11    1    1    2    0    0 -0.51627976248E+02  0.14063608855E+02  0.25729637648E+03  0.26280155702E+03  0.00000000000E+00 0.  1.
</event>
<event>
 7    1  0.2641580E-009  0.1015292E+03  0.7561462E-02  0.1277113E+00
          1   -1    0    0  501    0  0.00000000000E+00  0.00000000000E+00  0.34010314542E+03  0.34010314542E+03  0.00000000000E+00 0. -1.
         -1   -1    0    0    0  501 -0.00000000000E+00 -0.00000000000E+00 -0.35116310021E+02  0.35116310021E+02  0.00000000000E+00 0.  1.
         25    2    1    2    0    0 -0.10540565280E+02  0.10778552231E+02  0.13809391445E+03  0.18693692077E+03  0.12509277530E+03 0.  0.
          5    1    3    3  502    0  0.36622440433E+02  0.48704778718E+02  0.45188681287E+02  0.75979259865E+02  0.41800000000E+01 0. -1.
         -5    1    3    3    0  502 -0.47163005714E+02 -0.37926226487E+02  0.92905233162E+02  0.11095766090E+03  0.41800000000E+01 0. -1.
        -11    1    1    2    0    0  0.43463062177E+02  0.67994638258E+01  0.12320734169E+03  0.13082553088E+03  0.00000000000E+00 0.  1.
         11    1    1    2    0    0 -0.32922496897E+02 -0.17578016057E+02  0.43685579251E+02  0.57457003794E+02  0.00000000000E+00 0. -1.
</event>
<event>
 7    1  0.2641580E-009  0.1236749E+03  0.7561462E-02  0.1237155E+00
          1   -1    0    0  501    0  0.00000000000E+00  0.00000000000E+00  0.13068748935E+03  0.13068748935E+03  0.00000000000E+00 0. -1.
         -1   -1    0    0    0  501 -0.00000000000E+00 -0.00000000000E+00 -0.15307535750E+03  0.15307535750E+03  0.00000000000E+00 0.  1.
         25    2    1    2    0    0 -0.51907958992E+01 -0.89255217928E+02 -0.29291473826E+02  0.15651872477E+03  0.12508669983E+03 0.  0.
          5    1    3    3  502    0 -0.24875664575E+02  0.17790945432E+02 -0.35962991643E+02  0.47393307495E+02  0.41800000000E+01 0.  1.
         -5    1    3    3    0  502  0.19684868676E+02 -0.10704616336E+03  0.66715178166E+01  0.10912541727E+03  0.41800000000E+01 0.  1.
        -11    1    1    2    0    0 -0.14935098063E+02 -0.11153377268E+01 -0.25146998740E+02  0.29268971249E+02  0.00000000000E+00 0.  1.
         11    1    1    2    0    0  0.20125893962E+02  0.90370555655E+02  0.32050604413E+02  0.97975150831E+02  0.00000000000E+00 0. -1.
</event>
<event>
 7    1  0.2641580E-009  0.1009965E+03  0.7561462E-02  0.1278214E+00
          1   -1    0    0  501    0  0.00000000000E+00  0.00000000000E+00  0.16016335012E+03  0.16016335012E+03  0.00000000000E+00 0. -1.
         -1   -1    0    0    0  501 -0.00000000000E+00 -0.00000000000E+00 -0.10953020720E+03  0.10953020720E+03  0.00000000000E+00 0.  1.
         25    2    1    2    0    0 -0.64048995981E+02  0.18334592843E+02 -0.65645674097E+01  0.14187220127E+03  0.12508475833E+03 0.  0.
          5    1    3    3  502    0 -0.17039068994E+02  0.38911067360E+02 -0.56055872819E+02  0.70456612981E+02  0.41800000000E+01 0. -1.
         -5    1    3    3    0  502 -0.47009926987E+02 -0.20576474518E+02  0.49491305409E+02  0.71415588285E+02  0.41800000000E+01 0. -1.
        -11    1    1    2    0    0  0.65643479969E+02 -0.45971961415E+02  0.22122847985E+02  0.83137886080E+02  0.00000000000E+00 0.  1.
         11    1    1    2    0    0 -0.15944839879E+01  0.27637368573E+02  0.35074862345E+02  0.44683469978E+02  0.00000000000E+00 0. -1.
</event>
<event>
 7    1  0.2641580E-009  0.1087117E+03  0.7561462E-02  0.1262974E+00
         -3   -1    0    0    0  501 -0.00000000000E+00  0.00000000000E+00  0.26073709479E+03  0.26073709479E+03  0.00000000000E+00 0.  1.
          3   -1    0    0  501    0  0.00000000000E+00 -0.00000000000E+00 -0.49751335459E+02  0.49751335459E+02  0.00000000000E+00 0. -1.
         25    2    1    2    0    0  0.61504412660E+02  0.25618492367E+02  0.12267382476E+03  0.18744258270E+03  0.12508698813E+03 0.  0.
          5    1    3    3  502    0  0.59152345814E+01 -0.47596548455E+02  0.29378507399E+02  0.56400270584E+02  0.41800000000E+01 0.  1.
         -5    1    3    3    0  502  0.55589178079E+02  0.73215040822E+02  0.93295317360E+02  0.13104231211E+03  0.41800000000E+01 0.  1.
        -11    1    1    2    0    0 -0.28717939231E+02  0.84890468868E+01  0.62138421736E+02  0.68978021185E+02  0.00000000000E+00 0.  1.
         11    1    1    2    0    0 -0.32786473429E+02 -0.34107539254E+02  0.26173512833E+02  0.54067826365E+02  0.00000000000E+00 0. -1.
</event>
<event>
 7    1  0.2641580E-009  0.1647677E+03  0.7561462E-02  0.1183417E+00
         -2   -1    0    0    0  501 -0.00000000000E+00  0.00000000000E+00  0.30145838228E+02  0.30145838228E+02  0.00000000000E+00 0.  1.
          2   -1    0    0  501    0  0.00000000000E+00 -0.00000000000E+00 -0.11115169154E+04  0.11115169154E+04  0.00000000000E+00 0. -1.
         25    2    1    2    0    0 -0.54440337448E+00  0.13299872232E+03 -0.39832368618E+03  0.43817410595E+03  0.12508329879E+03 0.  0.
          5    1    3    3  502    0 -0.41440182747E+02  0.12202390673E+03 -0.35392315115E+03  0.37667783567E+03  0.41800000000E+01 0. -1.
         -5    1    3    3    0  502  0.40895779372E+02  0.10974815592E+02 -0.44400535026E+02  0.61496270280E+02  0.41800000000E+01 0. -1.
        -11    1    1    2    0    0 -0.36235076505E+02 -0.25163664946E+02 -0.98308208959E+02  0.10775293384E+03  0.00000000000E+00 0.  1.
         11    1    1    2    0    0  0.36779479879E+02 -0.10783505738E+03 -0.58473918208E+03  0.59573571388E+03  0.00000000000E+00 0. -1.
</event>
<event>
 7    1  0.2641580E-009  0.1069098E+03  0.7561462E-02  0.1266402E+00
          2   -1    0    0  501    0  0.00000000000E+00  0.00000000000E+00  0.13900518977E+03  0.13900518977E+03  0.00000000000E+00 0. -1.
         -2   -1    0    0    0  501 -0.00000000000E+00 -0.00000000000E+00 -0.16505597602E+03  0.16505597602E+03  0.00000000000E+00 0.  1.
         25    2    1    2    0    0 -0.54075155593E+02 -0.79082692733E+02  0.28509603081E+02  0.16011967263E+03  0.12508923756E+03 0.  0.
          5    1    3    3  502    0 -0.37927314253E+02 -0.40523334045E+02 -0.47564713663E+02  0.73215409269E+02  0.41800000000E+01 0. -1.
         -5    1    3    3    0  502 -0.16147841340E+02 -0.38559358688E+02  0.76074316744E+02  0.86904263361E+02  0.41800000000E+01 0. -1.
        -11    1    1    2    0    0  0.60568424907E+02  0.86937199906E+02 -0.68871954449E+02  0.12637229496E+03  0.00000000000E+00 0.  1.
         11    1    1    2    0    0 -0.64932693136E+01 -0.78545071738E+01  0.14311565114E+02  0.17569198199E+02  0.00000000000E+00 0. -1.
</event>
<event>
 7    1  0.2641580E-009  0.1238283E+03  0.7561462E-02  0.1236912E+00
         -3   -1    0    0    0  501 -0.00000000000E+00  0.00000000000E+00  0.49644565637E+03  0.49644565637E+03  0.00000000000E+00 0. -1.
          3   -1    0    0  501    0  0.00000000000E+00 -0.00000000000E+00 -0.45640479812E+02  0.45640479812E+02  0.00000000000E+00 0.  1.
         25    2    1    2    0    0 -0.58839162015E+02  0.47265196036E+02  0.31108213099E+03  0.34368298729E+03  0.12509939163E+03 0.  0.
          5    1    3    3  502    0  0.33803006309E+02  0.17711710197E+02  0.39040790386E+02  0.54754028415E+02  0.41800000000E+01 0. -1.
         -5    1    3    3    0  502 -0.92642168325E+02  0.29553485839E+02  0.27204134060E+03  0.28892895887E+03  0.41800000000E+01 0. -1.
        -11    1    1    2    0    0 -0.19422756906E+02  0.18926959094E+01  0.92655473100E+02  0.94688238335E+02  0.00000000000E+00 0. -1.
         11    1    1    2    0    0  0.78261918921E+02 -0.49157891946E+02  0.47067572463E+02  0.10371491055E+03  0.00000000000E+00 0.  1.
</event>
<event>
 7    1  0.2641580E-009  0.1244278E+03  0.7561462E-02  0.1235966E+00
          3   -1    0    0  501    0  0.00000000000E+00  0.00000000000E+00  0.15736102404E+03  0.15736102404E+03  0.00000000000E+00 0. -1.
         -3   -1    0    0    0  501 -0.00000000000E+00 -0.00000000000E+00 -0.10585854414E+03  0.10585854414E+03  0.00000000000E+00 0.  1.
         25    2    1    2    0    0 -0.63434011642E+02 -0.20019461420E+02 -0.29408796161E+01  0.14170653062E+03  0.12508972531E+03 0.  0.
          5    1    3    3  502    0 -0.41058023906E+02  0.51858331009E+02 -0.18939344071E+01  0.66303146303E+02  0.41800000000E+01 0. -1.
         -5    1    3    3    0  502 -0.22375987736E+02 -0.71877792429E+02 -0.10469452090E+01  0.75403384314E+02  0.41800000000E+01 0. -1.
        -11    1    1    2    0    0  0.17108900215E+02  0.49432459276E+02  0.36480637667E+02  0.63773971346E+02  0.00000000000E+00 0. -1.
         11    1    1    2    0    0  0.46325111428E+02 -0.29412997855E+02  0.17962721847E+02  0.57739066218E+02  0.00000000000E+00 0.  1.
</event>
<event>
 7    1  0.2641580E-009  0.1138289E+03  0.7561462E-02  0.1253639E+00
          1   -1    0    0  501    0  0.00000000000E+00  0.00000000000E+00  0.24202887652E+03  0.24202887652E+03  0.00000000000E+00 0.  1.
         -1   -1    0    0    0  501 -0.00000000000E+00 -0.00000000000E+00 -0.10566630650E+03  0.10566630650E+03  0.00000000000E+00 0. -1.
         25    2    1    2    0    0  0.99852306693E+02  0.51653689646E+00  0.52200657143E+01  0.16014308466E+03  0.12509120080E+03 0.  0.
          5    1    3    3  502    0  0.10254685796E+01  0.26135272426E+01 -0.47684094951E+02  0.47949217113E+02  0.41800000000E+01 0.  1.
         -5    1    3    3    0  502  0.98826838113E+02 -0.20969903462E+01  0.52904160665E+02  0.11219386755E+03  0.41800000000E+01 0.  1.
        -11    1    1    2    0    0 -0.13066552147E+02 -0.29437504761E+02  0.71306624989E+02  0.78242803112E+02  0.00000000000E+00 0.  1.
         11    1    1    2    0    0 -0.86785754546E+02  0.28920967864E+02  0.59835879319E+02  0.10930929525E+03  0.00000000000E+00 0. -1.
</event>
<event>
 7    1  0.2641580E-009  0.1491621E+03  0.7561462E-02  0.1201506E+00
          1   -1    0    0  501    0  0.00000000000E+00  0.00000000000E+00  0.16279194255E+03  0.16279194255E+03  0.00000000000E+00 0. -1.
         -1   -1    0    0    0  501 -0.00000000000E+00 -0.00000000000E+00 -0.16521604423E+03  0.16521604423E+03  0.00000000000E+00 0.  1.
         25    2    1    2    0    0 -0.35887458785E+02  0.11572367795E+03 -0.17876662568E+02  0.17507034554E+03  0.12510064543E+03 0.  0.
          5    1    3    3  502    0 -0.55770552221E+02  0.11922170989E+03  0.18773791163E+02  0.13301916493E+03  0.41800000000E+01 0. -1.
         -5    1    3    3    0  502  0.19883093435E+02 -0.34980319392E+01 -0.36650453730E+02  0.42051180609E+02  0.41800000000E+01 0. -1.
        -11    1    1    2    0    0  0.88896480185E+01  0.12302458091E+02  0.16055808718E+02  0.22094463347E+02  0.00000000000E+00 0. -1.
         11    1    1    2    0    0  0.26997810767E+02 -0.12802613604E+03 -0.60324782898E+00  0.13084317790E+03  0.00000000000E+00 0.  1.
</event>
<event>
 7    1  0.3765651E-009  0.1405657E+03  0.7561462E-02  0.1212570E+00
         -2   -1    0    0    0  501 -0.00000000000E+00  0.00000000000E+00  0.19123082262E+03  0.19123082262E+03  0.00000000000E+00 0.  1.
          2   -1    0    0  501    0  0.00000000000E+00 -0.00000000000E+00 -0.13951558466E+03  0.13951558466E+03  0.00000000000E+00 0. -1.
         25    2    1    2    0    0 -0.11278263668E+03 -0.38776427371E+00 -0.18887393513E+02  0.16948206424E+03  0.12508941989E+03 0.  0.
          5    1    3    3  502    0 -0.13354490076E+03  0.18758233290E+02 -0.31052803238E+02  0.13844804377E+03  0.41800000000E+01 0.  1.
         -5    1    3    3    0  502  0.20762264082E+02 -0.19145997564E+02  0.12165409724E+02  0.31034020466E+02  0.41800000000E+01 0.  1.
        -11    1    1    2    0    0  0.65069803539E+02 -0.16357935626E+02 -0.82410759055E+01  0.67598644385E+02  0.00000000000E+00 0. -1.
         11    1    1    2    0    0  0.47712833140E+02  0.16745699900E+02  0.78843707377E+02  0.93665698654E+02  0.00000000000E+00 0.  1.
</event>
<event>
 7    1  0.2641580E-009  0.1138411E+03  0.7561462E-02  0.1253618E+00
          3   -1    0    0  501    0  0.00000000000E+00  0.00000000000E+00  0.63141887013E+03  0.63141887013E+03  0.00000000000E+00 0. -1.
         -3   -1    0    0    0  501 -0.00000000000E+00 -0.00000000000E+00 -0.28411091821E+02  0.28411091821E+02  0.00000000000E+00 0.  1.
         25    2    1    2    0    0 -0.49087851992E+02 -0.47877035360E+02  0.42777879327E+03  0.45093523097E+03  0.12508420694E+03 0.  0.
          5    1    3    3  502    0 -0.24418342168E+02  0.32928847362E+02  0.55259208417E+02  0.68931973261E+02  0.41800000000E+01 0. -1.
         -5    1    3    3    0  502 -0.24669509823E+02 -0.80805882722E+02  0.37251958485E+03  0.38200325771E+03  0.41800000000E+01 0. -1.
        -11    1    1    2    0    0  0.65119200961E+02  0.17330136780E+02  0.65904271856E+02  0.94256124594E+02  0.00000000000E+00 0.  1.
         11    1    1    2    0    0 -0.16031348969E+02  0.30546898580E+02  0.10932471318E+03  0.11463860639E+03  0.00000000000E+00 0. -1.
</event>
<event>
 7    1  0.2641580E-009  0.1065558E+03  0.7561462E-02  0.1267084E+00
         -4   -1    0    0    0  501 -0.00000000000E+00  0.00000000000E+00  0.63686936277E+03  0.63686936277E+03  0.00000000000E+00 0. -1.
          4   -1    0    0  501    0  0.00000000000E+00 -0.00000000000E+00 -0.22354804270E+02  0.22354804270E+02  0.00000000000E+00 0.  1.
         25    2    1    2    0    0  0.78020431168E+01 -0.85946638223E+01  0.45494555662E+03  0.47197292126E+03  0.12509292062E+03 0.  0.
          5    1    3    3  502    0 -0.52748805726E+02 -0.13425337095E+02  0.12417360794E+03  0.13564377424E+03  0.41800000000E+01 0.  1.
         -5    1    3    3    0  502  0.60550848842E+02  0.48306732729E+01  0.33077194868E+03  0.33632914701E+03  0.41800000000E+01 0.  1.
        -11    1    1    2    0    0  0.31709273346E+02 -0.29091043202E+02  0.62551625833E+02  0.75924124658E+02  0.00000000000E+00 0.  1.
         11    1    1    2    0    0 -0.39511316463E+02  0.37685707025E+02  0.97017376052E+02  0.11132712113E+03  0.00000000000E+00 0. -1.
</event>
<event>
 7    1  0.2641580E-009  0.1137963E+03  0.7561462E-02  0.1253697E+00
          2   -1    0    0  501    0  0.00000000000E+00  0.00000000000E+00  0.11198106302E+03  0.11198106302E+03  0.00000000000E+00 0. -1.
         -2   -1    0    0    0  501 -0.00000000000E+00 -0.00000000000E+00 -0.13785580119E+03  0.13785580119E+03  0.00000000000E+00 0.  1.
         25    2    1    2    0    0  0.39779603371E+02  0.96762495162E+01  0.33187205914E+02  0.13573465281E+03  0.12508580530E+03 0.  0.
          5    1    3    3  502    0 -0.35664691402E+02 -0.28617896403E+02  0.19669118839E+02  0.49952986329E+02  0.41800000000E+01 0.  1.
         -5    1    3    3    0  502  0.75444294773E+02  0.38294145919E+02  0.13518087076E+02  0.85781666477E+02  0.41800000000E+01 0.  1.
        -11    1    1    2    0    0 -0.55784897128E+02  0.23186832124E+02 -0.30269090042E+02  0.67570716612E+02  0.00000000000E+00 0. -1.
         11    1    1    2    0    0  0.16005293756E+02 -0.32863081640E+02 -0.28792854045E+02  0.46531494788E+02  0.00000000000E+00 0.  1.
</event>
<event>
 7    1  0.2641580E-009  0.1494891E+03  0.7561462E-02  0.1201102E+00
          4   -1    0    0  501    0  0.00000000000E+00  0.00000000000E+00  0.18415847121E+03  0.18415847121E+03  0.00000000000E+00 0.  1.
         -4   -1    0    0    0  501 -0.00000000000E+00 -0.00000000000E+00 -0.13654036367E+03  0.13654036367E+03  0.00000000000E+00 0. -1.
         25    2    1    2    0    0 -0.11430556423E+03 -0.69005777673E+01  0.19347194163E+02  0.17069046866E+03  0.12509013624E+03 0.  0.
          5    1    3    3  502    0 -0.92555696065E+02 -0.60763014197E+02  0.61065041612E+01  0.11096604238E+03  0.41800000000E+01 0. -1.
         -5    1    3    3    0  502 -0.21749868161E+02  0.53862436429E+02  0.13240690002E+02  0.59724426283E+02  0.41800000000E+01 0. -1.
        -11    1    1    2    0    0  0.52556698543E+02 -0.27437758276E+02  0.48408411666E+02  0.76540260393E+02  0.00000000000E+00 0.  1.
         11    1    1    2    0    0  0.61748865682E+02  0.34338336043E+02 -0.20137498290E+02  0.73468105819E+02  0.00000000000E+00 0. -1.
</event>
<event>
 7    1  0.2641580E-009  0.1019438E+03  0.7561462E-02  0.1276261E+00
         -2   -1    0    0    0  501 -0.00000000000E+00  0.00000000000E+00  0.69346318194E+03  0.69346318194E+03  0.00000000000E+00 0.  1.
          2   -1    0    0  501    0  0.00000000000E+00 -0.00000000000E+00 -0.21418447623E+02  0.21418447623E+02  0.00000000000E+00 0. -1.
         25    2    1    2    0    0  0.18887014136E+02  0.48618182438E+02  0.44340893974E+03  0.46365841374E+03  0.12508872782E+03 0.  0.
          5    1    3    3  502    0  0.58534496525E+02  0.28736557745E+02  0.38335843310E+03  0.38888717858E+03  0.41800000000E+01 0.  1.
         -5    1    3    3    0  502 -0.39647482389E+02  0.19881624692E+02  0.60050506638E+02  0.74771235162E+02  0.41800000000E+01 0.  1.
        -11    1    1    2    0    0 -0.94666214146E+01 -0.69996732236E+02  0.20929987200E+03  0.22089725182E+03  0.00000000000E+00 0.  1.
         11    1    1    2    0    0 -0.94203927212E+01  0.21378549798E+02  0.19335922585E+02  0.30325964003E+02  0.00000000000E+00 0. -1.
</event>
<event>
 7    1  0.2641580E-009  0.1047351E+03  0.7561462E-02  0.1270642E+00
          1   -1    0    0  501    0  0.00000000000E+00  0.00000000000E+00  0.41678349018E+03  0.41678349018E+03  0.00000000000E+00 0. -1.
         -1   -1    0    0    0  501 -0.00000000000E+00 -0.00000000000E+00 -0.67554837070E+02  0.67554837070E+02  0.00000000000E+00 0.  1.
         25    2    1    2    0    0  0.42238318052E+02  0.25105218598E+02  0.36193718031E+03  0.38608358768E+03  0.12509063382E+03 0.  0.
          5    1    3    3  502    0 -0.11764659619E+02  0.56301243652E+02  0.88778731577E+02  0.10586488007E+03  0.41800000000E+01 0. -1.
         -5    1    3    3    0  502  0.54002977671E+02 -0.31196025055E+02  0.27315844873E+03  0.28021870760E+03  0.41800000000E+01 0. -1.
        -11    1    1    2    0    0 -0.98789323593E+01 -0.48416275774E+02 -0.26480889273E+02  0.56062166932E+02  0.00000000000E+00 0.  1.
         11    1    1    2    0    0 -0.32359385692E+02  0.23311057176E+02  0.13772362074E+02  0.42192572642E+02  0.00000000000E+00 0. -1.
</event>
<event>
 7    1  0.2641580E-009  0.1081360E+03  0.7561462E-02  0.1264061E+00
          2   -1    0    0  501    0  0.00000000000E+00  0.00000000000E+00  0.35515310755E+03  0.35515310755E+03  0.00000000000E+00 0. -1.
         -2   -1    0    0    0  501 -0.00000000000E+00 -0.00000000000E+00 -0.66917014543E+02  0.66917014543E+02  0.00000000000E+00 0.  1.
         25    2    1    2    0    0  0.10524067272E+03  0.44203054217E+01  0.19576884419E+03  0.25508003006E+03  0.12508094614E+03 0.  0.
          5    1    3    3  502    0  0.18496783514E+02 -0.35338806720E+01 -0.16634008393E+02  0.25471198405E+02  0.41800000000E+01 0. -1.
         -5    1    3    3    0  502  0.86743889202E+02  0.79541860937E+01  0.21240285258E+03  0.22960883166E+03  0.41800000000E+01 0. -1.
        -11    1    1    2    0    0 -0.80800620164E+02  0.99684423416E+01  0.12784875230E+02  0.82410940391E+02  0.00000000000E+00 0.  1.
         11    1    1    2    0    0 -0.24440052553E+02 -0.14388747763E+02  0.79682373591E+02  0.84579151640E+02  0.00000000000E+00 0. -1.
</event>
<event>
 7    1  0.2641580E-009  0.2128589E+03  0.7561462E-02  0.1139322E+00
         -3   -1    0    0    0  501 -0.00000000000E+00  0.00000000000E+00  0.11913377621E+04  0.11913377621E+04  0.00000000000E+00 0.  1.
          3   -1    0    0  501    0  0.00000000000E+00 -0.00000000000E+00 -0.58879791732E+02  0.58879791732E+02  0.00000000000E+00 0. -1.
         25    2    1    2    0    0  0.18321689274E+03  0.87073637004E+02  0.27127527600E+03  0.36109201847E+03  0.12508765882E+03 0.  0.
          5    1    3    3  502    0  0.17336979726E+03  0.51454464864E+02  0.15239425562E+03  0.23652934300E+03  0.41800000000E+01 0.  1.
         -5    1    3    3    0  502  0.98470954850E+01  0.35619172140E+02  0.11888102038E+03  0.12456267547E+03  0.41800000000E+01 0.  1.
        -11    1    1    2    0    0 -0.13393260160E+03 -0.40744414475E+02  0.70747682980E+03  0.72119450483E+03  0.00000000000E+00 0.  1.
         11    1    1    2    0    0 -0.49284291142E+02 -0.46329222529E+02  0.15370586454E+03  0.16793103051E+03  0.00000000000E+00 0. -1.
</event>
<event>
 7    1  0.2641580E-009  0.6676365E+02  0.7561462E-02  0.1371458E+00
         -1   -1    0    0    0  501 -0.00000000000E+00  0.00000000000E+00  0.77675909672E+02  0.77675909672E+02  0.00000000000E+00 0.  1.
          1   -1    0    0  501    0  0.00000000000E+00 -0.00000000000E+00 -0.19460524328E+03  0.19460524328E+03  0.00000000000E+00 0. -1.
         25    2    1    2    0    0  0.34156232214E+02 -0.36947306307E+02 -0.31680843487E+02  0.13850165996E+03  0.12508909754E+03 0.  0.
          5    1    3    3  502    0 -0.55287521145E+01 -0.19169084722E+02 -0.74555403624E+02  0.77291665259E+02  0.41800000000E+01 0. -1.
         -5    1    3    3    0  502  0.39684984328E+02 -0.17778221584E+02  0.42874560137E+02  0.61209994697E+02  0.41800000000E+01 0. -1.
        -11    1    1    2    0    0  0.12027732992E+02  0.11897800948E+02 -0.79090800618E+02  0.80880027019E+02  0.00000000000E+00 0. -1.
         11    1    1    2    0    0 -0.46183965205E+02  0.25049505358E+02 -0.61576895049E+01  0.52899465979E+02  0.00000000000E+00 0.  1.
</event>
<event>
 7    1  0.2641580E-009  0.1039205E+03  0.7561462E-02  0.1272261E+00
         -2   -1    0    0    0  501 -0.00000000000E+00  0.00000000000E+00  0.33180104978E+02  0.33180104978E+02  0.00000000000E+00 0.  1.
          2   -1    0    0  501    0  0.00000000000E+00 -0.00000000000E+00 -0.48010700926E+03  0.48010700926E+03  0.00000000000E+00 0. -1.
         25    2    1    2    0    0  0.15551898521E+02 -0.54820128275E+02 -0.25287244512E+03  0.28782723338E+03  0.12511168913E+03 0.  0.
          5    1    3    3  502    0 -0.28108317325E+02  0.14405074966E+02 -0.16347975079E+03  0.16655535118E+03  0.41800000000E+01 0. -1.
         -5    1    3    3    0  502  0.43660215846E+02 -0.69225203241E+02 -0.89392694335E+02  0.12127188220E+03  0.41800000000E+01 0. -1.
        -11    1    1    2    0    0 -0.32886390986E+02 -0.36098527318E+01 -0.14044843687E+03  0.14429244321E+03  0.00000000000E+00 0.  1.
         11    1    1    2    0    0  0.17334492465E+02  0.58429981007E+02 -0.53606022292E+02  0.81167437655E+02  0.00000000000E+00 0. -1.
</event>
<event>
 7    1  0.2641580E-009  0.1247519E+03  0.7561462E-02  0.1235458E+00
         -2   -1    0    0    0  501 -0.00000000000E+00  0.00000000000E+00  0.22955115763E+02  0.22955115763E+02  0.00000000000E+00 0.  1.
          2   -1    0    0  501    0  0.00000000000E+00 -0.00000000000E+00 -0.81376580406E+03  0.81376580406E+03  0.00000000000E+00 0. -1.
         25    2    1    2    0    0 -0.61685038376E+02  0.34064126658E+02 -0.55962781341E+03  0.57775137318E+03  0.12509177023E+03 0.  0.
          5    1    3    3  502    0 -0.13314051153E+02 -0.46343725943E+02 -0.22785686610E+03  0.23294039736E+03  0.41800000000E+01 0.  1.
         -5    1    3    3    0  502 -0.48370987223E+02  0.80407852602E+02 -0.33177094731E+03  0.34481097582E+03  0.41800000000E+01 0.  1.
        -11    1    1    2    0    0  0.77148736556E+02 -0.89277918971E+01 -0.11271201012E+03  0.13687815839E+03  0.00000000000E+00 0.  1.
         11    1    1    2    0    0 -0.15463698180E+02 -0.25136334761E+02 -0.11847086477E+03  0.12209138826E+03  0.00000000000E+00 0. -1.
</event>
<event>
 7    1  0.2641580E-009  0.1663143E+03  0.7561462E-02  0.1181747E+00
         -1   -1    0    0    0  501 -0.00000000000E+00  0.00000000000E+00  0.29022653859E+02  0.29022653859E+02  0.00000000000E+00 0.  1.
          1   -1    0    0  501    0  0.00000000000E+00 -0.00000000000E+00 -0.11136234910E+04  0.11136234910E+04  0.00000000000E+00 0. -1.
         25    2    1    2    0    0 -0.51469608991E+02 -0.13313424448E+03 -0.53733773323E+03  0.56987082051E+03  0.12508822811E+03 0.  0.
          5    1    3    3  502    0 -0.82724101222E+02 -0.55812765215E+02 -0.36421205493E+03  0.37765888715E+03  0.41800000000E+01 0. -1.
         -5    1    3    3    0  502  0.31254492231E+02 -0.77321479266E+02 -0.17312567830E+03  0.19221193337E+03  0.41800000000E+01 0. -1.
        -11    1    1    2    0    0  0.56806689949E+02  0.94616766298E+02 -0.49764635438E+03  0.50973642848E+03  0.00000000000E+00 0. -1.
         11    1    1    2    0    0 -0.53370809585E+01  0.38517478183E+02 -0.49616749519E+02  0.63038895862E+02  0.00000000000E+00 0.  1.
</event>
<event>
 7    1  0.2641580E-009  0.3387648E+03  0.7561462E-02  0.1067323E+00
          1   -1    0    0  501    0  0.00000000000E+00  0.00000000000E+00  0.34223896851E+04  0.34223896851E+04  0.00000000000E+00 0. -1.
         -1   -1    0    0    0  501 -0.00000000000E+00 -0.00000000000E+00 -0.36079676735E+02  0.36079676735E+02  0.00000000000E+00 0.  1.
         25    2    1    2    0    0  0.28623571154E+03  0.14875021534E+03  0.21265209496E+04  0.21544830350E+04  0.12509312501E+03 0.  0.
          5    1    3    3  502    0  0.29452792609E+03  0.15430398077E+03  0.20932333508E+04  0.21194810098E+04  0.41800000000E+01 0. -1.
         -5    1    3    3    0  502 -0.82922145521E+01 -0.55537654262E+01  0.33287598766E+02  0.35002025144E+02  0.41800000000E+01 0. -1.
        -11    1    1    2    0    0 -0.26653555933E+03 -0.16061209428E+03  0.12057240895E+04  0.12452341263E+04  0.00000000000E+00 0. -1.
         11    1    1    2    0    0 -0.19700152210E+02  0.11861878940E+02  0.54064969237E+02  0.58752200534E+02  0.00000000000E+00 0.  1.
</event>
<event>
 7    1  0.2641580E-009  0.9604033E+02  0.7561462E-02  0.1288850E+00
         -3   -1    0    0    0  501 -0.00000000000E+00  0.00000000000E+00  0.62235827653E+02  0.62235827653E+02  0.00000000000E+00 0.  1.
          3   -1    0    0  501    0  0.00000000000E+00 -0.00000000000E+00 -0.31500099408E+03  0.31500099408E+03  0.00000000000E+00 0. -1.
         25    2    1    2    0    0  0.75326186665E+02  0.30903341682E+02 -0.16204504874E+03  0.22030574517E+03  0.12508785956E+03 0.  0.
          5    1    3    3  502    0  0.75272263131E+01  0.11982205491E+02 -0.14758998112E+03  0.14832567988E+03  0.41800000000E+01 0. -1.
         -5    1    3    3    0  502  0.67798960352E+02  0.18921136191E+02 -0.14455067620E+02  0.71980065292E+02  0.41800000000E+01 0. -1.
        -11    1    1    2    0    0 -0.20036748774E+02 -0.45424727469E+02  0.65111074744E-01  0.49647572010E+02  0.00000000000E+00 0.  1.
         11    1    1    2    0    0 -0.55289437892E+02  0.14521385786E+02 -0.90785228766E+02  0.10728350455E+03  0.00000000000E+00 0. -1.
</event>
<event>
 7    1  0.2641580E-009  0.1006844E+03  0.7561462E-02  0.1278863E+00
         -4   -1    0    0    0  501 -0.00000000000E+00  0.00000000000E+00  0.12996278192E+03  0.12996278192E+03  0.00000000000E+00 0.  1.
          4   -1    0    0  501    0  0.00000000000E+00 -0.00000000000E+00 -0.13424123012E+03  0.13424123012E+03  0.00000000000E+00 0. -1.
         25    2    1    2    0    0  0.17013442434E+01 -0.11075962249E+01  0.72574815117E+02  0.14463117797E+03  0.12508777922E+03 0.  0.
          5    1    3    3  502    0 -0.33741663880E+02  0.47005163264E+02  0.59925946988E+02  0.83406095564E+02  0.41800000000E+01 0. -1.
         -5    1    3    3    0  502  0.35443008123E+02 -0.48112759489E+02  0.12648868129E+02  0.61225082404E+02  0.41800000000E+01 0. -1.
        -11    1    1    2    0    0 -0.24583423455E+02  0.34870965914E+02 -0.14494941540E+02  0.45060318495E+02  0.00000000000E+00 0.  1.
         11    1    1    2    0    0  0.22882079212E+02 -0.33763369690E+02 -0.62358321779E+02  0.74512515573E+02  0.00000000000E+00 0. -1.
</event>
<event>
 7    1  0.2641580E-009  0.1252041E+03  0.7561462E-02  0.1234751E+00
         -1   -1    0    0    0  501 -0.00000000000E+00  0.00000000000E+00  0.23321180979E+02  0.23321180979E+02  0.00000000000E+00 0.  1.
          1   -1    0    0  501    0  0.00000000000E+00 -0.00000000000E+00 -0.80469223796E+03  0.80469223796E+03  0.00000000000E+00 0. -1.
         25    2    1    2    0    0 -0.61332189826E+02 -0.16132231865E+02 -0.26342003607E+03  0.29842681272E+03  0.12508621320E+03 0.  0.
          5    1    3    3  502    0 -0.54160747511E+02 -0.68358547400E+02 -0.16783187300E+03  0.18918585456E+03  0.41800000000E+01 0.  1.
         -5    1    3    3    0  502 -0.71714423153E+01  0.52226315535E+02 -0.95588163072E+02  0.10924095816E+03  0.41800000000E+01 0.  1.
        -11    1    1    2    0    0 -0.23846460700E+02  0.36093549501E+01 -0.10098977649E+03  0.10382974567E+03  0.00000000000E+00 0. -1.
         11    1    1    2    0    0  0.85178650526E+02  0.12522876915E+02 -0.41696124443E+03  0.42575686055E+03  0.00000000000E+00 0.  1.
</event>
<event>
 7    1  0.2641580E-009  0.1481438E+03  0.7561462E-02  0.1202773E+00
         -1   -1    0    0    0  501 -0.00000000000E+00  0.00000000000E+00  0.32493361163E+02  0.32493361163E+02  0.00000000000E+00 0.  1.
          1   -1    0    0  501    0  0.00000000000E+00 -0.00000000000E+00 -0.76411600706E+03  0.76411600706E+03  0.00000000000E+00 0. -1.
         25    2    1    2    0    0 -0.95144772380E+02  0.60712038163E+02 -0.35219731204E+03  0.39042149486E+03  0.12509003858E+03 0.  0.
          5    1    3    3  502    0 -0.85750182305E+02 -0.10794155040E+02 -0.25525416867E+03  0.26952137313E+03  0.41800000000E+01 0.  1.
         -5    1    3    3    0  502 -0.93945900756E+01  0.71506193203E+02 -0.96943143363E+02  0.12090012173E+03  0.41800000000E+01 0.  1.
        -11    1    1    2    0    0 -0.34104418346E+01 -0.35667910277E+02 -0.16536507666E+03  0.16920236262E+03  0.00000000000E+00 0.  1.
         11    1    1    2    0    0  0.98555214215E+02 -0.25044127886E+02 -0.21406025720E+03  0.23698551075E+03  0.00000000000E+00 0. -1.
</event>
<event>
 7    1  0.2641580E-009  0.7057297E+02  0.7561462E-02  0.1358155E+00
          2   -1    0    0  501    0  0.00000000000E+00  0.00000000000E+00  0.73076468825E+03  0.73076468825E+03  0.00000000000E+00 0. -1.
         -2   -1    0    0    0  501 -0.00000000000E+00 -0.00000000000E+00 -0.21110456223E+02  0.21110456223E+02  0.00000000000E+00 0.  1.
         25    2    1    2    0    0  0.31687306046E+02 -0.79219815678E+01  0.24370280124E+03  0.27587237024E+03  0.12509063184E+03 0.  0.
          5    1    3    3  502    0  0.37056325397E+01  0.11810641875E+02 -0.12068221675E+02  0.17785874969E+02  0.41800000000E+01 0. -1.
         -5    1    3    3    0  502  0.27981673506E+02 -0.19732623443E+02  0.25577102291E+03  0.25808649527E+03  0.41800000000E+01 0. -1.
        -11    1    1    2    0    0  0.40581260821E+01 -0.36412117741E+02  0.12248890144E+03  0.12785085718E+03  0.00000000000E+00 0. -1.
         11    1    1    2    0    0 -0.35745432128E+02  0.44334099308E+02  0.34346252935E+03  0.34815191705E+03  0.00000000000E+00 0.  1.
</event>
<event>
 6    1  0.2641580E-009  0.1102720E+03  0.7561462E-02  0.1260067E+00
         -2   -1    0    0    0  501 -0.00000000000E+00  0.00000000000E+00  0.37117210988E+02  0.37117210988E+02  0.00000000000E+00 0.  1.
          2   -1    0    0  501    0  0.00000000000E+00 -0.00000000000E+00 -0.47897180956E+03  0.47897180956E+03  0.00000000000E+00 0. -1.
          5    1    1    2  502    0 -0.85615517433E+02 -0.71530562088E+01 -0.98312097769E+02  0.13062895547E+03  0.41800000000E+01 0. -1.
         -5    1    1    2    0  502  0.40007738451E+02 -0.35658470980E+02 -0.62421266372E+02  0.82377379080E+02  0.41800000000E+01 0. -1.
        -11    1    1    2    0    0  0.21013897701E+02 -0.94295653132E+01 -0.87183259947E+01  0.24627419815E+02  0.00000000000E+00 0.  1.
         11    1    1    2    0    0  0.24593881281E+02  0.52241092502E+02 -0.27240290843E+03  0.27845526618E+03  0.00000000000E+00 0. -1.
</event>
<event>
 6    1  0.2641580E-009  0.7873433E+02  0.7561462E-02  0.1332682E+00
         -1   -1    0    0    0  501 -0.00000000000E+00  0.00000000000E+00  0.53049837524E+02  0.53049837524E+02  0.00000000000E+00 0.  1.
          1   -1    0    0  501    0  0.00000000000E+00 -0.00000000000E+00 -0.22258650436E+03  0.22258650436E+03  0.00000000000E+00 0. -1.
          5    1    1    2  502    0 -0.32104905813E+02  0.27494046295E+02 -0.10082710076E+03  0.10940851981E+03  0.41800000000E+01 0.  1.
         -5    1    1    2    0  502  0.46264864376E+02 -0.31456206643E+02 -0.71471933780E+01  0.56555153481E+02  0.41800000000E+01 0.  1.
        -11    1    1    2    0    0 -0.17991455743E+02 -0.24375682032E+02  0.10563372096E+02  0.32085061700E+02  0.00000000000E+00 0.  1.
         11    1    1    2    0    0  0.38314971802E+01  0.28337842380E+02 -0.72125744799E+02  0.77587606898E+02  0.00000000000E+00 0. -1.
</event>
<event>
 7    1  0.2641580E-009  0.9696969E+02  0.7561462E-02  0.1286800E+00
          2   -1    0    0  501    0  0.00000000000E+00  0.00000000000E+00  0.34071130808E+03  0.34071130808E+03  0.00000000000E+00 0. -1.
         -2   -1    0    0    0  501 -0.00000000000E+00 -0.00000000000E+00 -0.49605582166E+02  0.49605582166E+02  0.00000000000E+00 0.  1.
         25    2    1    2    0    0  0.17953594954E+02  0.23172783024E+02  0.94779297555E+02  0.15965765106E+03  0.12509252916E+03 0.  0.
          5    1    3    3  502    0  0.38543240943E+02 -0.30375291947E+02  0.54530659372E+00  0.49254538294E+02  0.41800000000E+01 0.  1.
         -5    1    3    3    0  502 -0.20589645989E+02  0.53548074971E+02  0.94233990961E+02  0.11040311276E+03  0.41800000000E+01 0.  1.
        -11    1    1    2    0    0 -0.24938357864E+02 -0.51911132144E+02  0.36642246314E+02  0.68259369675E+02  0.00000000000E+00 0.  1.
         11    1    1    2    0    0  0.69847629103E+01  0.28738349120E+02  0.15968418205E+03  0.16239986952E+03  0.00000000000E+00 0. -1.
</event>
<event>
 7    1  0.2641580E-009  0.8804731E+02  0.7561462E-02  0.1307651E+00
         -3   -1    0    0    0  501 -0.00000000000E+00  0.00000000000E+00  0.23733066460E+02  0.23733066460E+02  0.00000000000E+00 0.  1.
          3   -1    0    0  501    0  0.00000000000E+00 -0.00000000000E+00 -0.63978920199E+03  0.63978920199E+03  0.00000000000E+00 0. -1.
         25    2    1    2    0    0  0.73435004563E+01 -0.21550540177E+02 -0.48660200923E+03  0.50293825680E+03  0.12508805693E+03 0.  0.
          5    1    3    3  502    0  0.48113809404E+02  0.32003476733E+02 -0.26706977186E+03  0.27328171658E+03  0.41800000000E+01 0.  1.
         -5    1    3    3    0  502 -0.40770308948E+02 -0.53554016910E+02 -0.21953223737E+03  0.22965654022E+03  0.41800000000E+01 0.  1.
        -11    1    1    2    0    0 -0.20199856758E+02 -0.53587729224E+01  0.61138531572E+01  0.21774523203E+02  0.00000000000E+00 0.  1.
         11    1    1    2    0    0  0.12856356302E+02  0.26909313099E+02 -0.13556797946E+03  0.13880948845E+03  0.00000000000E+00 0. -1.
</event>
<event>
 7    1  0.2641580E-009  0.9877007E+02  0.7561462E-02  0.1282904E+00
         -2   -1    0    0    0  501 -0.00000000000E+00  0.00000000000E+00  0.21954004515E+02  0.21954004515E+02  0.00000000000E+00 0.  1.
          2   -1    0    0  501    0  0.00000000000E+00 -0.00000000000E+00 -0.74682961812E+03  0.74682961812E+03  0.00000000000E+00 0. -1.
         25    2    1    2    0    0  0.61324952616E+02  0.51322796266E+01 -0.48476110311E+03  0.50441011204E+03  0.12509653846E+03 0.  0.
          5    1    3    3  502    0 -0.22880147669E+01  0.22854398278E+02 -0.37858454591E+03  0.37930369011E+03  0.41800000000E+01 0.  1.
         -5    1    3    3    0  502  0.63612967383E+02 -0.17722118652E+02 -0.10617655720E+03  0.12510642193E+03  0.41800000000E+01 0.  1.
        -11    1    1    2    0    0 -0.78926817247E+02 -0.23732959874E+02 -0.20470877968E+03  0.22067709520E+03  0.00000000000E+00 0.  1.
         11    1    1    2    0    0  0.17601864631E+02  0.18600680248E+02 -0.35405730811E+02  0.43696415395E+02  0.00000000000E+00 0. -1.
</event>
<event>
 7    1  0.2641580E-009  0.1466378E+03  0.7561462E-02  0.1204666E+00
         -2   -1    0    0    0  501 -0.00000000000E+00  0.00000000000E+00  0.30676814066E+03  0.30676814066E+03  0.00000000000E+00 0.  1.
          2   -1    0    0  501    0  0.00000000000E+00 -0.00000000000E+00 -0.89839732047E+02  0.89839732047E+02  0.00000000000E+00 0. -1.
         25    2    1    2    0    0  0.50143537359E+02  0.87856005331E+02  0.20349319413E+03  0.25940342618E+03  0.12509038910E+03 0.  0.
          5    1    3    3  502    0  0.89853498223E+02  0.65236445742E+02  0.11616871628E+03  0.16075474499E+03  0.41800000000E+01 0.  1.
         -5    1    3    3    0  502 -0.39709960864E+02  0.22619559589E+02  0.87324477854E+02  0.98648681189E+02  0.41800000000E+01 0.  1.
        -11    1    1    2    0    0 -0.76016449153E+02 -0.77025978199E+02  0.14190845481E+02  0.10914614952E+03  0.00000000000E+00 0.  1.
         11    1    1    2    0    0  0.25872911794E+02 -0.10830027132E+02 -0.75563100704E+00  0.28058297001E+02  0.00000000000E+00 0. -1.
</event>
<event>
 7    1  0.2641580E-009  0.1135483E+03  0.7561462E-02  0.1254137E+00
          1   -1    0    0  501    0  0.00000000000E+00  0.00000000000E+00  0.15930408029E+03  0.15930408029E+03  0.00000000000E+00 0. -1.
         -1   -1    0    0    0  501 -0.00000000000E+00 -0.00000000000E+00 -0.14542082689E+03  0.14542082689E+03  0.00000000000E+00 0.  1.
         25    2    1    2    0    0 -0.21065470857E+01 -0.85904722327E+02 -0.64343745200E+02  0.16484280626E+03  0.12509586072E+03 0.  0.
          5    1    3    3  502    0 -0.45047477407E+02 -0.82762224436E+02 -0.74751738170E+02  0.12035013824E+03  0.41800000000E+01 0. -1.
         -5    1    3    3    0  502  0.42940930321E+02 -0.31424978914E+01  0.10407992970E+02  0.44492668020E+02  0.41800000000E+01 0. -1.
        -11    1    1    2    0    0  0.12816506469E+02  0.30429850962E+02  0.76539270621E+02  0.83357654806E+02  0.00000000000E+00 0. -1.
         11    1    1    2    0    0 -0.10709959383E+02  0.55474871366E+02  0.16877279780E+01  0.56524446116E+02  0.00000000000E+00 0.  1.
</event>
<event>
 7    1  0.2641580E-009  0.1025929E+03  0.7561462E-02  0.1274936E+00
          1   -1    0    0  501    0  0.00000000000E+00  0.00000000000E+00  0.54895187009E+03  0.54895187009E+03  0.00000000000E+00 0. -1.
         -1   -1    0    0    0  501 -0.00000000000E+00 -0.00000000000E+00 -0.31246848830E+02  0.31246848830E+02  0.00000000000E+00 0.  1.
         25    2    1    2    0    0  0.11728471116E+02 -0.55761020930E+02  0.39148390740E+03  0.41491518539E+03  0.12509241716E+03 0.  0.
          5    1    3    3  502    0 -0.47970021311E+02 -0.28846373728E+02  0.27985376903E+03  0.28542747006E+03  0.41800000000E+01 0.  1.
         -5    1    3    3    0  502  0.59698492427E+02 -0.26914647202E+02  0.11163013836E+03  0.12948771534E+03  0.41800000000E+01 0.  1.
        -11    1    1    2    0    0 -0.69947565893E+01 -0.12866881955E+02 -0.63224601642E+01  0.15951701274E+02  0.00000000000E+00 0.  1.
         11    1    1    2    0    0 -0.47337145266E+01  0.68627902885E+02  0.13254357402E+03  0.14933183225E+03  0.00000000000E+00 0. -1.
</event>
<event>
 7    1  0.2641580E-009  0.8432756E+02  0.7561462E-02  0.1317200E+00
         -1   -1    0    0    0  501 -0.00000000000E+00  0.00000000000E+00  0.26355041284E+02  0.26355041284E+02  0.00000000000E+00 0.  1.
          1   -1    0    0  501    0  0.00000000000E+00 -0.00000000000E+00 -0.63746684885E+03  0.63746684885E+03  0.00000000000E+00 0. -1.
         25    2    1    2    0    0  0.60462209734E+02 -0.24863624103E+02 -0.40080225571E+03  0.42492772001E+03  0.12508893013E+03 0.  0.
          5    1    3    3  502    0  0.73677763331E+02 -0.28123818137E+02 -0.40287153218E+03  0.41053904296E+03  0.41800000000E+01 0.  1.
         -5    1    3    3    0  502 -0.13215553596E+02  0.32601940340E+01  0.20692764729E+01  0.14388677045E+02  0.41800000000E+01 0.  1.
        -11    1    1    2    0    0 -0.50393348504E+02  0.34842994741E+02 -0.21531371590E+03  0.22386049252E+03  0.00000000000E+00 0. -1.
         11    1    1    2    0    0 -0.10068861231E+02 -0.99793706379E+01  0.50041640375E+01  0.15033677611E+02  0.00000000000E+00 0.  1.
</event>
<event>
 7    1  0.2641580E-009  0.1859792E+03  0.7561462E-02  0.1162139E+00
         -1   -1    0    0    0  501 -0.00000000000E+00  0.00000000000E+00  0.56883948664E+02  0.56883948664E+02  0.00000000000E+00 0.  1.
          1   -1    0    0  501    0  0.00000000000E+00 -0.00000000000E+00 -0.63021810112E+03  0.63021810112E+03  0.00000000000E+00 0. -1.
         25    2    1    2    0    0 -0.10207079906E+02 -0.15416266764E+03 -0.27952695979E+03  0.34300626960E+03  0.12509063579E+03 0.  0.
          5    1    3    3  502    0 -0.43181488616E+02 -0.92402211452E+01 -0.10339142675E+03  0.11250458733E+03  0.41800000000E+01 0. -1.
         -5    1    3    3    0  502  0.32974408710E+02 -0.14492244650E+03 -0.17613553304E+03  0.23050168227E+03  0.41800000000E+01 0. -1.
        -11    1    1    2    0    0  0.20475797386E+01  0.16518790712E+03 -0.26679231366E+03  0.31379830444E+03  0.00000000000E+00 0.  1.
         11    1    1    2    0    0  0.81595001673E+01 -0.11025239479E+02 -0.27014879008E+02  0.30297475743E+02  0.00000000000E+00 0. -1.
</event>
<event>
 7    1  0.2641580E-009  0.1309200E+03  0.7561462E-02  0.1226097E+00
         -3   -1    0    0    0  501 -0.00000000000E+00  0.00000000000E+00  0.14828468382E+03  0.14828468382E+03  0.00000000000E+00 0.  1.
          3   -1    0    0  501    0  0.00000000000E+00 -0.00000000000E+00 -0.12293935218E+03  0.12293935218E+03  0.00000000000E+00 0. -1.
         25    2    1    2    0    0 -0.67062655899E+02  0.40436169387E+02  0.26162291275E+01  0.14760081325E+03  0.12508665718E+03 0.  0.
          5    1    3    3  502    0  0.34507381749E+02  0.63616758955E+00 -0.13408250797E+02  0.37261477343E+02  0.41800000000E+01 0.  1.
         -5    1    3    3    0  502 -0.10157003765E+03  0.39800001798E+02  0.16024479924E+02  0.11033933590E+03  0.41800000000E+01 0.  1.
        -11    1    1    2    0    0 -0.14278063406E+02 -0.33323983421E+02  0.21118186199E+02  0.41956271927E+02  0.00000000000E+00 0.  1.
         11    1    1    2    0    0  0.81340719306E+02 -0.71121859663E+01  0.16109163091E+01  0.81666950829E+02  0.00000000000E+00 0. -1.
</event>
<event>
 7    1  0.2641580E-009  0.9831449E+02  0.7561462E-02  0.1283881E+00
          1   -1    0    0  501    0  0.00000000000E+00  0.00000000000E+00  0.33377650239E+03  0.33377650239E+03  0.00000000000E+00 0. -1.
         -1   -1    0    0    0  501 -0.00000000000E+00 -0.00000000000E+00 -0.37294429243E+02  0.37294429243E+02  0.00000000000E+00 0.  1.
         25    2    1    2    0    0  0.22019601223E+02 -0.12452674395E+02  0.18018137409E+03  0.22079771727E+03  0.12508546057E+03 0.  0.
          5    1    3    3  502    0 -0.31994854450E+02  0.33821907893E+02  0.32819831813E+02  0.57115723974E+02  0.41800000000E+01 0.  1.
         -5    1    3    3    0  502  0.54014455674E+02 -0.46274582288E+02  0.14736154227E+03  0.16368199330E+03  0.41800000000E+01 0.  1.
        -11    1    1    2    0    0  0.17003508830E+02  0.31055145261E+02  0.96373405688E+02  0.10267119695E+03  0.00000000000E+00 0. -1.
         11    1    1    2    0    0 -0.39023110053E+02 -0.18602470867E+02  0.19927293375E+02  0.47602017413E+02  0.00000000000E+00 0.  1.
</event>
<event>
 7    1  0.2641580E-009  0.1534087E+03  0.7561462E-02  0.1196346E+00
          1   -1    0    0  501    0  0.00000000000E+00  0.00000000000E+00  0.85714242133E+02  0.85714242133E+02  0.00000000000E+00 0. -1.
         -1   -1    0    0    0  501 -0.00000000000E+00 -0.00000000000E+00 -0.29849684338E+03  0.29849684338E+03  0.00000000000E+00 0.  1.
         25    2    1    2    0    0  0.44780274318E+02  0.10344517104E+03 -0.77127415052E+02  0.18520917865E+03  0.12509046856E+03 0.  0.
          5    1    3    3  502    0 -0.27231844272E+02  0.83876410076E+02 -0.64670732221E+02  0.10943766041E+03  0.41800000000E+01 0.  1.
         -5    1    3    3    0  502  0.72012118590E+02  0.19568760959E+02 -0.12456682830E+02  0.75771518240E+02  0.41800000000E+01 0.  1.
        -11    1    1    2    0    0  0.21955790634E+02 -0.60677118567E+02 -0.76602595098E+02  0.10015850955E+03  0.00000000000E+00 0. -1.
         11    1    1    2    0    0 -0.66736064952E+02 -0.42768052468E+02 -0.59052591103E+02  0.98843397317E+02  0.00000000000E+00 0.  1.
</event>
<event>
 7    1  0.2641580E-009  0.1065787E+03  0.7561462E-02  0.1267040E+00
         -1   -1    0    0    0  501 -0.00000000000E+00  0.00000000000E+00  0.46073391869E+02  0.46073391869E+02  0.00000000000E+00 0.  1.
          1   -1    0    0  501    0  0.00000000000E+00 -0.00000000000E+00 -0.30902964097E+03  0.30902964097E+03  0.00000000000E+00 0. -1.
         25    2    1    2    0    0  0.12986880992E+02 -0.11162180646E+02 -0.21705929306E+03  0.25110834615E+03  0.12508961368E+03 0.  0.
          5    1    3    3  502    0  0.44361065377E+02  0.41126241573E+02 -0.14134200315E+03  0.15379956476E+03  0.41800000000E+01 0.  1.
         -5    1    3    3    0  502 -0.31374184385E+02 -0.52288422220E+02 -0.75717289909E+02  0.97308781388E+02  0.41800000000E+01 0.  1.
        -11    1    1    2    0    0 -0.51357746704E+02 -0.28049951410E+00 -0.15260110828E+02  0.53577680138E+02  0.00000000000E+00 0.  1.
         11    1    1    2    0    0  0.38370865712E+02  0.11442680160E+02 -0.30636845219E+02  0.50417006552E+02  0.00000000000E+00 0. -1.
</event>
<event>
 7    1  0.2641580E-009  0.1090958E+03  0.7561462E-02  0.1262253E+00
          1   -1    0    0  501    0  0.00000000000E+00  0.00000000000E+00  0.63823334554E+02  0.63823334554E+02  0.00000000000E+00 0. -1.
         -1   -1    0    0    0  501 -0.00000000000E+00 -0.00000000000E+00 -0.22071432063E+03  0.22071432063E+03  0.00000000000E+00 0.  1.
         25    2    1    2    0    0  0.17662276812E+02  0.31842924486E+02 -0.10958056345E+03  0.17023936032E+03  0.12509041552E+03 0.  0.
          5    1    3    3  502    0 -0.26544070980E+02 -0.30663490850E+02 -0.76598599512E+02  0.86773585972E+02  0.41800000000E+01 0.  1.
         -5    1    3    3    0  502  0.44206347792E+02  0.62506415335E+02 -0.32981963936E+02  0.83465774352E+02  0.41800000000E+01 0.  1.
        -11    1    1    2    0    0  0.36009437699E+02 -0.30287243743E+02 -0.79437715959E+01  0.47718971533E+02  0.00000000000E+00 0.  1.
         11    1    1    2    0    0 -0.53671714511E+02 -0.15556807422E+01 -0.39366651031E+02  0.66579323326E+02  0.00000000000E+00 0. -1.
</event>
<event>
 7    1  0.2641580E-009  0.1215995E+03  0.7561462E-02  0.1240481E+00
          1   -1    0    0  501    0  0.00000000000E+00  0.00000000000E+00  0.37160126963E+02  0.37160126963E+02  0.00000000000E+00 0. -1.
         -1   -1    0    0    0  501 -0.00000000000E+00 -0.00000000000E+00 -0.53834021566E+03  0.53834021566E+03  0.00000000000E+00 0.  1.
         25    2    1    2    0    0 -0.14107480978E+02 -0.67102593207E+02 -0.15774505652E+03  0.21268016077E+03  0.12509024301E+03 0.  0.
          5    1    3    3  502    0 -0.51403899953E+02 -0.82374071461E+02 -0.13459347745E+03  0.16601423177E+03  0.41800000000E+01 0.  1.
         -5    1    3    3    0  502  0.37296418974E+02  0.15271478254E+02 -0.23151579069E+02  0.46665929003E+02  0.41800000000E+01 0.  1.
        -11    1    1    2    0    0 -0.20054654028E+02  0.68427900093E+02 -0.14641016171E+03  0.16285116552E+03  0.00000000000E+00 0. -1.
         11    1    1    2    0    0  0.34162135006E+02 -0.13253068858E+01 -0.19702487047E+03  0.19996901633E+03  0.00000000000E+00 0.  1.
</event>
<event>
 7    1  0.2641580E-009  0.1094653E+03  0.7561462E-02  0.1261563E+00
          1   -1    0    0  501    0  0.00000000000E+00  0.00000000000E+00  0.43357725987E+03  0.43357725987E+03  0.00000000000E+00 0. -1.
         -1   -1    0    0    0  501 -0.00000000000E+00 -0.00000000000E+00 -0.32981387683E+02  0.32981387683E+02  0.00000000000E+00 0.  1.
         25    2    1    2    0    0  0.41064370571E+02  0.24278086579E+02  0.23065508409E+03  0.26669061284E+03  0.12508559926E+03 0.  0.
          5    1    3    3  502    0  0.23586720169E+02  0.72535082483E+02  0.97057020315E+02  0.12351197979E+03  0.41800000000E+01 0. -1.
         -5    1    3    3    0  502  0.17477650402E+02 -0.48256995904E+02  0.13359806378E+03  0.14317863305E+03  0.41800000000E+01 0. -1.
        -11    1    1    2    0    0  0.22794078469E+02 -0.18238132895E+00  0.80447234465E+01  0.24172729501E+02  0.00000000000E+00 0.  1.
         11    1    1    2    0    0 -0.63858449039E+02 -0.24095705250E+02  0.16189606465E+03  0.17569530521E+03  0.00000000000E+00 0. -1.
</event>
<event>
 7    1  0.2641580E-009  0.8786995E+02  0.7561462E-02  0.1308093E+00
         -2   -1    0    0    0  501 -0.00000000000E+00  0.00000000000E+00  0.34865901775E+02  0.34865901775E+02  0.00000000000E+00 0.  1.
          2   -1    0    0  501    0  0.00000000000E+00 -0.00000000000E+00 -0.40695997121E+03  0.40695997121E+03  0.00000000000E+00 0. -1.
         25    2    1    2    0    0 -0.95951749173E+01  0.41141896036E+00 -0.29435961373E+03  0.31997929330E+03  0.12508768646E+03 0.  0.
          5    1    3    3  502    0 -0.11798488995E+02  0.47044075704E+02 -0.25245899599E+03  0.25710963898E+03  0.41800000000E+01 0. -1.
         -5    1    3    3    0  502  0.22033140775E+01 -0.46632656743E+02 -0.41900617734E+02  0.62869654321E+02  0.41800000000E+01 0. -1.
        -11    1    1    2    0    0 -0.54882687292E+00 -0.39652664462E+02 -0.70191695722E+02  0.80619533354E+02  0.00000000000E+00 0. -1.
         11    1    1    2    0    0  0.10144001790E+02  0.39241245502E+02 -0.75427599906E+01  0.41227046331E+02  0.00000000000E+00 0.  1.
</event>
<event>
 7    1  0.2641580E-009  0.2479564E+03  0.7561462E-02  0.1114603E+00
          2   -1    0    0  501    0  0.00000000000E+00  0.00000000000E+00  0.12527492922E+03  0.12527492922E+03  0.00000000000E+00 0. -1.
         -2   -1    0    0    0  501 -0.00000000000E+00 -0.00000000000E+00 -0.52248208586E+03  0.52248208586E+03  0.00000000000E+00 0.  1.
         25    2    1    2    0    0 -0.22106722526E+03  0.67376462178E+02 -0.21413511722E+03  0.33898664129E+03  0.12509112201E+03 0.  0.
          5    1    3    3  502    0  0.94553261362E+01 -0.14289850082E+02 -0.20343845162E+02  0.26924848071E+02  0.41800000000E+01 0. -1.
         -5    1    3    3    0  502 -0.23052255139E+03  0.81666312259E+02 -0.19379127206E+03  0.31206179322E+03  0.41800000000E+01 0. -1.
        -11    1    1    2    0    0  0.18003991573E+03 -0.40218891344E+02 -0.18260057515E+03  0.25956675543E+03  0.00000000000E+00 0. -1.
         11    1    1    2    0    0  0.41027309531E+02 -0.27157570834E+02 -0.47146426360E+00  0.49203618358E+02  0.00000000000E+00 0.  1.
</event>
<event>
 7    1  0.2641580E-009  0.1343183E+03  0.7561462E-02  0.1221185E+00
         -2   -1    0    0    0  501 -0.00000000000E+00  0.00000000000E+00  0.14378346647E+02  0.14378346647E+02  0.00000000000E+00 0.  1.
          2   -1    0    0  501    0  0.00000000000E+00 -0.00000000000E+00 -0.17789010361E+04  0.17789010361E+04  0.00000000000E+00 0. -1.
         25    2    1    2    0    0 -0.47401588390E+02  0.10609304947E+03 -0.10607344476E+04  0.10743869845E+04  0.12508868209E+03 0.  0.
          5    1    3    3  502    0 -0.15982862636E+02  0.79235630940E+02 -0.25401731792E+03  0.26660083892E+03  0.41800000000E+01 0.  1.
         -5    1    3    3    0  502 -0.31418725754E+02  0.26857418528E+02 -0.80671712970E+03  0.80778614559E+03  0.41800000000E+01 0.  1.
        -11    1    1    2    0    0  0.38233784879E+02  0.14097543374E+01 -0.20962295826E+03  0.21308588490E+03  0.00000000000E+00 0.  1.
         11    1    1    2    0    0  0.91678035105E+01 -0.10750280381E+03 -0.49416528357E+03  0.50580651333E+03  0.00000000000E+00 0. -1.
</event>
<event>
 7    1  0.2641580E-009  0.1079786E+03  0.7561462E-02  0.1264360E+00
          1   -1    0    0  501    0  0.00000000000E+00  0.00000000000E+00  0.17152796178E+02  0.17152796178E+02  0.00000000000E+00 0. -1.
         -1   -1    0    0    0  501 -0.00000000000E+00 -0.00000000000E+00 -0.84691315686E+03  0.84691315686E+03  0.00000000000E+00 0.  1.
         25    2    1    2    0    0 -0.14328306654E+02  0.41522377515E+02 -0.56360880344E+03  0.57899151003E+03  0.12508747806E+03 0.  0.
          5    1    3    3  502    0 -0.32517407338E+02  0.79543317120E+02 -0.30357611407E+03  0.31553201187E+03  0.41800000000E+01 0. -1.
         -5    1    3    3    0  502  0.18189100684E+02 -0.38020939606E+02 -0.26003268937E+03  0.26345949816E+03  0.41800000000E+01 0. -1.
        -11    1    1    2    0    0 -0.31374338576E+02 -0.17895067407E+02 -0.18847408410E+03  0.19190378562E+03  0.00000000000E+00 0.  1.
         11    1    1    2    0    0  0.45702645230E+02 -0.23627310108E+02 -0.77677473139E+02  0.93170657383E+02  0.00000000000E+00 0. -1.
</event>
<event>
 7    1  0.2641580E-009  0.1767721E+03  0.7561462E-02  0.1170964E+00
          2   -1    0    0  501    0  0.00000000000E+00  0.00000000000E+00  0.14389384164E+04  0.14389384164E+04  0.00000000000E+00 0. -1.
         -2   -1    0    0    0  501 -0.00000000000E+00 -0.00000000000E+00 -0.25494862487E+02  0.25494862487E+02  0.00000000000E+00 0.  1.
         25    2    1    2    0    0 -0.12177612138E+03 -0.95208372768E+02  0.82345741667E+03  0.84712626305E+03  0.12508689176E+03 0.  0.
          5    1    3    3  502    0 -0.76093418769E+02 -0.90050585827E+01  0.57615693253E+03  0.58124485612E+03  0.41800000000E+01 0.  1.
         -5    1    3    3    0  502 -0.45682702615E+02 -0.86203314186E+02  0.24730048414E+03  0.26588140693E+03  0.41800000000E+01 0.  1.
        -11    1    1    2    0    0  0.96624113878E+01  0.61257666208E+02  0.15843164978E+03  0.17013656725E+03  0.00000000000E+00 0. -1.
         11    1    1    2    0    0  0.11211371000E+03  0.33950706561E+02  0.43155448747E+03  0.44717044860E+03  0.00000000000E+00 0.  1.
</event>
<event>
 6    1  0.2641580E-009  0.1010605E+03  0.7561462E-02  0.1278082E+00
          2   -1    0    0  501    0  0.00000000000E+00  0.00000000000E+00  0.43414607739E+03  0.43414607739E+03  0.00000000000E+00 0. -1.
         -2   -1    0    0    0  501 -0.00000000000E+00 -0.00000000000E+00 -0.49589369899E+02  0.49589369899E+02  0.00000000000E+00 0.  1.
          5    1    1    2  502    0  0.49361744596E+02  0.53069180497E+02 -0.47022514585E+01  0.72749593242E+02  0.41800000000E+01 0.  1.
         -5    1    1    2    0  502 -0.27047012549E+02 -0.10333649664E+02  0.71265011309E+02  0.77035702373E+02  0.41800000000E+01 0.  1.
        -11    1    1    2    0    0 -0.57936962694E+01 -0.68999018803E+02  0.18922333420E+03  0.20149417291E+03  0.00000000000E+00 0. -1.
         11    1    1    2    0    0 -0.16521035778E+02  0.26263487970E+02  0.12877061344E+03  0.13245597876E+03  0.00000000000E+00 0.  1.
</event>
<event>
 7    1  0.2641580E-009  0.9127733E+02  0.7561462E-02  0.1299788E+00
         -1   -1    0    0    0  501 -0.00000000000E+00  0.00000000000E+00  0.38579204563E+02  0.38579204563E+02  0.00000000000E+00 0.  1.
          1   -1    0    0  501    0  0.00000000000E+00 -0.00000000000E+00 -0.45874446961E+03  0.45874446961E+03  0.00000000000E+00 0. -1.
         25    2    1    2    0    0  0.14290307892E+02  0.61545712684E+02 -0.30423038629E+03  0.33495695047E+03  0.12509173863E+03 0.  0.
          5    1    3    3  502    0 -0.13833710815E+02  0.58306267454E+02 -0.47352624464E+02  0.76490102778E+02  0.41800000000E+01 0. -1.
         -5    1    3    3    0  502  0.28124018707E+02  0.32394452298E+01 -0.25687776183E+03  0.25846684769E+03  0.41800000000E+01 0. -1.
        -11    1    1    2    0    0 -0.37627984198E+02 -0.12666903147E+02 -0.64595729906E+01  0.40224889227E+02  0.00000000000E+00 0.  1.
         11    1    1    2    0    0  0.23337676306E+02 -0.48878809537E+02 -0.10947530577E+03  0.12214183448E+03  0.00000000000E+00 0. -1.
</event>
<event>
 7    1  0.2641580E-009  0.9925720E+02  0.7561462E-02  0.1281866E+00
         -1   -1    0    0    0  501 -0.00000000000E+00  0.00000000000E+00  0.52996457165E+02  0.52996457165E+02  0.00000000000E+00 0.  1.
          1   -1    0    0  501    0  0.00000000000E+00 -0.00000000000E+00 -0.33062260544E+03  0.33062260544E+03  0.00000000000E+00 0. -1.
         25    2    1    2    0    0  0.21024302511E+02  0.69288266250E+02 -0.18516905949E+03  0.23492373761E+03  0.12513471446E+03 0.  0.
          5    1    3    3  502    0 -0.12542729872E+02  0.10863627224E+02  0.15570835774E+02  0.23135725530E+02  0.41800000000E+01 0. -1.
         -5    1    3    3    0  502  0.33567032383E+02  0.58424639026E+02 -0.20073989527E+03  0.21178801208E+03  0.41800000000E+01 0. -1.
        -11    1    1    2    0    0 -0.51728266211E+02 -0.64716987860E+02 -0.80235864315E+02  0.11533384571E+03  0.00000000000E+00 0.  1.
         11    1    1    2    0    0  0.30703963700E+02 -0.45712783908E+01 -0.12221224467E+02  0.33361479291E+02  0.00000000000E+00 0. -1.
</event>
<event>
 7    1  0.2641580E-009  0.1203922E+03  0.7561462E-02  0.1242451E+00
         -2   -1    0    0    0  501 -0.00000000000E+00  0.00000000000E+00  0.34414354844E+02  0.34414354844E+02  0.00000000000E+00 0.  1.
          2   -1    0    0  501    0  0.00000000000E+00 -0.00000000000E+00 -0.82881288305E+03  0.82881288305E+03  0.00000000000E+00 0. -1.
         25    2    1    2    0    0  0.87782518828E+02  0.80655223376E+02 -0.29701748094E+03  0.34362199032E+03  0.12508258303E+03 0.  0.
          5    1    3    3  502    0  0.28353567572E+02  0.22428237459E+02 -0.13225915871E+01  0.36416648365E+02  0.41800000000E+01 0. -1.
         -5    1    3    3    0  502  0.59428951256E+02  0.58226985917E+02 -0.29569488935E+03  0.30720534195E+03  0.41800000000E+01 0. -1.
        -11    1    1    2    0    0 -0.58998523646E+02 -0.40023290925E+02 -0.42973418994E+03  0.43560780941E+03  0.00000000000E+00 0. -1.
         11    1    1    2    0    0 -0.28783995182E+02 -0.40631932451E+02 -0.67646857325E+02  0.83997438171E+02  0.00000000000E+00 0.  1.
</event>
<event>
 7    1  0.2641580E-009  0.1137430E+03  0.7561462E-02  0.1253791E+00
          1   -1    0    0  501    0  0.00000000000E+00  0.00000000000E+00  0.45096736625E+03  0.45096736625E+03  0.00000000000E+00 0. -1.
         -1   -1    0    0    0  501 -0.00000000000E+00 -0.00000000000E+00 -0.37532996285E+02  0.37532996285E+02  0.00000000000E+00 0.  1.
         25    2    1    2    0    0 -0.58606747913E+02  0.28482281924E+02  0.17680714420E+03  0.22617242882E+03  0.12508880858E+03 0.  0.
          5    1    3    3  502    0 -0.87946931572E+02  0.51456088824E+02  0.14331371825E+03  0.17589396263E+03  0.41800000000E+01 0. -1.
         -5    1    3    3    0  502  0.29340183659E+02 -0.22973806900E+02  0.33493425950E+02  0.50278466190E+02  0.41800000000E+01 0. -1.
        -11    1    1    2    0    0  0.11419187354E+01 -0.30486866718E+02  0.16236304261E+02  0.34559667196E+02  0.00000000000E+00 0.  1.
         11    1    1    2    0    0  0.57464829178E+02  0.20045847937E+01  0.22039092150E+03  0.22776826652E+03  0.00000000000E+00 0. -1.
</event>
<event>
 7    1  0.2641580E-009  0.1101591E+03  0.7561462E-02  0.1260276E+00
          2   -1    0    0  501    0  0.00000000000E+00  0.00000000000E+00  0.46800349501E+03  0.46800349501E+03  0.00000000000E+00 0. -1.
         -2   -1    0    0    0  501 -0.00000000000E+00 -0.00000000000E+00 -0.27212302121E+02  0.27212302121E+02  0.00000000000E+00 0.  1.
         25    2    1    2    0    0 -0.19373528114E+02 -0.18640712834E+02  0.29267850140E+03  0.31942159795E+03  0.12508653920E+03 0.  0.
          5    1    3    3  502    0  0.52205420165E+02 -0.11981511150E+02  0.96546380433E+02  0.11048818253E+03  0.41800000000E+01 0. -1.
         -5    1    3    3    0  502 -0.71578948279E+02 -0.66592016844E+01  0.19613212096E+03  0.20893341542E+03  0.41800000000E+01 0. -1.
        -11    1    1    2    0    0 -0.34737618414E+02  0.20691417424E+02  0.67475458703E+02  0.78662407891E+02  0.00000000000E+00 0. -1.
         11    1    1    2    0    0  0.54111146528E+02 -0.20507045898E+01  0.80637232793E+02  0.97131791296E+02  0.00000000000E+00 0.  1.
</event>
<event>
 7    1  0.2641580E-009  0.1120508E+03  0.7561462E-02  0.1256819E+00
          2   -1    0    0  501    0  0.00000000000E+00  0.00000000000E+00  0.26225024082E+03  0.26225024082E+03  0.00000000000E+00 0.  1.
         -2   -1    0    0    0  501 -0.00000000000E+00 -0.00000000000E+00 -0.12963644234E+03  0.12963644234E+03  0.00000000000E+00 0. -1.
         25    2    1    2    0    0 -0.42094031658E+02  0.56276781722E+01  0.22131674026E+03  0.25774201431E+03  0.12508504371E+03 0.  0.
          5    1    3    3  502    0  0.40862377458E+02  0.17267645958E+01  0.11897196999E+03  0.12587500804E+03  0.41800000000E+01 0.  1.
         -5    1    3    3    0  502 -0.82956409117E+02  0.39009135763E+01  0.10234477027E+03  0.13186700627E+03  0.41800000000E+01 0.  1.
        -11    1    1    2    0    0  0.69353792838E+02  0.71674120624E+01 -0.53938593968E+02  0.88151530310E+02  0.00000000000E+00 0.  1.
         11    1    1    2    0    0 -0.27259761180E+02 -0.12795090235E+02 -0.34764347816E+02  0.45993138540E+02  0.00000000000E+00 0. -1.
</event>
<event>
 7    1  0.2641580E-009  0.8828574E+02  0.7561462E-02  0.1307057E+00
         -2   -1    0    0    0  501 -0.00000000000E+00  0.00000000000E+00  0.12420749917E+02  0.12420749917E+02  0.00000000000E+00 0.  1.
          2   -1    0    0  501    0  0.00000000000E+00 -0.00000000000E+00 -0.10309435084E+04  0.10309435084E+04  0.00000000000E+00 0. -1.
         25    2    1    2    0    0  0.26908890201E+02  0.20396459351E+02 -0.52849372903E+03  0.54414559757E+03  0.12509478728E+03 0.  0.
          5    1    3    3  502    0 -0.22143842311E+01  0.43673925091E+02 -0.61123112501E+02  0.75271658094E+02  0.41800000000E+01 0. -1.
         -5    1    3    3    0  502  0.29123274432E+02 -0.23277465741E+02 -0.46737061652E+03  0.46887393947E+03  0.41800000000E+01 0. -1.
        -11    1    1    2    0    0  0.32348978438E+02 -0.14893851118E+02 -0.20014663331E+03  0.20329032941E+03  0.00000000000E+00 0. -1.
         11    1    1    2    0    0 -0.59257868639E+02 -0.55026082325E+01 -0.28988239616E+03  0.29592833136E+03  0.00000000000E+00 0.  1.
</event>
<event>
 7    1  0.2641580E-009  0.1519443E+03  0.7561462E-02  0.1198104E+00
         -1   -1    0    0    0  501 -0.00000000000E+00  0.00000000000E+00  0.48480112487E+02  0.48480112487E+02  0.00000000000E+00 0.  1.
          1   -1    0    0  501    0  0.00000000000E+00 -0.00000000000E+00 -0.49013677495E+03  0.49013677495E+03  0.00000000000E+00 0. -1.
         25    2    1    2    0    0 -0.62774099936E+01  0.10927522635E+03 -0.23743746949E+03  0.28985939645E+03  0.12514566241E+03 0.  0.
          5    1    3    3  502    0 -0.52070773126E+02  0.10456051069E+03 -0.14279963214E+03  0.18453583161E+03  0.41800000000E+01 0.  1.
         -5    1    3    3    0  502  0.45793363133E+02  0.47147156609E+01 -0.94637837351E+02  0.10532356483E+03  0.41800000000E+01 0.  1.
        -11    1    1    2    0    0  0.45707629659E+02 -0.78193505831E+02 -0.11503664200E+03  0.14641325338E+03  0.00000000000E+00 0.  1.
         11    1    1    2    0    0 -0.39430219665E+02 -0.31081720521E+02 -0.89182550980E+02  0.10234423761E+03  0.00000000000E+00 0. -1.
</event>
<event>
 7    1  0.3046621E-009  0.2545222E+03  0.7561462E-02  0.1110480E+00
          2   -1    0    0  501    0  0.00000000000E+00  0.00000000000E+00  0.13726249405E+04  0.13726249405E+04  0.00000000000E+00 0. -1.
         -2   -1    0    0    0  501 -0.00000000000E+00 -0.00000000000E+00 -0.52255852152E+02  0.52255852152E+02  0.00000000000E+00 0.  1.
         25    2    1    2    0    0 -0.50207141115E+02 -0.23817926497E+03  0.73697715865E+03  0.78615236025E+03  0.12510028724E+03 0.  0.
          5    1    3    3  502    0  0.68565416213E+00 -0.14137850612E+03  0.25201055317E+03  0.28898986733E+03  0.41800000000E+01 0. -1.
         -5    1    3    3    0  502 -0.50892795277E+02 -0.96800758857E+02  0.48496660548E+03  0.49716249291E+03  0.41800000000E+01 0. -1.
        -11    1    1    2    0    0  0.74659793015E+02  0.18965835171E+03  0.42666384855E+03  0.47284925159E+03  0.00000000000E+00 0.  1.
         11    1    1    2    0    0 -0.24452651900E+02  0.48520913260E+02  0.15672808113E+03  0.16587918081E+03  0.00000000000E+00 0. -1.
</event>
<event>
 7    1  0.2641580E-009  0.1393570E+03  0.7561462E-02  0.1214197E+00
          1   -1    0    0  501    0  0.00000000000E+00  0.00000000000E+00  0.35819518686E+03  0.35819518686E+03  0.00000000000E+00 0. -1.
         -1   -1    0    0    0  501 -0.00000000000E+00 -0.00000000000E+00 -0.75369404658E+02  0.75369404658E+02  0.00000000000E+00 0.  1.
         25    2    1    2    0    0 -0.65674551408E+02  0.94593513776E+02  0.20925396868E+03  0.26962168617E+03  0.12509017025E+03 0.  0.
          5    1    3    3  502    0 -0.75860910007E+02  0.46620631034E+02  0.48454414536E+02  0.10145769361E+03  0.41800000000E+01 0. -1.
         -5    1    3    3    0  502  0.10186358598E+02  0.47972882742E+02  0.16079955414E+03  0.16816399255E+03  0.41800000000E+01 0. -1.
        -11    1    1    2    0    0  0.74876780942E+02 -0.10336878618E+03  0.49849870183E+02  0.13702790897E+03  0.00000000000E+00 0.  1.
         11    1    1    2    0    0 -0.92022295335E+01  0.87752724023E+01  0.23721943342E+02  0.26914996378E+02  0.00000000000E+00 0. -1.
</event>
<event>
 7    1  0.2641580E-009  0.1132657E+03  0.7561462E-02  0.1254639E+00
         -1   -1    0    0    0  501 -0.00000000000E+00  0.00000000000E+00  0.36730559367E+02  0.36730559367E+02  0.00000000000E+00 0.  1.
          1   -1    0    0  501    0  0.00000000000E+00 -0.00000000000E+00 -0.37062064873E+03  0.37062064873E+03  0.00000000000E+00 0. -1.
         25    2    1    2    0    0 -0.33576994572E+02  0.30798367016E+02 -0.21999110766E+03  0.25713762111E+03  0.12509082606E+03 0.  0.
          5    1    3    3  502    0 -0.49904473165E+02  0.69944475718E+02 -0.17593445961E+03  0.19583945620E+03  0.41800000000E+01 0.  1.
         -5    1    3    3    0  502  0.16327478592E+02 -0.39146108703E+02 -0.44056648050E+02  0.61298164908E+02  0.41800000000E+01 0.  1.
        -11    1    1    2    0    0  0.46532776685E+02 -0.54018370239E+02 -0.85012683312E+02  0.11095242202E+03  0.00000000000E+00 0. -1.
         11    1    1    2    0    0 -0.12955782113E+02  0.23220003223E+02 -0.28886298392E+02  0.39261164968E+02  0.00000000000E+00 0.  1.
</event>
<event>
 7    1  0.2641580E-009  0.1658347E+03  0.7561462E-02  0.1182262E+00
         -1   -1    0    0    0  501 -0.00000000000E+00  0.00000000000E+00  0.17409720012E+03  0.17409720012E+03  0.00000000000E+00 0.  1.
          1   -1    0    0  501    0  0.00000000000E+00 -0.00000000000E+00 -0.20758834554E+03  0.20758834554E+03  0.00000000000E+00 0. -1.
         25    2    1    2    0    0  0.95624000961E+02  0.12018232915E+03 -0.36846686621E+02  0.20147831187E+03  0.12509232605E+03 0.  0.
          5    1    3    3  502    0  0.98667829753E+02  0.11338029746E+03 -0.70994872730E+02  0.16627740927E+03  0.41800000000E+01 0. -1.
         -5    1    3    3    0  502 -0.30438287915E+01  0.68020316912E+01  0.34148186108E+02  0.35200902592E+02  0.41800000000E+01 0. -1.
        -11    1    1    2    0    0 -0.73152453560E+02 -0.28727916952E+02 -0.23940094751E+02  0.82156574971E+02  0.00000000000E+00 0.  1.
         11    1    1    2    0    0 -0.22471547401E+02 -0.91454412201E+02  0.27295635950E+02  0.98050658823E+02  0.00000000000E+00 0. -1.
</event>
<event>
 7    1  0.2641580E-009  0.1276055E+03  0.7561462E-02  0.1231053E+00
         -2   -1    0    0    0  501 -0.00000000000E+00  0.00000000000E+00  0.30722901701E+03  0.30722901701E+03  0.00000000000E+00 0.  1.
          2   -1    0    0  501    0  0.00000000000E+00 -0.00000000000E+00 -0.25560101135E+03  0.25560101135E+03  0.00000000000E+00 0. -1.
         25    2    1    2    0    0  0.54898586281E+02  0.84634412065E+02 -0.21143637425E+03  0.26557429454E+03  0.12509007587E+03 0.  0.
          5    1    3    3  502    0 -0.22007744036E+01  0.71990254919E+02 -0.36056913495E+02  0.80653664654E+02  0.41800000000E+01 0. -1.
         -5    1    3    3    0  502  0.57099360685E+02  0.12644157146E+02 -0.17537946076E+03  0.18492062988E+03  0.41800000000E+01 0. -1.
        -11    1    1    2    0    0  0.18144846810E+02 -0.18145429251E+02  0.12433893032E+03  0.12695929135E+03  0.00000000000E+00 0.  1.
         11    1    1    2    0    0 -0.73043433091E+02 -0.66488982814E+02  0.13872544959E+03  0.17029644247E+03  0.00000000000E+00 0. -1.
</event>
<event>
 7    1  0.2641580E-009  0.7936446E+02  0.7561462E-02  0.1330865E+00
         -3   -1    0    0    0  501 -0.00000000000E+00  0.00000000000E+00  0.18067716038E+03  0.18067716038E+03  0.00000000000E+00 0.  1.
          3   -1    0    0  501    0  0.00000000000E+00 -0.00000000000E+00 -0.83397314794E+02  0.83397314794E+02  0.00000000000E+00 0. -1.
         25    2    1    2    0    0  0.44251977538E+02 -0.36125491315E+02  0.59447810313E+02  0.14981771386E+03  0.12509203251E+03 0.  0.
          5    1    3    3  502    0  0.26482354069E+02  0.37245787719E+01 -0.35851173361E+02  0.44921783084E+02  0.41800000000E+01 0.  1.
         -5    1    3    3    0  502  0.17769623469E+02 -0.39850070087E+02  0.95298983675E+02  0.10489593078E+03  0.41800000000E+01 0.  1.
        -11    1    1    2    0    0 -0.58419271115E+02  0.42550636482E+02  0.55199164251E+02  0.90941275759E+02  0.00000000000E+00 0.  1.
         11    1    1    2    0    0  0.14167293577E+02 -0.64251451667E+01 -0.17367128978E+02  0.23315485555E+02  0.00000000000E+00 0. -1.
</event>
<event>
 7    1  0.2641580E-009  0.1032715E+03  0.7561462E-02  0.1273563E+00
         -1   -1    0    0    0  501 -0.00000000000E+00  0.00000000000E+00  0.27065087508E+03  0.27065087508E+03  0.00000000000E+00 0.  1.
          1   -1    0    0  501    0  0.00000000000E+00 -0.00000000000E+00 -0.60509086851E+02  0.60509086851E+02  0.00000000000E+00 0. -1.
         25    2    1    2    0    0 -0.87964959357E+01  0.54000407864E+02  0.16622490235E+03  0.21510968540E+03  0.12509211086E+03 0.  0.
          5    1    3    3  502    0 -0.43715122929E+02  0.69916039866E+02  0.59926355935E+02  0.10201914104E+03  0.41800000000E+01 0. -1.
         -5    1    3    3    0  502  0.34918626993E+02 -0.15915632001E+02  0.10629854641E+03  0.11309054435E+03  0.41800000000E+01 0. -1.
        -11    1    1    2    0    0 -0.15659817696E+02 -0.58457400758E+02 -0.54643980352E+01  0.60764769724E+02  0.00000000000E+00 0. -1.
         11    1    1    2    0    0  0.24456313632E+02  0.44569928940E+01  0.49381283913E+02  0.55285506808E+02  0.00000000000E+00 0.  1.
</event>
<event>
 7    1  0.2641580E-009  0.9155855E+02  0.7561462E-02  0.1299121E+00
         -2   -1    0    0    0  501 -0.00000000000E+00  0.00000000000E+00  0.28630062175E+02  0.28630062175E+02  0.00000000000E+00 0.  1.
          2   -1    0    0  501    0  0.00000000000E+00 -0.00000000000E+00 -0.60989098020E+03  0.60989098020E+03  0.00000000000E+00 0. -1.
         25    2    1    2    0    0 -0.76929793508E+02 -0.91465948126E+01 -0.27090983880E+03  0.30828771014E+03  0.12508924069E+03 0.  0.
          5    1    3    3  502    0 -0.49308699744E+02 -0.26634759624E+00 -0.27434646471E+03  0.27877387594E+03  0.41800000000E+01 0. -1.
         -5    1    3    3    0  502 -0.27621093764E+02 -0.88802472164E+01  0.34366259034E+01  0.29513834196E+02  0.41800000000E+01 0. -1.
        -11    1    1    2    0    0  0.47521742840E+02  0.39691397611E+02 -0.24203020159E+03  0.24982462162E+03  0.00000000000E+00 0. -1.
         11    1    1    2    0    0  0.29408050667E+02 -0.30544802799E+02 -0.68320877628E+02  0.80408710610E+02  0.00000000000E+00 0.  1.
</event>
<event>
 7    1  0.2641580E-009  0.1122699E+03  0.7561462E-02  0.1256423E+00
          2   -1    0    0  501    0  0.00000000000E+00  0.00000000000E+00  0.22191250476E+04  0.22191250476E+04  0.00000000000E+00 0. -1.
         -2   -1    0    0    0  501 -0.00000000000E+00 -0.00000000000E+00 -0.11769413591E+02  0.11769413591E+02  0.00000000000E+00 0.  1.
         25    2    1    2    0    0  0.28509947771E+02  0.62594727459E+02  0.18529071349E+04  0.18583979786E+04  0.12508908584E+03 0.  0.
          5    1    3    3  502    0  0.59641001642E+02  0.41466050248E+02  0.53244957813E+03  0.53739790477E+03  0.41800000000E+01 0.  1.
         -5    1    3    3    0  502 -0.31131053870E+02  0.21128677210E+02  0.13204575567E+04  0.13210000738E+04  0.41800000000E+01 0.  1.
        -11    1    1    2    0    0  0.24016867126E+02 -0.56066226604E+02  0.20889617575E+03  0.21761857438E+03  0.00000000000E+00 0.  1.
         11    1    1    2    0    0 -0.52526814898E+02 -0.65285008546E+01  0.14555232338E+03  0.15487790819E+03  0.00000000000E+00 0. -1.
</event>
<event>
 7    1  0.2641580E-009  0.1069266E+03  0.7561462E-02  0.1266370E+00
          3   -1    0    0  501    0  0.00000000000E+00  0.00000000000E+00  0.15783605491E+03  0.15783605491E+03  0.00000000000E+00 0. -1.
         -3   -1    0    0    0  501 -0.00000000000E+00 -0.00000000000E+00 -0.10722439857E+03  0.10722439857E+03  0.00000000000E+00 0.  1.
         25    2    1    2    0    0  0.67055672807E+02 -0.21655484220E+02  0.50770441647E+02  0.15228467021E+03  0.12509020658E+03 0.  0.
          5    1    3    3  502    0 -0.25072803762E+02 -0.34156725235E+02 -0.64080630297E+01  0.43056509834E+02  0.41800000000E+01 0.  1.
         -5    1    3    3    0  502  0.92128476570E+02  0.12501241015E+02  0.57178504677E+02  0.10922816038E+03  0.41800000000E+01 0.  1.
        -11    1    1    2    0    0 -0.44097502767E+02  0.30488161620E+02 -0.39351510208E+02  0.66503075906E+02  0.00000000000E+00 0.  1.
         11    1    1    2    0    0 -0.22958170041E+02 -0.88326773998E+01  0.39192724904E+02  0.46272707367E+02  0.00000000000E+00 0. -1.
</event>
<event>
 7    1  0.2641580E-009  0.6305916E+02  0.7561462E-02  0.1385425E+00
         -2   -1    0    0    0  501 -0.00000000000E+00  0.00000000000E+00  0.18632925570E+02  0.18632925570E+02  0.00000000000E+00 0.  1.
          2   -1    0    0  501    0  0.00000000000E+00 -0.00000000000E+00 -0.92385216391E+03  0.92385216391E+03  0.00000000000E+00 0. -1.
         25    2    1    2    0    0  0.11631436798E+02  0.33623638580E+02 -0.73520682837E+03  0.74662144584E+03  0.12509461825E+03 0.  0.
          5    1    3    3  502    0  0.96070746000E+01 -0.18853165161E+02 -0.19804109622E+02  0.29281613290E+02  0.41800000000E+01 0.  1.
         -5    1    3    3    0  502  0.20243621984E+01  0.52476803740E+02 -0.71540271875E+03  0.71733983255E+03  0.41800000000E+01 0.  1.
        -11    1    1    2    0    0 -0.20314010201E+02 -0.36213412152E+01  0.22829702154E+01  0.20760180048E+02  0.00000000000E+00 0.  1.
         11    1    1    2    0    0  0.86825734022E+01 -0.30002297365E+02 -0.17229538019E+03  0.17510346359E+03  0.00000000000E+00 0. -1.
</event>
<event>
 7    1  0.2641580E-009  0.1011630E+03  0.7561462E-02  0.1277869E+00
         -1   -1    0    0    0  501 -0.00000000000E+00  0.00000000000E+00  0.33916941712E+03  0.33916941712E+03  0.00000000000E+00 0.  1.
          1   -1    0    0  501    0  0.00000000000E+00 -0.00000000000E+00 -0.41869434854E+02  0.41869434854E+02  0.00000000000E+00 0. -1.
         25    2    1    2    0    0  0.11802014659E+02 -0.35018355158E+02  0.12462323762E+03  0.18041427640E+03  0.12511109873E+03 0.  0.
          5    1    3    3  502    0 -0.35284498911E+02 -0.40440332113E+02  0.12130962487E+03  0.13271742090E+03  0.41800000000E+01 0.  1.
         -5    1    3    3    0  502  0.47086513570E+02  0.54219769547E+01  0.33136127459E+01  0.47696855491E+02  0.41800000000E+01 0.  1.
        -11    1    1    2    0    0 -0.32580552459E+02  0.60087226740E+02  0.10169450035E+03  0.12253056197E+03  0.00000000000E+00 0. -1.
         11    1    1    2    0    0  0.20778537800E+02 -0.25068871582E+02  0.70982244298E+02  0.78094013606E+02  0.00000000000E+00 0.  1.
</event>
<event>
 7    1  0.2641580E-009  0.1032944E+03  0.7561462E-02  0.1273517E+00
          1   -1    0    0  501    0  0.00000000000E+00  0.00000000000E+00  0.42458226283E+03  0.42458226283E+03  0.00000000000E+00 0. -1.
         -1   -1    0    0    0  501 -0.00000000000E+00 -0.00000000000E+00 -0.28273294814E+02  0.28273294814E+02  0.00000000000E+00 0.  1.
         25    2    1    2    0    0  0.19041857006E+02 -0.44990303686E+01  0.23573963714E+03  0.26758583151E+03  0.12508463981E+03 0.  0.
          5    1    3    3  502    0 -0.20180995033E+02 -0.57110453559E+02  0.10702654844E+03  0.12304889653E+03  0.41800000000E+01 0. -1.
         -5    1    3    3    0  502  0.39222852039E+02  0.52611423191E+02  0.12871308870E+03  0.14453693498E+03  0.41800000000E+01 0. -1.
        -11    1    1    2    0    0 -0.34974789181E+02 -0.27420411874E+02  0.13286488061E+03  0.14010064727E+03  0.00000000000E+00 0. -1.
         11    1    1    2    0    0  0.15932932175E+02  0.31919442243E+02  0.27704450274E+02  0.45169078868E+02  0.00000000000E+00 0.  1.
</event>
<event>
 7    1  0.2641580E-009  0.9474205E+02  0.7561462E-02  0.1291758E+00
          1   -1    0    0  501    0  0.00000000000E+00  0.00000000000E+00  0.24033609479E+03  0.24033609479E+03  0.00000000000E+00 0. -1.
         -1   -1    0    0    0  501 -0.00000000000E+00 -0.00000000000E+00 -0.71884142230E+02  0.71884142230E+02  0.00000000000E+00 0.  1.
         25    2    1    2    0    0  0.15375697019E+02  0.45758996043E+02  0.15992504629E+03  0.20869671237E+03  0.12509196435E+03 0.  0.
          5    1    3    3  502    0 -0.11153656277E+02  0.69936249228E+02  0.35890127445E+02  0.79505073124E+02  0.41800000000E+01 0. -1.
         -5    1    3    3    0  502  0.26529353296E+02 -0.24177253186E+02  0.12403491885E+03  0.12919163925E+03  0.41800000000E+01 0. -1.
        -11    1    1    2    0    0  0.15005123577E+02 -0.49564869674E+02 -0.25520925373E+02  0.57733419016E+02  0.00000000000E+00 0.  1.
         11    1    1    2    0    0 -0.30380820596E+02  0.38058736313E+01  0.34047831635E+02  0.45790105626E+02  0.00000000000E+00 0. -1.
</event>
<event>
 7    1  0.2641580E-009  0.7533802E+02  0.7561462E-02  0.1342827E+00
         -1   -1    0    0    0  501 -0.00000000000E+00  0.00000000000E+00  0.13678395505E+03  0.13678395505E+03  0.00000000000E+00 0.  1.
          1   -1    0    0  501    0  0.00000000000E+00 -0.00000000000E+00 -0.13330347272E+03  0.13330347272E+03  0.00000000000E+00 0. -1.
         25    2    1    2    0    0  0.27939440719E+02 -0.41769544800E+02 -0.61706963361E+02  0.14825930440E+03  0.12509102603E+03 0.  0.
          5    1    3    3  502    0  0.20359388156E+02  0.10366811842E+02  0.32674442234E+02  0.40088240784E+02  0.41800000000E+01 0.  1.
         -5    1    3    3    0  502  0.75800525628E+01 -0.52136356643E+02 -0.94381405595E+02  0.10817106361E+03  0.41800000000E+01 0.  1.
        -11    1    1    2    0    0 -0.44843006852E+02  0.28810280793E+02  0.79824717574E+02  0.95983920938E+02  0.00000000000E+00 0.  1.
         11    1    1    2    0    0  0.16903566133E+02  0.12959264007E+02 -0.14637271875E+02  0.25844202436E+02  0.00000000000E+00 0. -1.
</event>
<event>
 7    1  0.2641580E-009  0.2475585E+03  0.7561462E-02  0.1114858E+00
         -1   -1    0    0    0  501 -0.00000000000E+00  0.00000000000E+00  0.34476383445E+03  0.34476383445E+03  0.00000000000E+00 0.  1.
          1   -1    0    0  501    0  0.00000000000E+00 -0.00000000000E+00 -0.21219716515E+03  0.21219716515E+03  0.00000000000E+00 0. -1.
         25    2    1    2    0    0 -0.14695892002E+03 -0.19220212857E+03  0.13626495373E+02  0.27272424382E+03  0.12511694286E+03 0.  0.
          5    1    3    3  502    0 -0.32145566394E+02 -0.93233811714E+02  0.58302872653E+02  0.11464108533E+03  0.41800000000E+01 0. -1.
         -5    1    3    3    0  502 -0.11481335363E+03 -0.98968316852E+02 -0.44676377281E+02  0.15808315849E+03  0.41800000000E+01 0. -1.
        -11    1    1    2    0    0  0.67811925196E+02  0.11897708794E+03  0.11070980440E+03  0.17609845384E+03  0.00000000000E+00 0.  1.
         11    1    1    2    0    0  0.79146994824E+02  0.73225040629E+02  0.82303695313E+01  0.10813830194E+03  0.00000000000E+00 0. -1.
</event>
<event>
 7    1  0.2641580E-009  0.8984890E+02  0.7561462E-02  0.1303218E+00
          1   -1    0    0  501    0  0.00000000000E+00  0.00000000000E+00  0.36590178920E+03  0.36590178920E+03  0.00000000000E+00 0. -1.
         -1   -1    0    0    0  501 -0.00000000000E+00 -0.00000000000E+00 -0.32915073299E+02  0.32915073299E+02  0.00000000000E+00 0.  1.
         25    2    1    2    0    0 -0.80421896243E+01  0.22373818813E+01  0.16184784263E+03  0.20472268283E+03  0.12508784917E+03 0.  0.
          5    1    3    3  502    0 -0.39451779930E+02 -0.46627415165E+02  0.11379646241E+03  0.12921944917E+03  0.41800000000E+01 0.  1.
         -5    1    3    3    0  502  0.31409590306E+02  0.48864797046E+02  0.48051380210E+02  0.75503233664E+02  0.41800000000E+01 0.  1.
        -11    1    1    2    0    0 -0.13011912026E+02 -0.25643202884E+02  0.10836499438E+02  0.30729683187E+02  0.00000000000E+00 0.  1.
         11    1    1    2    0    0  0.21054101650E+02  0.23405821002E+02  0.16030237384E+03  0.16336449648E+03  0.00000000000E+00 0. -1.
</event>
<event>
 7    1  0.2641580E-009  0.8731279E+02  0.7561462E-02  0.1309493E+00
          1   -1    0    0  501    0  0.00000000000E+00  0.00000000000E+00  0.22107066280E+03  0.22107066280E+03  0.00000000000E+00 0. -1.
         -1   -1    0    0    0  501 -0.00000000000E+00 -0.00000000000E+00 -0.69236843182E+02  0.69236843182E+02  0.00000000000E+00 0.  1.
         25    2    1    2    0    0  0.32050109614E+02 -0.48389896384E+02  0.94696911938E+02  0.16729614218E+03  0.12510676424E+03 0.  0.
          5    1    3    3  502    0  0.32656853609E+02 -0.77149841808E+02  0.18714826742E+02  0.85943500735E+02  0.41800000000E+01 0.  1.
         -5    1    3    3    0  502 -0.60674399533E+00  0.28759945424E+02  0.75982085196E+02  0.81352641443E+02  0.41800000000E+01 0.  1.
        -11    1    1    2    0    0 -0.29683458882E+02  0.26908468625E+02 -0.18657663358E+02  0.44195947969E+02  0.00000000000E+00 0.  1.
         11    1    1    2    0    0 -0.23666507320E+01  0.21481427759E+02  0.75794571038E+02  0.78815415834E+02  0.00000000000E+00 0. -1.
</event>
<event>
 7    1  0.2641580E-009  0.1918857E+03  0.7561462E-02  0.1156771E+00
         -1   -1    0    0    0  501 -0.00000000000E+00  0.00000000000E+00  0.72837235265E+02  0.72837235265E+02  0.00000000000E+00 0.  1.
          1   -1    0    0  501    0  0.00000000000E+00 -0.00000000000E+00 -0.12719531720E+04  0.12719531720E+04  0.00000000000E+00 0. -1.
         25    2    1    2    0    0  0.13994056136E+03  0.10965827266E+03 -0.12094372029E+03  0.24875541581E+03  0.12507428168E+03 0.  0.
          5    1    3    3  502    0  0.12755272643E+03  0.11580036420E+03 -0.14194873222E+03  0.22326293321E+03  0.41800000000E+01 0. -1.
         -5    1    3    3    0  502  0.12387834930E+02 -0.61420915324E+01  0.21005011929E+02  0.25492482594E+02  0.41800000000E+01 0. -1.
        -11    1    1    2    0    0 -0.10072695450E+03 -0.11977687611E+03 -0.86838017230E+03  0.88236984483E+03  0.00000000000E+00 0. -1.
         11    1    1    2    0    0 -0.39213606863E+02  0.10118603448E+02 -0.20979204409E+03  0.21366514658E+03  0.00000000000E+00 0.  1.
</event>
<event>
 7    1  0.2641580E-009  0.1277301E+03  0.7561462E-02  0.1230863E+00
         -2   -1    0    0    0  501 -0.00000000000E+00  0.00000000000E+00  0.12760048299E+03  0.12760048299E+03  0.00000000000E+00 0.  1.
          2   -1    0    0  501    0  0.00000000000E+00 -0.00000000000E+00 -0.14016230623E+03  0.14016230623E+03  0.00000000000E+00 0. -1.
         25    2    1    2    0    0  0.84324101615E+01 -0.72864744290E+02  0.18825875411E+02  0.14622500941E+03  0.12508782231E+03 0.  0.
          5    1    3    3  502    0  0.56853985880E+02 -0.20816884920E+01  0.19720373390E+02  0.60357888168E+02  0.41800000000E+01 0. -1.
         -5    1    3    3    0  502 -0.48421575718E+02 -0.70783055798E+02 -0.89449797933E+00  0.85867121238E+02  0.41800000000E+01 0. -1.
        -11    1    1    2    0    0 -0.22955166992E+02  0.88373031283E+02 -0.38558799103E+02  0.99113638506E+02  0.00000000000E+00 0. -1.
         11    1    1    2    0    0  0.14522756830E+02 -0.15508286993E+02  0.71711004530E+01  0.22424141302E+02  0.00000000000E+00 0.  1.
</event>
<event>
 6    1  0.2641580E-009  0.1485976E+03  0.7561462E-02  0.1202207E+00
          1   -1    0    0  501    0  0.00000000000E+00  0.00000000000E+00  0.18970680411E+04  0.18970680411E+04  0.00000000000E+00 0. -1.
         -1   -1    0    0    0  501 -0.00000000000E+00 -0.00000000000E+00 -0.19154318097E+02  0.19154318097E+02  0.00000000000E+00 0.  1.
          5    1    1    2  502    0 -0.42909430657E+02 -0.47007692510E+01  0.18040248361E+03  0.18554203018E+03  0.41800000000E+01 0. -1.
         -5    1    1    2    0  502 -0.74138452860E+01  0.11897626404E+03  0.12681368222E+04  0.12737341908E+04  0.41800000000E+01 0. -1.
        -11    1    1    2    0    0  0.49376889948E+02 -0.50024691476E+02  0.10557995903E+03  0.12683719788E+03  0.00000000000E+00 0.  1.
         11    1    1    2    0    0  0.94638599453E+00 -0.64250803310E+02  0.32379445810E+03  0.33010894031E+03  0.00000000000E+00 0. -1.
</event>
<event>
 7    1  0.2641580E-009  0.1400030E+03  0.7561462E-02  0.1213325E+00
          1   -1    0    0  501    0  0.00000000000E+00  0.00000000000E+00  0.13849872893E+03  0.13849872893E+03  0.00000000000E+00 0. -1.
         -1   -1    0    0    0  501 -0.00000000000E+00 -0.00000000000E+00 -0.18285801287E+03  0.18285801287E+03  0.00000000000E+00 0.  1.
         25    2    1    2    0    0  0.48816085722E+02  0.94997989334E+02 -0.68221408736E+02  0.17807008103E+03  0.12508862836E+03 0.  0.
          5    1    3    3  502    0 -0.42555433107E+02  0.31150821157E+02 -0.20289854493E+02  0.56661178430E+02  0.41800000000E+01 0. -1.
         -5    1    3    3    0  502  0.91371518829E+02  0.63847168177E+02 -0.47931554242E+02  0.12140890260E+03  0.41800000000E+01 0. -1.
        -11    1    1    2    0    0 -0.57302148383E+02 -0.83081993142E+02  0.50530595157E+02  0.11286937069E+03  0.00000000000E+00 0. -1.
         11    1    1    2    0    0  0.84860626615E+01 -0.11915996192E+02 -0.26668470362E+02  0.30417290086E+02  0.00000000000E+00 0.  1.
</event>
<event>
 7    1  0.2641580E-009  0.1853552E+03  0.7561462E-02  0.1162719E+00
          2   -1    0    0  501    0  0.00000000000E+00  0.00000000000E+00  0.20617981413E+04  0.20617981413E+04  0.00000000000E+00 0. -1.
         -2   -1    0    0    0  501 -0.00000000000E+00 -0.00000000000E+00 -0.21826339891E+02  0.21826339891E+02  0.00000000000E+00 0.  1.
         25    2    1    2    0    0  0.76079834545E+01 -0.18033108399E+03  0.11802125599E+04  0.12004690545E+04  0.12508830127E+03 0.  0.
          5    1    3    3  502    0 -0.16123119310E+01 -0.71524906527E+02  0.84192918256E+03  0.84497374672E+03  0.41800000000E+01 0.  1.
         -5    1    3    3    0  502  0.92202953856E+01 -0.10880617746E+03  0.33828337731E+03  0.35549530780E+03  0.41800000000E+01 0.  1.
        -11    1    1    2    0    0  0.25107662183E+02  0.98275795983E+02  0.60671224216E+03  0.61513272679E+03  0.00000000000E+00 0. -1.
         11    1    1    2    0    0 -0.32715645638E+02  0.82055288005E+02  0.25304699934E+03  0.26802269985E+03  0.00000000000E+00 0.  1.
</event>
<event>
 7    1  0.2641580E-009  0.9988331E+02  0.7561462E-02  0.1280542E+00
          1   -1    0    0  501    0  0.00000000000E+00  0.00000000000E+00  0.44514064739E+03  0.44514064739E+03  0.00000000000E+00 0. -1.
         -1   -1    0    0    0  501 -0.00000000000E+00 -0.00000000000E+00 -0.44269939495E+02  0.44269939495E+02  0.00000000000E+00 0.  1.
         25    2    1    2    0    0  0.44686837068E+01 -0.39200845997E+02  0.35694754706E+03  0.38028370062E+03  0.12508983231E+03 0.  0.
          5    1    3    3  502    0 -0.44495473003E+02  0.56671664130E+01  0.55019888893E+02  0.71109946327E+02  0.41800000000E+01 0.  1.
         -5    1    3    3    0  502  0.48964156709E+02 -0.44868012410E+02  0.30192765817E+03  0.30917375430E+03  0.41800000000E+01 0.  1.
        -11    1    1    2    0    0 -0.25637784000E+02  0.55711096573E+02  0.52723417628E+02  0.80875095154E+02  0.00000000000E+00 0.  1.
         11    1    1    2    0    0  0.21169100293E+02 -0.16510250576E+02 -0.88002567908E+01  0.28251791109E+02  0.00000000000E+00 0. -1.
</event>
<event>
 7    1  0.2641580E-009  0.2238547E+03  0.7561462E-02  0.1131041E+00
         -2   -1    0    0    0  501 -0.00000000000E+00  0.00000000000E+00  0.92834889936E+02  0.92834889936E+02  0.00000000000E+00 0.  1.
          2   -1    0    0  501    0  0.00000000000E+00 -0.00000000000E+00 -0.59789432281E+03  0.59789432281E+03  0.00000000000E+00 0. -1.
         25    2    1    2    0    0 -0.20102383615E+03 -0.38249949592E+02 -0.20009515451E+03  0.31234505669E+03  0.12509085594E+03 0.  0.
          5    1    3    3  502    0 -0.21477951838E+03 -0.50541369939E+02 -0.18039166175E+03  0.28503209577E+03  0.41800000000E+01 0. -1.
         -5    1    3    3    0  502  0.13755682229E+02  0.12291420347E+02 -0.19703492754E+02  0.27312960923E+02  0.41800000000E+01 0. -1.
        -11    1    1    2    0    0  0.13795557614E+03  0.80693507720E+01 -0.26230329460E+03  0.29647912872E+03  0.00000000000E+00 0. -1.
         11    1    1    2    0    0  0.63068260011E+02  0.30180598820E+02 -0.42660983767E+02  0.81905027330E+02  0.00000000000E+00 0.  1.
</event>
<event>
 7    1  0.2641580E-009  0.1219578E+03  0.7561462E-02  0.1239902E+00
         -2   -1    0    0    0  501 -0.00000000000E+00  0.00000000000E+00  0.36989623624E+02  0.36989623624E+02  0.00000000000E+00 0. -1.
          2   -1    0    0  501    0  0.00000000000E+00 -0.00000000000E+00 -0.59398916014E+03  0.59398916014E+03  0.00000000000E+00 0.  1.
         25    2    1    2    0    0  0.62857792191E+02  0.69758524421E+02 -0.22757156811E+03  0.27614102687E+03  0.12509074443E+03 0.  0.
          5    1    3    3  502    0 -0.25082927219E+02  0.55055679841E+02 -0.13258725490E+03  0.14579826365E+03  0.41800000000E+01 0.  1.
         -5    1    3    3    0  502  0.87940719410E+02  0.14702844581E+02 -0.94984313210E+02  0.13034276322E+03  0.41800000000E+01 0.  1.
        -11    1    1    2    0    0 -0.19876515605E+02 -0.25297361489E+02 -0.17075595772E+02  0.36422635021E+02  0.00000000000E+00 0.  1.
         11    1    1    2    0    0 -0.42981276586E+02 -0.44461162932E+02 -0.31235237264E+03  0.31841512187E+03  0.00000000000E+00 0. -1.
</event>
<event>
 7    1  0.2641580E-009  0.1145449E+03  0.7561462E-02  0.1252378E+00
          2   -1    0    0  501    0  0.00000000000E+00  0.00000000000E+00  0.34686670031E+03  0.34686670031E+03  0.00000000000E+00 0. -1.
         -2   -1    0    0    0  501 -0.00000000000E+00 -0.00000000000E+00 -0.47184650916E+02  0.47184650916E+02  0.00000000000E+00 0.  1.
         25    2    1    2    0    0 -0.69245765896E+02 -0.24776269771E+01  0.18909920056E+03  0.23708120347E+03  0.12509146516E+03 0.  0.
          5    1    3    3  502    0 -0.27050467108E+01 -0.46162850751E+02  0.12944838359E+03  0.13752338885E+03  0.41800000000E+01 0.  1.
         -5    1    3    3    0  502 -0.66540719185E+02  0.43685223774E+02  0.59650816974E+02  0.99557814618E+02  0.41800000000E+01 0.  1.
        -11    1    1    2    0    0  0.65771124287E+02 -0.28570259480E+02  0.45908127923E+02  0.85144916032E+02  0.00000000000E+00 0.  1.
         11    1    1    2    0    0  0.34746416095E+01  0.31047886457E+02  0.64674720911E+02  0.71825231727E+02  0.00000000000E+00 0. -1.
</event>
<event>
 7    1  0.2641580E-009  0.1538226E+03  0.7561462E-02  0.1195853E+00
          4   -1    0    0  501    0  0.00000000000E+00  0.00000000000E+00  0.81855052285E+02  0.81855052285E+02  0.00000000000E+00 0. -1.
         -4   -1    0    0    0  501 -0.00000000000E+00 -0.00000000000E+00 -0.29737118000E+03  0.29737118000E+03  0.00000000000E+00 0.  1.
         25    2    1    2    0    0 -0.97487510211E+02  0.53741486880E+02 -0.10296922027E+03  0.19657401075E+03  0.12508684711E+03 0.  0.
          5    1    3    3  502    0 -0.11560134381E+03  0.77817879270E+01 -0.85322242946E+02  0.14394993732E+03  0.41800000000E+01 0. -1.
         -5    1    3    3    0  502  0.18113833598E+02  0.45959698953E+02 -0.17646977326E+02  0.52624073429E+02  0.41800000000E+01 0. -1.
        -11    1    1    2    0    0  0.27018802010E+02 -0.65346487398E+02 -0.41888871870E+02  0.82187935027E+02  0.00000000000E+00 0.  1.
         11    1    1    2    0    0  0.70468708200E+02  0.11605000518E+02 -0.70658035570E+02  0.10046428651E+03  0.00000000000E+00 0. -1.
</event>
<event>
 7    1  0.2641580E-009  0.7492426E+02  0.7561462E-02  0.1344106E+00
         -2   -1    0    0    0  501 -0.00000000000E+00  0.00000000000E+00  0.70482887770E+02  0.70482887770E+02  0.00000000000E+00 0.  1.
          2   -1    0    0  501    0  0.00000000000E+00 -0.00000000000E+00 -0.20272592283E+03  0.20272592283E+03  0.00000000000E+00 0. -1.
         25    2    1    2    0    0  0.37080204553E+02  0.25246482858E+02 -0.61483540270E+02  0.14642525875E+03  0.12509118358E+03 0.  0.
          5    1    3    3  502    0  0.48795755720E+02 -0.11320365681E+01 -0.91990249044E+02  0.10422085013E+03  0.41800000000E+01 0.  1.
         -5    1    3    3    0  502 -0.11715551167E+02  0.26378519426E+02  0.30506708774E+02  0.42204408614E+02  0.41800000000E+01 0.  1.
        -11    1    1    2    0    0  0.11793495982E+02 -0.19086795519E+02  0.15624826036E+02  0.27340949130E+02  0.00000000000E+00 0.  1.
         11    1    1    2    0    0 -0.48873700535E+02 -0.61596873384E+01 -0.86384320830E+02  0.99442602729E+02  0.00000000000E+00 0. -1.
</event>
<event>
 7    1  0.2641580E-009  0.1248190E+03  0.7561462E-02  0.1235352E+00
          2   -1    0    0  501    0  0.00000000000E+00  0.00000000000E+00  0.74136189619E+03  0.74136189619E+03  0.00000000000E+00 0. -1.
         -2   -1    0    0    0  501 -0.00000000000E+00 -0.00000000000E+00 -0.21674295981E+02  0.21674295981E+02  0.00000000000E+00 0.  1.
         25    2    1    2    0    0 -0.57902027850E+02 -0.31481281062E+02  0.39093552648E+03  0.41571775211E+03  0.12508775987E+03 0.  0.
          5    1    3    3  502    0 -0.89371233261E+02  0.46299173147E+01  0.20607164797E+03  0.22470347119E+03  0.41800000000E+01 0.  1.
         -5    1    3    3    0  502  0.31469205412E+02 -0.36111198376E+02  0.18486387851E+03  0.19101428092E+03  0.41800000000E+01 0.  1.
        -11    1    1    2    0    0  0.80711496293E+02  0.36550939391E+02  0.25509703385E+03  0.27004594698E+03  0.00000000000E+00 0.  1.
         11    1    1    2    0    0 -0.22809468443E+02 -0.50696583296E+01  0.73655039880E+02  0.77272493074E+02  0.00000000000E+00 0. -1.
</event>
<event>
 7    1  0.2641580E-009  0.1579033E+03  0.7561462E-02  0.1191084E+00
         -2   -1    0    0    0  501 -0.00000000000E+00  0.00000000000E+00  0.25333930494E+02  0.25333930494E+02  0.00000000000E+00 0.  1.
          2   -1    0    0  501    0  0.00000000000E+00 -0.00000000000E+00 -0.11057459600E+04  0.11057459600E+04  0.00000000000E+00 0. -1.
         25    2    1    2    0    0  0.12604765389E+03  0.30395224122E+02 -0.65120532084E+03  0.67566790394E+03  0.12508743269E+03 0.  0.
          5    1    3    3  502    0  0.11388309831E+03  0.67633714635E+02 -0.57269359059E+03  0.58782573994E+03  0.41800000000E+01 0. -1.
         -5    1    3    3    0  502  0.12164555574E+02 -0.37238490512E+02 -0.78511730253E+02  0.87842163995E+02  0.41800000000E+01 0. -1.
        -11    1    1    2    0    0 -0.53090692535E+01 -0.22253482702E+02 -0.26971201346E+02  0.35367349501E+02  0.00000000000E+00 0.  1.
         11    1    1    2    0    0 -0.12073858463E+03 -0.81417414207E+01 -0.40223550731E+03  0.42004463705E+03  0.00000000000E+00 0. -1.
</event>
<event>
 7    1  0.2641580E-009  0.6757106E+02  0.7561462E-02  0.1368553E+00
         -3   -1    0    0    0  501 -0.00000000000E+00  0.00000000000E+00  0.48541405729E+02  0.48541405729E+02  0.00000000000E+00 0.  1.
          3   -1    0    0  501    0  0.00000000000E+00 -0.00000000000E+00 -0.26185039227E+03  0.26185039227E+03  0.00000000000E+00 0. -1.
         25    2    1    2    0    0  0.99093345268E+01 -0.18974756651E+01 -0.16087641390E+03  0.20403352157E+03  0.12508661818E+03 0.  0.
          5    1    3    3  502    0  0.43188639313E+02  0.28442586292E+02 -0.14826583566E+03  0.15708109277E+03  0.41800000000E+01 0. -1.
         -5    1    3    3    0  502 -0.33279304786E+02 -0.30340061957E+02 -0.12610578242E+02  0.46952428800E+02  0.41800000000E+01 0. -1.
        -11    1    1    2    0    0  0.11607931444E+02 -0.82521383609E+01  0.23116545755E+02  0.27151731945E+02  0.00000000000E+00 0.  1.
         11    1    1    2    0    0 -0.21517265971E+02  0.10149614026E+02 -0.75549118394E+02  0.79206544488E+02  0.00000000000E+00 0. -1.
</event>
<event>
 7    1  0.2641580E-009  0.1418416E+03  0.7561462E-02  0.1210872E+00
          2   -1    0    0  501    0  0.00000000000E+00  0.00000000000E+00  0.56186128876E+03  0.56186128876E+03  0.00000000000E+00 0. -1.
         -2   -1    0    0    0  501 -0.00000000000E+00 -0.00000000000E+00 -0.43230967143E+02  0.43230967143E+02  0.00000000000E+00 0.  1.
         25    2    1    2    0    0  0.10913016839E+03 -0.22483829862E+02  0.29943117408E+03  0.34312388379E+03  0.12514014287E+03 0.  0.
          5    1    3    3  502    0  0.12372631540E+03 -0.35422477603E+02  0.17590678977E+03  0.21799913790E+03  0.41800000000E+01 0.  1.
         -5    1    3    3    0  502 -0.14596147009E+02  0.12938647741E+02  0.12352438432E+03  0.12512474589E+03  0.41800000000E+01 0.  1.
        -11    1    1    2    0    0 -0.90943386536E+02  0.48623587812E+02  0.12232635744E+03  0.15999590798E+03  0.00000000000E+00 0.  1.
         11    1    1    2    0    0 -0.18186781852E+02 -0.26139757949E+02  0.96872790087E+02  0.10197246412E+03  0.00000000000E+00 0. -1.
</event>
<event>
 7    1  0.2641580E-009  0.1113684E+03  0.7561462E-02  0.1258057E+00
          1   -1    0    0  501    0  0.00000000000E+00  0.00000000000E+00  0.20751100106E+03  0.20751100106E+03  0.00000000000E+00 0. -1.
         -1   -1    0    0    0  501 -0.00000000000E+00 -0.00000000000E+00 -0.65085487094E+02  0.65085487094E+02  0.00000000000E+00 0.  1.
         25    2    1    2    0    0 -0.39737785604E+02  0.16971601141E+02  0.81041352917E+02  0.15518483015E+03  0.12508998271E+03 0.  0.
          5    1    3    3  502    0  0.49220418730E-01  0.62409842974E+02  0.69593148603E+02  0.93571735344E+02  0.41800000000E+01 0.  1.
         -5    1    3    3    0  502 -0.39787006023E+02 -0.45438241833E+02  0.11448204313E+02  0.61613094803E+02  0.41800000000E+01 0.  1.
        -11    1    1    2    0    0  0.20636341922E+01  0.35218891283E+02  0.27075386556E+02  0.44471400321E+02  0.00000000000E+00 0.  1.
         11    1    1    2    0    0  0.37674151412E+02 -0.52190492424E+02  0.34308774491E+02  0.72940257685E+02  0.00000000000E+00 0. -1.
</event>
<event>
 7    1  0.2641580E-009  0.2822253E+03  0.7561462E-02  0.1094480E+00
         -2   -1    0    0    0  501 -0.00000000000E+00  0.00000000000E+00  0.53331988577E+02  0.53331988577E+02  0.00000000000E+00 0. -1.
          2   -1    0    0  501    0  0.00000000000E+00 -0.00000000000E+00 -0.15962702113E+04  0.15962702113E+04  0.00000000000E+00 0.  1.
         25    2    1    2    0    0  0.40333653389E+02 -0.26464269095E+03 -0.89978110332E+03  0.94705750593E+03  0.12509727488E+03 0.  0.
          5    1    3    3  502    0 -0.32620005028E+02 -0.64324619318E+02 -0.34991625872E+03  0.35729621030E+03  0.41800000000E+01 0.  1.
         -5    1    3    3    0  502  0.72953658417E+02 -0.20031807163E+03 -0.54986484460E+03  0.58976129563E+03  0.41800000000E+01 0.  1.
        -11    1    1    2    0    0 -0.52252063031E+02  0.91071641012E+02 -0.18905118088E+03  0.21625140665E+03  0.00000000000E+00 0.  1.
         11    1    1    2    0    0  0.11918409642E+02  0.17357104994E+03 -0.45410593857E+03  0.48629328734E+03  0.00000000000E+00 0. -1.
</event>
<event>
 7    1  0.2641580E-009  0.1201944E+03  0.7561462E-02  0.1242777E+00
          2   -1    0    0  501    0  0.00000000000E+00  0.00000000000E+00  0.92716323345E+03  0.92716323345E+03  0.00000000000E+00 0. -1.
         -2   -1    0    0    0  501 -0.00000000000E+00 -0.00000000000E+00 -0.18950395330E+02  0.18950395330E+02  0.00000000000E+00 0.  1.
         25    2    1    2    0    0 -0.53768337993E+02  0.46786736924E+02  0.50504637879E+03  0.52516614100E+03  0.12509035933E+03 0.  0.
          5    1    3    3  502    0 -0.58144739441E+02 -0.28074345532E+02  0.17228186394E+03  0.18403122736E+03  0.41800000000E+01 0.  1.
         -5    1    3    3    0  502  0.43764014475E+01  0.74861082456E+02  0.33276451486E+03  0.34113491364E+03  0.41800000000E+01 0.  1.
        -11    1    1    2    0    0  0.55118521785E+02 -0.13615301136E+01  0.33173114248E+03  0.33628181054E+03  0.00000000000E+00 0. -1.
         11    1    1    2    0    0 -0.13501837912E+01 -0.45425206810E+02  0.71435316849E+02  0.84665677245E+02  0.00000000000E+00 0.  1.
</event>
<event>
 7    1  0.2641580E-009  0.1075624E+03  0.7561462E-02  0.1265152E+00
          3   -1    0    0  501    0  0.00000000000E+00  0.00000000000E+00  0.29052464764E+03  0.29052464764E+03  0.00000000000E+00 0. -1.
         -3   -1    0    0    0  501 -0.00000000000E+00 -0.00000000000E+00 -0.42705593484E+02  0.42705593484E+02  0.00000000000E+00 0.  1.
         25    2    1    2    0    0  0.11393434355E+01 -0.16507943346E+01  0.10465507845E+03  0.16310786642E+03  0.12508983739E+03 0.  0.
          5    1    3    3  502    0 -0.18363548436E+02  0.58006179617E+02  0.62875348826E+02  0.87594056163E+02  0.41800000000E+01 0.  1.
         -5    1    3    3    0  502  0.19502891872E+02 -0.59656973952E+02  0.41779729627E+02  0.75513810261E+02  0.41800000000E+01 0.  1.
        -11    1    1    2    0    0 -0.44311694358E+02  0.13755346925E+02  0.83007027683E+02  0.95094176849E+02  0.00000000000E+00 0.  1.
         11    1    1    2    0    0  0.43172350923E+02 -0.12104552591E+02  0.60156948020E+02  0.75028197851E+02  0.00000000000E+00 0. -1.
</event>
<event>
 7    1  0.2641580E-009  0.1425616E+03  0.7561462E-02  0.1209923E+00
         -1   -1    0    0    0  501 -0.00000000000E+00  0.00000000000E+00  0.21694174598E+03  0.21694174598E+03  0.00000000000E+00 0.  1.
          1   -1    0    0  501    0  0.00000000000E+00 -0.00000000000E+00 -0.12535585806E+03  0.12535585806E+03  0.00000000000E+00 0. -1.
         25    2    1    2    0    0  0.60099449506E+02 -0.85313835262E+02  0.29985664776E+02  0.16564175303E+03  0.12509059093E+03 0.  0.
          5    1    3    3  502    0  0.64631864421E+02 -0.22697333548E+02 -0.33404534118E+02  0.76326811464E+02  0.41800000000E+01 0. -1.
         -5    1    3    3    0  502 -0.45324149145E+01 -0.62616501714E+02  0.63390198894E+02  0.89314941570E+02  0.41800000000E+01 0. -1.
        -11    1    1    2    0    0  0.33785568830E+02  0.23998035338E+02 -0.11242916596E+02  0.42939184143E+02  0.00000000000E+00 0. -1.
         11    1    1    2    0    0 -0.93885018337E+02  0.61315799924E+02  0.72843139744E+02  0.13371666686E+03  0.00000000000E+00 0.  1.
</event>
<event>
 7    1  0.2641580E-009  0.7497801E+02  0.7561462E-02  0.1343939E+00
         -4   -1    0    0    0  501 -0.00000000000E+00  0.00000000000E+00  0.45865679374E+02  0.45865679374E+02  0.00000000000E+00 0.  1.
          4   -1    0    0  501    0  0.00000000000E+00 -0.00000000000E+00 -0.31760997549E+03  0.31760997549E+03  0.00000000000E+00 0. -1.
         25    2    1    2    0    0 -0.34253001145E+02 -0.37528356510E+02 -0.17050783190E+03  0.21748246753E+03  0.12507620602E+03 0.  0.
          5    1    3    3  502    0 -0.31326635805E+02 -0.54007934404E+02 -0.19573316143E+02  0.65565251424E+02  0.41800000000E+01 0.  1.
         -5    1    3    3    0  502 -0.29263653396E+01  0.16479577895E+02 -0.15093451576E+03  0.15191721611E+03  0.41800000000E+01 0.  1.
        -11    1    1    2    0    0  0.51330124619E+01  0.40530983235E+02 -0.10841004050E+03  0.11585268792E+03  0.00000000000E+00 0. -1.
         11    1    1    2    0    0  0.29119988683E+02 -0.30026267247E+01  0.71735762806E+01  0.30140499412E+02  0.00000000000E+00 0.  1.
</event>
<event>
 7    1  0.2641580E-009  0.4558127E+03  0.7561462E-02  0.1026003E+00
          2   -1    0    0  501    0  0.00000000000E+00  0.00000000000E+00  0.37641942989E+04  0.37641942989E+04  0.00000000000E+00 0.  1.
         -2   -1    0    0    0  501 -0.00000000000E+00 -0.00000000000E+00 -0.56944646469E+02  0.56944646469E+02  0.00000000000E+00 0. -1.
         25    2    1    2    0    0 -0.11046758478E+03  0.43268285585E+03  0.20942625527E+04  0.21449944166E+04  0.12509143285E+03 0.  0.
          5    1    3    3  502    0 -0.61904550664E+02  0.39470903058E+03  0.17310615913E+04  0.17765751033E+04  0.41800000000E+01 0. -1.
         -5    1    3    3    0  502 -0.48563034115E+02  0.37973825270E+02  0.36320096137E+03  0.36841931332E+03  0.41800000000E+01 0. -1.
        -11    1    1    2    0    0  0.14092101816E+02 -0.16813950673E+03  0.73498827788E+03  0.75410692191E+03  0.00000000000E+00 0. -1.
         11    1    1    2    0    0  0.96375482963E+02 -0.26454334912E+03  0.87799882183E+03  0.92203760684E+03  0.00000000000E+00 0.  1.
</event>
<event>
 7    1  0.2641580E-009  0.8764430E+02  0.7561462E-02  0.1308659E+00
         -4   -1    0    0    0  501 -0.00000000000E+00  0.00000000000E+00  0.48157848688E+03  0.48157848688E+03  0.00000000000E+00 0.  1.
          4   -1    0    0  501    0  0.00000000000E+00 -0.00000000000E+00 -0.45001433321E+02  0.45001433321E+02  0.00000000000E+00 0. -1.
         25    2    1    2    0    0 -0.63089730418E+02  0.18456475883E+02  0.10305296230E+03  0.17489766976E+03  0.12509327026E+03 0.  0.
          5    1    3    3  502    0 -0.32275451983E+02  0.19236639201E+02  0.12897795622E+03  0.13440438489E+03  0.41800000000E+01 0.  1.
         -5    1    3    3    0  502 -0.30814278435E+02 -0.78016331780E+00 -0.25924993914E+02  0.40493284872E+02  0.41800000000E+01 0.  1.
        -11    1    1    2    0    0 -0.20029690602E+02 -0.11183162481E+02  0.12494880541E+03  0.12703722132E+03  0.00000000000E+00 0.  1.
         11    1    1    2    0    0  0.83119421020E+02 -0.72733134022E+01  0.20857528585E+03  0.22464502912E+03  0.00000000000E+00 0. -1.
</event>
<event>
 7    1  0.2641580E-009  0.9456480E+02  0.7561462E-02  0.1292159E+00
          2   -1    0    0  501    0  0.00000000000E+00  0.00000000000E+00  0.16769767797E+03  0.16769767797E+03  0.00000000000E+00 0. -1.
         -2   -1    0    0    0  501 -0.00000000000E+00 -0.00000000000E+00 -0.78449706175E+02  0.78449706175E+02  0.00000000000E+00 0.  1.
         25    2    1    2    0    0 -0.24369328051E+02  0.18440435938E+02  0.72062051503E+02  0.14756288732E+03  0.12509177678E+03 0.  0.
          5    1    3    3  502    0  0.85385229786E+00  0.59600132723E+02 -0.11559473622E+01  0.59763814291E+02  0.41800000000E+01 0.  1.
         -5    1    3    3    0  502 -0.25223180349E+02 -0.41159696785E+02  0.73217998865E+02  0.87799073026E+02  0.41800000000E+01 0.  1.
        -11    1    1    2    0    0  0.41749047242E+02  0.14071880706E+02  0.36275374246E+02  0.57069287265E+02  0.00000000000E+00 0.  1.
         11    1    1    2    0    0 -0.17379719191E+02 -0.32512316644E+02 -0.19089453954E+02  0.41515209562E+02  0.00000000000E+00 0. -1.
</event>
<event>
 7    1  0.2641580E-009  0.1052226E+03  0.7561462E-02  0.1269682E+00
         -1   -1    0    0    0  501 -0.00000000000E+00  0.00000000000E+00  0.45046700380E+02  0.45046700380E+02  0.00000000000E+00 0.  1.
          1   -1    0    0  501    0  0.00000000000E+00 -0.00000000000E+00 -0.29737975041E+03  0.29737975041E+03  0.00000000000E+00 0. -1.
         25    2    1    2    0    0  0.29725901829E+02 -0.10180534333E+02 -0.10637252090E+03  0.16718493711E+03  0.12509363482E+03 0.  0.
          5    1    3    3  502    0 -0.26813736280E+02 -0.41240028874E+02 -0.88077697089E+01  0.50147439038E+02  0.41800000000E+01 0. -1.
         -5    1    3    3    0  502  0.56539638109E+02  0.31059494541E+02 -0.97564751194E+02  0.11703749807E+03  0.41800000000E+01 0. -1.
        -11    1    1    2    0    0  0.16192466931E+02 -0.30857935389E+02 -0.44040372440E+02  0.56160151054E+02  0.00000000000E+00 0. -1.
         11    1    1    2    0    0 -0.45918368760E+02  0.41038469722E+02 -0.10192015669E+03  0.11908136263E+03  0.00000000000E+00 0.  1.
</event>
<event>
 6    1  0.2641580E-009  0.9237837E+02  0.7561462E-02  0.1297192E+00
          1   -1    0    0  501    0  0.00000000000E+00  0.00000000000E+00  0.39621032581E+02  0.39621032581E+02  0.00000000000E+00 0. -1.
         -1   -1    0    0    0  501 -0.00000000000E+00 -0.00000000000E+00 -0.32529824000E+03  0.32529824000E+03  0.00000000000E+00 0.  1.
          5    1    1    2  502    0 -0.11702173264E+02 -0.45238696635E+02 -0.18078056166E+03  0.18676874579E+03  0.41800000000E+01 0.  1.
         -5    1    1    2    0  502  0.34598016508E+02  0.28710761871E+02 -0.15692207290E+02  0.47802179481E+02  0.41800000000E+01 0.  1.
        -11    1    1    2    0    0 -0.17373568120E+02 -0.35946651641E+02 -0.24442478743E+02  0.46812790993E+02  0.00000000000E+00 0. -1.
         11    1    1    2    0    0 -0.55222751237E+01  0.52474586404E+02 -0.64761959726E+02  0.83535556312E+02  0.00000000000E+00 0.  1.
</event>
<event>
 7    1  0.2641580E-009  0.1401279E+03  0.7561462E-02  0.1213157E+00
         -2   -1    0    0    0  501 -0.00000000000E+00  0.00000000000E+00  0.29197667920E+02  0.29197667920E+02  0.00000000000E+00 0.  1.
          2   -1    0    0  501    0  0.00000000000E+00 -0.00000000000E+00 -0.99129996626E+03  0.99129996626E+03  0.00000000000E+00 0. -1.
         25    2    1    2    0    0  0.98796408371E+02  0.83257822109E+02 -0.45309765859E+03  0.48748050603E+03  0.12508860976E+03 0.  0.
          5    1    3    3  502    0  0.23113424407E+02  0.62660740274E+02 -0.71690523461E+02  0.98069375003E+02  0.41800000000E+01 0.  1.
         -5    1    3    3    0  502  0.75682983964E+02  0.20597081835E+02 -0.38140713513E+03  0.38941113103E+03  0.41800000000E+01 0.  1.
        -11    1    1    2    0    0 -0.39548514132E+01 -0.20933058186E+02 -0.14775902224E+02  0.25926069143E+02  0.00000000000E+00 0.  1.
         11    1    1    2    0    0 -0.94841556958E+02 -0.62324763923E+02 -0.49422873753E+03  0.50709105901E+03  0.00000000000E+00 0. -1.
</event>
<event>
 7    1  0.2641580E-009  0.1715590E+03  0.7561462E-02  0.1176232E+00
          2   -1    0    0  501    0  0.00000000000E+00  0.00000000000E+00  0.66003394600E+02  0.66003394600E+02  0.00000000000E+00 0.  1.
         -2   -1    0    0    0  501 -0.00000000000E+00 -0.00000000000E+00 -0.48336109060E+03  0.48336109060E+03  0.00000000000E+00 0. -1.
         25    2    1    2    0    0  0.82390770575E+02 -0.11318080191E+03 -0.20634909381E+03  0.27897254978E+03  0.12509037540E+03 0.  0.
          5    1    3    3  502    0 -0.24655044725E+02 -0.15709745610E+01 -0.58539952823E+01  0.25730931818E+02  0.41800000000E+01 0.  1.
         -5    1    3    3    0  502  0.10704581530E+03 -0.11160982734E+03 -0.20049509853E+03  0.25324161796E+03  0.41800000000E+01 0.  1.
        -11    1    1    2    0    0 -0.10020566803E+02  0.85169207387E+02 -0.14524395992E+03  0.16867131807E+03  0.00000000000E+00 0. -1.
         11    1    1    2    0    0 -0.72370203771E+02  0.28011594519E+02 -0.65764642262E+02  0.10172061735E+03  0.00000000000E+00 0.  1.
</event>
<event>
 7    1  0.2641580E-009  0.1562945E+03  0.7561462E-02  0.1192945E+00
          2   -1    0    0  501    0  0.00000000000E+00  0.00000000000E+00  0.25044448999E+03  0.25044448999E+03  0.00000000000E+00 0. -1.
         -2   -1    0    0    0  501 -0.00000000000E+00 -0.00000000000E+00 -0.13036444921E+03  0.13036444921E+03  0.00000000000E+00 0.  1.
         25    2    1    2    0    0 -0.13356525431E+03  0.32613928961E+02  0.16918609215E+02  0.18664688225E+03  0.12508986287E+03 0.  0.
          5    1    3    3  502    0 -0.22856400786E+02  0.56615512218E+02 -0.24554813948E+02  0.65940447137E+02  0.41800000000E+01 0. -1.
         -5    1    3    3    0  502 -0.11070885353E+03 -0.24001583257E+02  0.41473423163E+02  0.12070643511E+03  0.41800000000E+01 0. -1.
        -11    1    1    2    0    0  0.85494765167E+02 -0.14790230634E+02  0.93650981625E+01  0.87268613240E+02  0.00000000000E+00 0.  1.
         11    1    1    2    0    0  0.48070489144E+02 -0.17823698326E+02  0.93796333400E+02  0.10689344371E+03  0.00000000000E+00 0. -1.
</event>
<event>
 7    1  0.2641580E-009  0.7963899E+02  0.7561462E-02  0.1330079E+00
         -1   -1    0    0    0  501 -0.00000000000E+00  0.00000000000E+00  0.11994230286E+03  0.11994230286E+03  0.00000000000E+00 0.  1.
          1   -1    0    0  501    0  0.00000000000E+00 -0.00000000000E+00 -0.16929482683E+03  0.16929482683E+03  0.00000000000E+00 0. -1.
         25    2    1    2    0    0 -0.14160681975E+02  0.54092868862E+02 -0.11041112474E+03  0.17596758236E+03  0.12508960868E+03 0.  0.
          5    1    3    3  502    0 -0.31233336271E+02  0.60272178764E+02 -0.42082228746E+01  0.68142779275E+02  0.41800000000E+01 0.  1.
         -5    1    3    3    0  502  0.17072654296E+02 -0.61793099019E+01 -0.10620290186E+03  0.10782480308E+03  0.41800000000E+01 0.  1.
        -11    1    1    2    0    0 -0.69928578019E+00 -0.57404929448E+02  0.73741803461E+02  0.93454098376E+02  0.00000000000E+00 0.  1.
         11    1    1    2    0    0  0.14859967755E+02  0.33120605866E+01 -0.12683202689E+02  0.19815448960E+02  0.00000000000E+00 0. -1.
</event>
<event>
 7    1  0.2641580E-009  0.9898618E+02  0.7561462E-02  0.1282442E+00
          2   -1    0    0  501    0  0.00000000000E+00  0.00000000000E+00  0.62219366491E+03  0.62219366491E+03  0.00000000000E+00 0. -1.
         -2   -1    0    0    0  501 -0.00000000000E+00 -0.00000000000E+00 -0.23820770847E+02  0.23820770847E+02  0.00000000000E+00 0.  1.
         25    2    1    2    0    0  0.37759917696E+02 -0.45181563093E+01  0.44672099459E+03  0.46546278004E+03  0.12509887080E+03 0.  0.
          5    1    3    3  502    0  0.54654393611E+01 -0.58227473626E+02  0.30293150368E+03  0.30855352539E+03  0.41800000000E+01 0.  1.
         -5    1    3    3    0  502  0.32294478335E+02  0.53709317317E+02  0.14378949091E+03  0.15690925465E+03  0.41800000000E+01 0.  1.
        -11    1    1    2    0    0 -0.38651654452E+02 -0.25624322017E+02  0.30032616519E+02  0.55249564032E+02  0.00000000000E+00 0.  1.
         11    1    1    2    0    0  0.89173675594E+00  0.30142478327E+02  0.12161928295E+03  0.12530209168E+03  0.00000000000E+00 0. -1.
</event>
<event>
 7    1  0.2641580E-009  0.1134757E+03  0.7561462E-02  0.1254265E+00
         -2   -1    0    0    0  501 -0.00000000000E+00  0.00000000000E+00  0.39708918104E+02  0.39708918104E+02  0.00000000000E+00 0.  1.
          2   -1    0    0  501    0  0.00000000000E+00 -0.00000000000E+00 -0.46675654304E+03  0.46675654304E+03  0.00000000000E+00 0. -1.
         25    2    1    2    0    0 -0.69734033668E+02 -0.98040325487E+01 -0.31238638138E+03  0.34379023896E+03  0.12509005806E+03 0.  0.
          5    1    3    3  502    0 -0.25685526362E+02  0.38277168878E+02 -0.32950211585E+02  0.56816166408E+02  0.41800000000E+01 0.  1.
         -5    1    3    3    0  502 -0.44048507306E+02 -0.48081201427E+02 -0.27943616979E+03  0.28697407255E+03  0.41800000000E+01 0.  1.
        -11    1    1    2    0    0  0.79045467350E+02  0.36489088829E+02 -0.88979548634E+02  0.12448694545E+03  0.00000000000E+00 0.  1.
         11    1    1    2    0    0 -0.93114336822E+01 -0.26685056280E+02 -0.25681694918E+02  0.38188276732E+02  0.00000000000E+00 0. -1.
</event>
<event>
 7    1  0.2641580E-009  0.1034254E+03  0.7561462E-02  0.1273253E+00
         -1   -1    0    0    0  501 -0.00000000000E+00  0.00000000000E+00  0.71717859695E+02  0.71717859695E+02  0.00000000000E+00 0.  1.
          1   -1    0    0  501    0  0.00000000000E+00 -0.00000000000E+00 -0.45050410873E+03  0.45050410873E+03  0.00000000000E+00 0. -1.
         25    2    1    2    0    0  0.81746909055E+02  0.42537614030E+02 -0.40649025235E+02  0.16059643729E+03  0.12508743610E+03 0.  0.
          5    1    3    3  502    0  0.82666028920E+02  0.38599330085E+02  0.25000820510E+02  0.94689461116E+02  0.41800000000E+01 0. -1.
         -5    1    3    3    0  502 -0.91911986493E+00  0.39382839453E+01 -0.65649845745E+02  0.65906976172E+02  0.41800000000E+01 0. -1.
        -11    1    1    2    0    0 -0.39964991480E+02 -0.53243324251E+02 -0.10353677081E+03  0.12309311529E+03  0.00000000000E+00 0.  1.
         11    1    1    2    0    0 -0.41781917575E+02  0.10705710221E+02 -0.23460045300E+03  0.23853241585E+03  0.00000000000E+00 0. -1.
</event>
<event>
 7    1  0.2641580E-009  0.3065379E+03  0.7561462E-02  0.1082017E+00
         -1   -1    0    0    0  501 -0.00000000000E+00  0.00000000000E+00  0.43586231922E+03  0.43586231922E+03  0.00000000000E+00 0.  1.
          1   -1    0    0  501    0  0.00000000000E+00 -0.00000000000E+00 -0.28890675192E+03  0.28890675192E+03  0.00000000000E+00 0. -1.
         25    2    1    2    0    0 -0.29616012749E+03  0.49999891501E+02  0.23214765855E+03  0.39969013143E+03  0.12509538571E+03 0.  0.
          5    1    3    3  502    0 -0.24824791868E+03  0.64062452904E+02  0.23723264626E+03  0.34932481711E+03  0.41800000000E+01 0. -1.
         -5    1    3    3    0  502 -0.47912208806E+02 -0.14062561403E+02 -0.50849877076E+01  0.50365314313E+02  0.41800000000E+01 0. -1.
        -11    1    1    2    0    0  0.15164335431E+03 -0.56660478834E+02 -0.79365611818E+02  0.18029147819E+03  0.00000000000E+00 0. -1.
         11    1    1    2    0    0  0.14451677318E+03  0.66605873328E+01 -0.58264794345E+01  0.14478746153E+03  0.00000000000E+00 0.  1.
</event>
<event>
 7    1  0.2641580E-009  0.9638508E+02  0.7561462E-02  0.1288087E+00
          1   -1    0    0  501    0  0.00000000000E+00  0.00000000000E+00  0.22883584102E+03  0.22883584102E+03  0.00000000000E+00 0. -1.
         -1   -1    0    0    0  501 -0.00000000000E+00 -0.00000000000E+00 -0.74612646921E+02  0.74612646921E+02  0.00000000000E+00 0.  1.
         25    2    1    2    0    0  0.12450535612E+02  0.40642782097E+02  0.18878061275E+02  0.13345761624E+03  0.12509077729E+03 0.  0.
          5    1    3    3  502    0  0.78782748734E+01  0.64814353107E+02  0.57749400795E+02  0.87266449887E+02  0.41800000000E+01 0.  1.
         -5    1    3    3    0  502  0.45722607382E+01 -0.24171571010E+02 -0.38871339521E+02  0.46191166357E+02  0.41800000000E+01 0.  1.
        -11    1    1    2    0    0  0.17302216165E+02 -0.62899621534E+02  0.78340583278E+02  0.10194594676E+03  0.00000000000E+00 0. -1.
         11    1    1    2    0    0 -0.29752751777E+02  0.22256839437E+02  0.57004549548E+02  0.68044924933E+02  0.00000000000E+00 0.  1.
</event>
<event>
 7    1  0.2641580E-009  0.1622956E+03  0.7561462E-02  0.1186129E+00
          2   -1    0    0  501    0  0.00000000000E+00  0.00000000000E+00  0.29893489269E+03  0.29893489269E+03  0.00000000000E+00 0. -1.
         -2   -1    0    0    0  501 -0.00000000000E+00 -0.00000000000E+00 -0.12932942844E+03  0.12932942844E+03  0.00000000000E+00 0.  1.
         25    2    1    2    0    0 -0.11560915932E+03 -0.92511715216E+02  0.16444078671E+03  0.25418893895E+03  0.12508936476E+03 0.  0.
          5    1    3    3  502    0 -0.10363670093E+02 -0.19359686928E+02  0.11434938739E+03  0.11651376714E+03  0.41800000000E+01 0.  1.
         -5    1    3    3    0  502 -0.10524548923E+03 -0.73152028289E+02  0.50091399320E+02  0.13767517181E+03  0.41800000000E+01 0.  1.
        -11    1    1    2    0    0  0.61131234716E+02  0.10179021716E+03  0.36373642338E+01  0.11879186245E+03  0.00000000000E+00 0. -1.
         11    1    1    2    0    0  0.54477924608E+02 -0.92785019406E+01  0.15273133062E+01  0.55283519731E+02  0.00000000000E+00 0.  1.
</event>
<event>
 7    1  0.2641580E-009  0.1083074E+03  0.7561462E-02  0.1263737E+00
          1   -1    0    0  501    0  0.00000000000E+00  0.00000000000E+00  0.43624871988E+03  0.43624871988E+03  0.00000000000E+00 0. -1.
         -1   -1    0    0    0  501 -0.00000000000E+00 -0.00000000000E+00 -0.40288179566E+02  0.40288179566E+02  0.00000000000E+00 0.  1.
         25    2    1    2    0    0  0.60041478575E+02  0.40775421552E+02  0.17839269135E+03  0.22964303942E+03  0.12507741232E+03 0.  0.
          5    1    3    3  502    0 -0.11346817742E+02  0.28221790623E+02  0.14763289089E+03  0.15079178562E+03  0.41800000000E+01 0.  1.
         -5    1    3    3    0  502  0.71388296318E+02  0.12553630928E+02  0.30759800466E+02  0.78851253797E+02  0.41800000000E+01 0.  1.
        -11    1    1    2    0    0 -0.78985069455E+02 -0.13548558283E+02  0.17837104819E+03  0.19554650460E+03  0.00000000000E+00 0.  1.
         11    1    1    2    0    0  0.18943590879E+02 -0.27226863269E+02  0.39196800763E+02  0.51347355423E+02  0.00000000000E+00 0. -1.
</event>
<event>
 7    1  0.2641580E-009  0.1260051E+03  0.7561462E-02  0.1233507E+00
          1   -1    0    0  501    0  0.00000000000E+00  0.00000000000E+00  0.72278777719E+03  0.72278777719E+03  0.00000000000E+00 0. -1.
         -1   -1    0    0    0  501 -0.00000000000E+00 -0.00000000000E+00 -0.31826407207E+02  0.31826407207E+02  0.00000000000E+00 0.  1.
         25    2    1    2    0    0  0.99804225571E+02  0.21639634657E+02  0.44142497299E+03  0.47003442220E+03  0.12508874467E+03 0.  0.
          5    1    3    3  502    0  0.10574855981E+03  0.37730483516E+02  0.21201633338E+03  0.23994738029E+03  0.41800000000E+01 0. -1.
         -5    1    3    3    0  502 -0.59443342382E+01 -0.16090848859E+02  0.22940863961E+03  0.23008704191E+03  0.41800000000E+01 0. -1.
        -11    1    1    2    0    0 -0.33773789083E+02  0.24258755841E+02  0.31441545881E+02  0.52131822061E+02  0.00000000000E+00 0.  1.
         11    1    1    2    0    0 -0.66030436488E+02 -0.45898390498E+02  0.21809485111E+03  0.23244794014E+03  0.00000000000E+00 0. -1.
</event>
<event>
 7    1  0.2641580E-009  0.1097451E+03  0.7561462E-02  0.1261043E+00
          1   -1    0    0  501    0  0.00000000000E+00  0.00000000000E+00  0.20315924238E+03  0.20315924238E+03  0.00000000000E+00 0. -1.
         -1   -1    0    0    0  501 -0.00000000000E+00 -0.00000000000E+00 -0.66139209428E+02  0.66139209428E+02  0.00000000000E+00 0.  1.
         25    2    1    2    0    0  0.30633046974E+02  0.15358564709E+02  0.10413024338E+03  0.16632700129E+03  0.12508914700E+03 0.  0.
          5    1    3    3  502    0  0.29553362170E+02 -0.49065708747E+02  0.21187579543E+02  0.61214629929E+02  0.41800000000E+01 0. -1.
         -5    1    3    3    0  502  0.10796848036E+01  0.64424273456E+02  0.82942663836E+02  0.10511237136E+03  0.41800000000E+01 0. -1.
        -11    1    1    2    0    0  0.69799298265E+01  0.34408114105E+02  0.13940567856E+02  0.37775351339E+02  0.00000000000E+00 0.  1.
         11    1    1    2    0    0 -0.37612976800E+02 -0.49766678814E+02  0.18949221716E+02  0.65196099175E+02  0.00000000000E+00 0. -1.
</event>
<event>
 7    1  0.2641580E-009  0.8668277E+02  0.7561462E-02  0.1311090E+00
          2   -1    0    0  501    0  0.00000000000E+00  0.00000000000E+00  0.56195263304E+03  0.56195263304E+03  0.00000000000E+00 0. -1.
         -2   -1    0    0    0  501 -0.00000000000E+00 -0.00000000000E+00 -0.21687562105E+02  0.21687562105E+02  0.00000000000E+00 0.  1.
         25    2    1    2    0    0  0.13843781685E+02  0.15810157548E+02  0.26999646309E+03  0.29829497466E+03  0.12506074706E+03 0.  0.
          5    1    3    3  502    0  0.16493454139E+02 -0.38658769120E+02  0.22056799772E+03  0.22457570767E+03  0.41800000000E+01 0. -1.
         -5    1    3    3    0  502 -0.26496724539E+01  0.54468926668E+02  0.49428465368E+02  0.73719266987E+02  0.41800000000E+01 0. -1.
        -11    1    1    2    0    0 -0.43166944472E+02 -0.97394820303E-01  0.22535845060E+03  0.22945549860E+03  0.00000000000E+00 0.  1.
         11    1    1    2    0    0  0.29323162787E+02 -0.15712762728E+02  0.44910157246E+02  0.55889721883E+02  0.00000000000E+00 0. -1.
</event>
<event>
 7    1  0.2641580E-009  0.1168670E+03  0.7561462E-02  0.1248357E+00
          1   -1    0    0  501    0  0.00000000000E+00  0.00000000000E+00  0.12516576743E+03  0.12516576743E+03  0.00000000000E+00 0. -1.
         -1   -1    0    0    0  501 -0.00000000000E+00 -0.00000000000E+00 -0.14545798100E+03  0.14545798100E+03  0.00000000000E+00 0.  1.
         25    2    1    2    0    0 -0.50073303807E+02  0.33367430130E+01 -0.72592841497E+02  0.15308883744E+03  0.12509197378E+03 0.  0.
          5    1    3    3  502    0 -0.10717824805E+02  0.60768815077E+02 -0.17700770383E+02  0.64331254664E+02  0.41800000000E+01 0.  1.
         -5    1    3    3    0  502 -0.39355479002E+02 -0.57432072064E+02 -0.54892071114E+02  0.88757582776E+02  0.41800000000E+01 0.  1.
        -11    1    1    2    0    0  0.45885106391E+02  0.38618882943E+02  0.16447784005E+02  0.62188348643E+02  0.00000000000E+00 0.  1.
         11    1    1    2    0    0  0.41881974156E+01 -0.41955625956E+02  0.35852843921E+02  0.55346562352E+02  0.00000000000E+00 0. -1.
</event>
<event>
 7    1  0.2641580E-009  0.1006949E+03  0.7561462E-02  0.1278841E+00
         -2   -1    0    0    0  501 -0.00000000000E+00  0.00000000000E+00  0.13415231968E+02  0.13415231968E+02  0.00000000000E+00 0.  1.
          2   -1    0    0  501    0  0.00000000000E+00 -0.00000000000E+00 -0.16803059820E+04  0.16803059820E+04  0.00000000000E+00 0. -1.
         25    2    1    2    0    0  0.18589437033E+02  0.69686102774E+02 -0.13197482014E+04  0.13276240545E+04  0.12509434398E+03 0.  0.
          5    1    3    3  502    0  0.34670896261E+02  0.64629922893E+02 -0.12966264605E+04  0.12987057975E+04  0.41800000000E+01 0.  1.
         -5    1    3    3    0  502 -0.16081459228E+02  0.50561798811E+01 -0.23121740905E+02  0.28918257008E+02  0.41800000000E+01 0.  1.
        -11    1    1    2    0    0 -0.52032359988E+02 -0.47285327640E+02 -0.27097560025E+03  0.27994828920E+03  0.00000000000E+00 0.  1.
         11    1    1    2    0    0  0.33442922955E+02 -0.22400775134E+02 -0.76166948362E+02  0.86148870249E+02  0.00000000000E+00 0. -1.
</event>
<event>
 7    1  0.2641580E-009  0.1748240E+03  0.7561462E-02  0.1172908E+00
         -2   -1    0    0    0  501 -0.00000000000E+00  0.00000000000E+00  0.16121715120E+02  0.16121715120E+02  0.00000000000E+00 0.  1.
          2   -1    0    0  501    0  0.00000000000E+00 -0.00000000000E+00 -0.25725221829E+04  0.25725221829E+04  0.00000000000E+00 0. -1.
         25    2    1    2    0    0  0.15434081028E+03 -0.24400062102E+02 -0.18163214728E+04  0.18273177737E+04  0.12510037887E+03 0.  0.
          5    1    3    3  502    0  0.14194287404E+03  0.19759313028E+02 -0.10680231239E+04  0.10776033943E+04  0.41800000000E+01 0.  1.
         -5    1    3    3    0  502  0.12397936238E+02 -0.44159375130E+02 -0.74829834888E+03  0.74971437933E+03  0.41800000000E+01 0.  1.
        -11    1    1    2    0    0 -0.48444923767E+02  0.24577318876E+02 -0.11312631071E+03  0.12549309708E+03  0.00000000000E+00 0.  1.
         11    1    1    2    0    0 -0.10589588651E+03 -0.17725677407E+00 -0.62695268431E+03  0.63583302726E+03  0.00000000000E+00 0. -1.
</event>
<event>
 7    1  0.2641580E-009  0.1485431E+03  0.7561462E-02  0.1202275E+00
         -1   -1    0    0    0  501 -0.00000000000E+00  0.00000000000E+00  0.23611979353E+02  0.23611979353E+02  0.00000000000E+00 0.  1.
          1   -1    0    0  501    0  0.00000000000E+00 -0.00000000000E+00 -0.15861243035E+04  0.15861243035E+04  0.00000000000E+00 0. -1.
         25    2    1    2    0    0 -0.76931314210E+02 -0.90861232085E+02 -0.12750151155E+04  0.12866559058E+04  0.12508271093E+03 0.  0.
          5    1    3    3  502    0 -0.46604394505E+02  0.68720656071E+01 -0.76493857444E+03  0.76639917141E+03  0.41800000000E+01 0. -1.
         -5    1    3    3    0  502 -0.30326919706E+02 -0.97733297693E+02 -0.51007654104E+03  0.52025673437E+03  0.41800000000E+01 0. -1.
        -11    1    1    2    0    0  0.90099824393E+02  0.47081179580E+02 -0.20084591806E+03  0.22510819316E+03  0.00000000000E+00 0.  1.
         11    1    1    2    0    0 -0.13168510182E+02  0.43780052505E+02 -0.86651290646E+02  0.97972183952E+02  0.00000000000E+00 0. -1.
</event>
<event>
 7    1  0.2641580E-009  0.9544703E+02  0.7561462E-02  0.1290172E+00
          1   -1    0    0  501    0  0.00000000000E+00  0.00000000000E+00  0.18365622513E+03  0.18365622513E+03  0.00000000000E+00 0. -1.
         -1   -1    0    0    0  501 -0.00000000000E+00 -0.00000000000E+00 -0.69956054732E+02  0.69956054732E+02  0.00000000000E+00 0.  1.
         25    2    1    2    0    0  0.19937035963E+02  0.14854716069E+02  0.38338682168E+02  0.13317695003E+03  0.12509235579E+03 0.  0.
          5    1    3    3  502    0 -0.73578088182E+00  0.53183988024E+02 -0.22781066586E+02  0.58013165320E+02  0.41800000000E+01 0. -1.
         -5    1    3    3    0  502  0.20672816845E+02 -0.38329271955E+02  0.61119748754E+02  0.75163784715E+02  0.41800000000E+01 0. -1.
        -11    1    1    2    0    0 -0.44225988328E+02  0.22200851424E+02  0.36345795430E+02  0.61398963289E+02  0.00000000000E+00 0.  1.
         11    1    1    2    0    0  0.24288952365E+02 -0.37055567494E+02  0.39015692798E+02  0.59036366536E+02  0.00000000000E+00 0. -1.
</event>
<event>
 7    1  0.2641580E-009  0.1459713E+03  0.7561462E-02  0.1205513E+00
          2   -1    0    0  501    0  0.00000000000E+00  0.00000000000E+00  0.63893579407E+03  0.63893579407E+03  0.00000000000E+00 0.  1.
         -2   -1    0    0    0  501 -0.00000000000E+00 -0.00000000000E+00 -0.38012682615E+02  0.38012682615E+02  0.00000000000E+00 0. -1.
         25    2    1    2    0    0 -0.67028591211E+02 -0.81059878891E+02  0.24149746597E+03  0.29160296671E+03  0.12509087945E+03 0.  0.
          5    1    3    3  502    0 -0.99516320807E+02 -0.59288082462E+02  0.13422921267E+03  0.17735142729E+03  0.41800000000E+01 0. -1.
         -5    1    3    3    0  502  0.32487729596E+02 -0.21771796430E+02  0.10726825329E+03  0.11425153942E+03  0.41800000000E+01 0. -1.
        -11    1    1    2    0    0  0.12563485602E+02  0.81266630868E+02  0.24883026763E+03  0.26206603853E+03  0.00000000000E+00 0.  1.
         11    1    1    2    0    0  0.54465105609E+02 -0.20675197685E+00  0.11059537786E+03  0.12327947144E+03  0.00000000000E+00 0. -1.
</event>
<event>
 7    1  0.2641580E-009  0.8171495E+02  0.7561462E-02  0.1324254E+00
          2   -1    0    0  501    0  0.00000000000E+00  0.00000000000E+00  0.53988537498E+03  0.53988537498E+03  0.00000000000E+00 0.  1.
         -2   -1    0    0    0  501 -0.00000000000E+00 -0.00000000000E+00 -0.24434939251E+02  0.24434939251E+02  0.00000000000E+00 0. -1.
         25    2    1    2    0    0 -0.91147626238E+01  0.16124080172E+02  0.37886243801E+03  0.39940837915E+03  0.12508893453E+03 0.  0.
          5    1    3    3  502    0  0.22251908902E+02 -0.31422671093E+02  0.29744400048E+03  0.29995489250E+03  0.41800000000E+01 0.  1.
         -5    1    3    3    0  502 -0.31366671526E+02  0.47546751264E+02  0.81418437528E+02  0.99453486655E+02  0.41800000000E+01 0.  1.
        -11    1    1    2    0    0 -0.66822123378E+01 -0.39120081775E+02  0.13043955384E+03  0.13634335321E+03  0.00000000000E+00 0.  1.
         11    1    1    2    0    0  0.15796974962E+02  0.22996001603E+02  0.61484438762E+01  0.28568581865E+02  0.00000000000E+00 0. -1.
</event>
<event>
 7    1  0.2641580E-009  0.7730882E+02  0.7561462E-02  0.1336867E+00
         -1   -1    0    0    0  501 -0.00000000000E+00  0.00000000000E+00  0.10175918035E+03  0.10175918035E+03  0.00000000000E+00 0.  1.
          1   -1    0    0  501    0  0.00000000000E+00 -0.00000000000E+00 -0.12005199731E+03  0.12005199731E+03  0.00000000000E+00 0. -1.
         25    2    1    2    0    0 -0.18597420737E+02 -0.86675645566E+01 -0.33432628152E+01  0.12680112751E+03  0.12508540202E+03 0.  0.
          5    1    3    3  502    0  0.36927115316E+02  0.25153826553E+02  0.29638644845E+02  0.53779629081E+02  0.41800000000E+01 0. -1.
         -5    1    3    3    0  502 -0.55524536053E+02 -0.33821391110E+02 -0.32981907661E+02  0.73021498433E+02  0.41800000000E+01 0. -1.
        -11    1    1    2    0    0  0.30112262736E+02 -0.11393751485E+00  0.33145872549E+02  0.44781806751E+02  0.00000000000E+00 0.  1.
         11    1    1    2    0    0 -0.11514841999E+02  0.87815020714E+01 -0.48095426701E+02  0.50228243394E+02  0.00000000000E+00 0. -1.
</event>
<event>
 7    1  0.3555601E-009  0.1353172E+03  0.7561462E-02  0.1219773E+00
          1   -1    0    0  501    0  0.00000000000E+00  0.00000000000E+00  0.25719114475E+03  0.25719114475E+03  0.00000000000E+00 0. -1.
         -1   -1    0    0    0  501 -0.00000000000E+00 -0.00000000000E+00 -0.98392105575E+02  0.98392105575E+02  0.00000000000E+00 0.  1.
         25    2    1    2    0    0 -0.63650738194E+02  0.96055024378E+02  0.97530571155E+02  0.19606088822E+03  0.12509866266E+03 0.  0.
          5    1    3    3  502    0 -0.75102365439E+02  0.25436364296E+02  0.57422069469E+01  0.79610421829E+02  0.41800000000E+01 0.  1.
         -5    1    3    3    0  502  0.11451627245E+02  0.70618660081E+02  0.91788364208E+02  0.11645046639E+03  0.41800000000E+01 0.  1.
        -11    1    1    2    0    0  0.36909340616E+02 -0.27636258936E+02 -0.19748743281E+02  0.50160493358E+02  0.00000000000E+00 0.  1.
         11    1    1    2    0    0  0.26741397578E+02 -0.68418765441E+02  0.81017211298E+02  0.10936186875E+03  0.00000000000E+00 0. -1.
</event>
<event>
 7    1  0.2641580E-009  0.1300462E+03  0.7561462E-02  0.1227387E+00
          2   -1    0    0  501    0  0.00000000000E+00  0.00000000000E+00  0.12068650473E+04  0.12068650473E+04  0.00000000000E+00 0. -1.
         -2   -1    0    0    0  501 -0.00000000000E+00 -0.00000000000E+00 -0.27608135759E+02  0.27608135759E+02  0.00000000000E+00 0.  1.
         25    2    1    2    0    0  0.97564286581E+02  0.17217502105E+02  0.98352200714E+03  0.99638288477E+03  0.12509229449E+03 0.  0.
          5    1    3    3  502    0  0.20162418537E+02  0.59087756707E+02  0.25554499372E+03  0.26309428410E+03  0.41800000000E+01 0. -1.
         -5    1    3    3    0  502  0.77401868044E+02 -0.41870254602E+02  0.72797701343E+03  0.73328860067E+03  0.41800000000E+01 0. -1.
        -11    1    1    2    0    0 -0.15503189990E+02  0.14704996537E+02  0.12018388448E+03  0.12206863607E+03  0.00000000000E+00 0. -1.
         11    1    1    2    0    0 -0.82061096591E+02 -0.31922498641E+02  0.75551019925E+02  0.11602166222E+03  0.00000000000E+00 0.  1.
</event>
<event>
 7    1  0.2641580E-009  0.1225350E+03  0.7561462E-02  0.1238973E+00
          2   -1    0    0  501    0  0.00000000000E+00  0.00000000000E+00  0.62108885673E+03  0.62108885673E+03  0.00000000000E+00 0. -1.
         -2   -1    0    0    0  501 -0.00000000000E+00 -0.00000000000E+00 -0.25758795273E+02  0.25758795273E+02  0.00000000000E+00 0.  1.
         25    2    1    2    0    0 -0.72510491647E+01  0.65608794419E+02  0.32954846367E+03  0.35861907988E+03  0.12509341681E+03 0.  0.
          5    1    3    3  502    0  0.58485441422E+02  0.38885023762E+02  0.16375857761E+03  0.17823281424E+03  0.41800000000E+01 0. -1.
         -5    1    3    3    0  502 -0.65736490586E+02  0.26723770657E+02  0.16578988606E+03  0.18038626564E+03  0.41800000000E+01 0. -1.
        -11    1    1    2    0    0 -0.22304921716E+02  0.84802365227E+01  0.24921624748E+02  0.34503787101E+02  0.00000000000E+00 0.  1.
         11    1    1    2    0    0  0.29555970880E+02 -0.74089030942E+02  0.24085997304E+03  0.25372478502E+03  0.00000000000E+00 0. -1.
</event>
<event>
 7    1  0.2641580E-009  0.1900409E+03  0.7561462E-02  0.1158424E+00
         -2   -1    0    0    0  501 -0.00000000000E+00  0.00000000000E+00  0.10902731776E+03  0.10902731776E+03  0.00000000000E+00 0.  1.
          2   -1    0    0  501    0  0.00000000000E+00 -0.00000000000E+00 -0.35034006526E+03  0.35034006526E+03  0.00000000000E+00 0. -1.
         25    2    1    2    0    0  0.12494289672E+03 -0.94721819809E+02 -0.17768274230E+03  0.26795844834E+03  0.12509045743E+03 0.  0.
          5    1    3    3  502    0 -0.25404894270E+02 -0.11752042981E+02 -0.32065268580E+02  0.42768832299E+02  0.41800000000E+01 0.  1.
         -5    1    3    3    0  502  0.15034779099E+03 -0.82969776828E+02 -0.14561747372E+03  0.22518961604E+03  0.41800000000E+01 0.  1.
        -11    1    1    2    0    0 -0.57091438168E+02 -0.72232484544E+01 -0.13660819762E+02  0.59145799740E+02  0.00000000000E+00 0. -1.
         11    1    1    2    0    0 -0.67851458548E+02  0.10194506826E+03 -0.49969185445E+02  0.13226313494E+03  0.00000000000E+00 0.  1.
</event>
<event>
 7    1  0.2641580E-009  0.1022939E+03  0.7561462E-02  0.1275545E+00
          2   -1    0    0  501    0  0.00000000000E+00  0.00000000000E+00  0.78938612897E+02  0.78938612897E+02  0.00000000000E+00 0. -1.
         -2   -1    0    0    0  501 -0.00000000000E+00 -0.00000000000E+00 -0.22649344146E+03  0.22649344146E+03  0.00000000000E+00 0.  1.
         25    2    1    2    0    0 -0.36699269373E+02  0.60200134899E+02 -0.11947383154E+03  0.18679666227E+03  0.12509238185E+03 0.  0.
          5    1    3    3  502    0  0.62896590140E+01  0.64553206938E+02 -0.12706982038E+03  0.14272661976E+03  0.41800000000E+01 0. -1.
         -5    1    3    3    0  502 -0.42988928387E+02 -0.43530720389E+01  0.75959888427E+01  0.44070042506E+02  0.41800000000E+01 0. -1.
        -11    1    1    2    0    0 -0.18147880267E+02 -0.25439574412E+02  0.20644132976E+02  0.37452606462E+02  0.00000000000E+00 0. -1.
         11    1    1    2    0    0  0.54847149640E+02 -0.34760560487E+02 -0.48725130005E+02  0.81182785632E+02  0.00000000000E+00 0.  1.
</event>
<event>
 7    1  0.2641580E-009  0.1462566E+03  0.7561462E-02  0.1205150E+00
          1   -1    0    0  501    0  0.00000000000E+00  0.00000000000E+00  0.20744462284E+03  0.20744462284E+03  0.00000000000E+00 0. -1.
         -1   -1    0    0    0  501 -0.00000000000E+00 -0.00000000000E+00 -0.16144816548E+03  0.16144816548E+03  0.00000000000E+00 0.  1.
         25    2    1    2    0    0 -0.48687204581E+02 -0.10803762747E+03 -0.62637062556E+02  0.18333884968E+03  0.12508860602E+03 0.  0.
          5    1    3    3  502    0 -0.74355244829E+02 -0.63697436904E+02  0.53060644292E+01  0.98141187182E+02  0.41800000000E+01 0. -1.
         -5    1    3    3    0  502  0.25668040249E+02 -0.44340190568E+02 -0.67943126985E+02  0.85197662493E+02  0.41800000000E+01 0. -1.
        -11    1    1    2    0    0  0.30052266528E+02  0.11814825377E+03  0.67677908281E+02  0.13943617845E+03  0.00000000000E+00 0. -1.
         11    1    1    2    0    0  0.18634938053E+02 -0.10110626295E+02  0.40955611635E+02  0.46117760187E+02  0.00000000000E+00 0.  1.
</event>
<event>
 7    1  0.2641580E-009  0.1427415E+03  0.7561462E-02  0.1209687E+00
         -1   -1    0    0    0  501 -0.00000000000E+00  0.00000000000E+00  0.10045404841E+03  0.10045404841E+03  0.00000000000E+00 0.  1.
          1   -1    0    0  501    0  0.00000000000E+00 -0.00000000000E+00 -0.46447400597E+03  0.46447400597E+03  0.00000000000E+00 0. -1.
         25    2    1    2    0    0 -0.45988535350E+02  0.82428259490E+02 -0.39714338345E+03  0.42694244523E+03  0.12509045199E+03 0.  0.
          5    1    3    3  502    0 -0.25610536552E+02 -0.31276121353E+02 -0.11847836808E+03  0.12525450672E+03  0.41800000000E+01 0. -1.
         -5    1    3    3    0  502 -0.20377998798E+02  0.11370438084E+03 -0.27866501536E+03  0.30168793851E+03  0.41800000000E+01 0. -1.
        -11    1    1    2    0    0 -0.90881098737E+01  0.14881286379E+02  0.18156344590E+02  0.25173384243E+02  0.00000000000E+00 0.  1.
         11    1    1    2    0    0  0.55076645224E+02 -0.97309545869E+02  0.14967081300E+02  0.11281222491E+03  0.00000000000E+00 0. -1.
</event>
<event>
 7    1  0.2641580E-009  0.3010308E+03  0.7561462E-02  0.1084726E+00
         -1   -1    0    0    0  501 -0.00000000000E+00  0.00000000000E+00  0.58076529365E+02  0.58076529365E+02  0.00000000000E+00 0.  1.
          1   -1    0    0  501    0  0.00000000000E+00 -0.00000000000E+00 -0.18069408039E+04  0.18069408039E+04  0.00000000000E+00 0. -1.
         25    2    1    2    0    0  0.29045674227E+03 -0.15980327814E+02 -0.11419243895E+04  0.11850143793E+04  0.12508907905E+03 0.  0.
          5    1    3    3  502    0  0.16537415629E+02  0.19713604141E+02 -0.24817845007E+03  0.24954383940E+03  0.41800000000E+01 0. -1.
         -5    1    3    3    0  502  0.27391932664E+03 -0.35693931955E+02 -0.89374593948E+03  0.93547053990E+03  0.41800000000E+01 0. -1.
        -11    1    1    2    0    0 -0.38807990892E+02  0.27898394308E+02 -0.15957149356E+03  0.16657563483E+03  0.00000000000E+00 0. -1.
         11    1    1    2    0    0 -0.25164875138E+03 -0.11918066494E+02 -0.44736839139E+03  0.51342731910E+03  0.00000000000E+00 0.  1.
</event>
<event>
 7    1  0.2641580E-009  0.1096274E+03  0.7561462E-02  0.1261261E+00
         -1   -1    0    0    0  501 -0.00000000000E+00  0.00000000000E+00  0.72716685411E+02  0.72716685411E+02  0.00000000000E+00 0.  1.
          1   -1    0    0  501    0  0.00000000000E+00 -0.00000000000E+00 -0.25469138734E+03  0.25469138734E+03  0.00000000000E+00 0. -1.
         25    2    1    2    0    0  0.51747317997E+02 -0.35644737813E+01 -0.17720134450E+03  0.22301973324E+03  0.12508794719E+03 0.  0.
          5    1    3    3  502    0  0.50684592903E+02  0.49685634329E+02 -0.55792352813E+02  0.90376154205E+02  0.41800000000E+01 0.  1.
         -5    1    3    3    0  502  0.10627250945E+01 -0.53250108111E+02 -0.12140899168E+03  0.13264357904E+03  0.41800000000E+01 0.  1.
        -11    1    1    2    0    0 -0.70460653512E+02 -0.10611043474E+02  0.16012918986E+02  0.73032263496E+02  0.00000000000E+00 0.  1.
         11    1    1    2    0    0  0.18713335515E+02  0.14175517255E+02 -0.20786276417E+02  0.31356076011E+02  0.00000000000E+00 0. -1.
</event>
<event>
 7    1  0.2641580E-009  0.1046674E+03  0.7561462E-02  0.1270776E+00
          2   -1    0    0  501    0  0.00000000000E+00  0.00000000000E+00  0.15022457585E+03  0.15022457585E+03  0.00000000000E+00 0. -1.
         -2   -1    0    0    0  501 -0.00000000000E+00 -0.00000000000E+00 -0.14032875678E+03  0.14032875678E+03  0.00000000000E+00 0.  1.
         25    2    1    2    0    0 -0.38464098885E+01  0.71203747806E+02  0.70126504818E+02  0.16014355361E+03  0.12507382826E+03 0.  0.
          5    1    3    3  502    0 -0.16550937047E+02  0.96783610052E+02  0.17078127464E+02  0.99750366062E+02  0.41800000000E+01 0.  1.
         -5    1    3    3    0  502  0.12704527158E+02 -0.25579862245E+02  0.53048377354E+02  0.60393187552E+02  0.41800000000E+01 0.  1.
        -11    1    1    2    0    0  0.21546723100E+02 -0.26781783785E+02  0.17939901042E+02  0.38773254551E+02  0.00000000000E+00 0.  1.
         11    1    1    2    0    0 -0.17700313211E+02 -0.44421964022E+02 -0.78170586796E+02  0.91636524461E+02  0.00000000000E+00 0. -1.
</event>
<event>
 7    1  0.2641580E-009  0.4852978E+03  0.7561462E-02  0.1017689E+00
          2   -1    0    0  501    0  0.00000000000E+00  0.00000000000E+00  0.32095013526E+04  0.32095013526E+04  0.00000000000E+00 0.  1.
         -2   -1    0    0    0  501 -0.00000000000E+00 -0.00000000000E+00 -0.11933818525E+03  0.11933818525E+03  0.00000000000E+00 0. -1.
         25    2    1    2    0    0  0.47766361186E+03 -0.45152145456E+02  0.54283564591E+03  0.73520001274E+03  0.12508907996E+03 0.  0.
          5    1    3    3  502    0  0.38662914476E+03 -0.11558894089E+02  0.49111726841E+03  0.62516345650E+03  0.41800000000E+01 0. -1.
         -5    1    3    3    0  502  0.91034467102E+02 -0.33593251368E+02  0.51718377500E+02  0.11003655624E+03  0.41800000000E+01 0. -1.
        -11    1    1    2    0    0 -0.38774279953E+03  0.40178515619E+01  0.21018635870E+04  0.21373327209E+04  0.00000000000E+00 0. -1.
         11    1    1    2    0    0 -0.89920812325E+02  0.41134293895E+02  0.44546393441E+03  0.45630680412E+03  0.00000000000E+00 0.  1.
</event>
<event>
 7    1  0.2641580E-009  0.7631831E+02  0.7561462E-02  0.1339837E+00
         -1   -1    0    0    0  501 -0.00000000000E+00  0.00000000000E+00  0.62604795128E+03  0.62604795128E+03  0.00000000000E+00 0.  1.
          1   -1    0    0  501    0  0.00000000000E+00 -0.00000000000E+00 -0.23458042500E+02  0.23458042500E+02  0.00000000000E+00 0. -1.
         25    2    1    2    0    0 -0.33248909518E+02  0.42805048659E+01  0.38678866010E+03  0.40789483627E+03  0.12509563209E+03 0.  0.
          5    1    3    3  502    0  0.56795930088E+01  0.46105261185E+01 -0.77323277595E+01  0.11435734363E+02  0.41800000000E+01 0.  1.
         -5    1    3    3    0  502 -0.38928502527E+02 -0.33002125265E+00  0.39452098786E+03  0.39645910191E+03  0.41800000000E+01 0.  1.
        -11    1    1    2    0    0  0.49111126154E+02 -0.41692490636E+02  0.10066171741E+03  0.11951128750E+03  0.00000000000E+00 0.  1.
         11    1    1    2    0    0 -0.15862216636E+02  0.37411985770E+02  0.11513953127E+03  0.12209987001E+03  0.00000000000E+00 0. -1.
</event>
<event>
 7    1  0.3232224E-009  0.1341775E+03  0.7561462E-02  0.1221385E+00
         -2   -1    0    0    0  501 -0.00000000000E+00  0.00000000000E+00  0.64418546116E+02  0.64418546116E+02  0.00000000000E+00 0.  1.
          2   -1    0    0  501    0  0.00000000000E+00 -0.00000000000E+00 -0.45148073940E+03  0.45148073940E+03  0.00000000000E+00 0. -1.
         25    2    1    2    0    0 -0.58158990627E+02 -0.84112086606E+02 -0.33047760250E+03  0.36785892519E+03  0.12508969497E+03 0.  0.
          5    1    3    3  502    0  0.26930258813E+02 -0.22993984653E+01 -0.15438932676E+02  0.31406354695E+02  0.41800000000E+01 0.  1.
         -5    1    3    3    0  502 -0.85089249441E+02 -0.81812688140E+02 -0.31503866982E+03  0.33645257050E+03  0.41800000000E+01 0.  1.
        -11    1    1    2    0    0  0.65688744986E+02  0.37427062352E+02 -0.65367230460E+02  0.99943339108E+02  0.00000000000E+00 0. -1.
         11    1    1    2    0    0 -0.75297543585E+01  0.46685024253E+02  0.87826396733E+01  0.48097021216E+02  0.00000000000E+00 0.  1.
</event>
<event>
 7    1  0.2641580E-009  0.1464180E+03  0.7561462E-02  0.1204945E+00
          1   -1    0    0  501    0  0.00000000000E+00  0.00000000000E+00  0.41468466552E+02  0.41468466552E+02  0.00000000000E+00 0. -1.
         -1   -1    0    0    0  501 -0.00000000000E+00 -0.00000000000E+00 -0.55927028201E+03  0.55927028201E+03  0.00000000000E+00 0.  1.
         25    2    1    2    0    0  0.28271915621E+02  0.10239218801E+03 -0.29130785745E+03  0.33435584161E+03  0.12510035822E+03 0.  0.
          5    1    3    3  502    0  0.32118604245E+02  0.12719306324E+03 -0.27330489888E+03  0.30318759907E+03  0.41800000000E+01 0. -1.
         -5    1    3    3    0  502 -0.38466886239E+01 -0.24800875235E+02 -0.18002958571E+02  0.31168242541E+02  0.41800000000E+01 0. -1.
        -11    1    1    2    0    0 -0.37247741197E+02 -0.11487666134E+03 -0.21691718147E+03  0.24826821214E+03  0.00000000000E+00 0.  1.
         11    1    1    2    0    0  0.89758255761E+01  0.12484473334E+02 -0.95767765372E+01  0.18114694809E+02  0.00000000000E+00 0. -1.
</event>
<event>
 7    1  0.2641580E-009  0.8667728E+02  0.7561462E-02  0.1311104E+00
         -2   -1    0    0    0  501 -0.00000000000E+00  0.00000000000E+00  0.21432392818E+02  0.21432392818E+02  0.00000000000E+00 0.  1.
          2   -1    0    0  501    0  0.00000000000E+00 -0.00000000000E+00 -0.66638969643E+03  0.66638969643E+03  0.00000000000E+00 0. -1.
         25    2    1    2    0    0  0.41893470382E+02  0.19175388267E+01 -0.43306641967E+03  0.45271691660E+03  0.12508933973E+03 0.  0.
          5    1    3    3  502    0  0.25216718539E+02 -0.32332978987E+02 -0.38843529932E+02  0.56635648152E+02  0.41800000000E+01 0. -1.
         -5    1    3    3    0  502  0.16676751843E+02  0.34250517814E+02 -0.39422288974E+03  0.39608126845E+03  0.41800000000E+01 0. -1.
        -11    1    1    2    0    0 -0.60913542790E+02  0.20634016495E+02 -0.18233647902E+03  0.19334635739E+03  0.00000000000E+00 0.  1.
         11    1    1    2    0    0  0.19020072408E+02 -0.22551555322E+02 -0.29554404915E+02  0.41758815258E+02  0.00000000000E+00 0. -1.
</event>
<event>
 7    1  0.2780615E-009  0.9336590E+02  0.7561462E-02  0.1294899E+00
          2   -1    0    0  501    0  0.00000000000E+00  0.00000000000E+00  0.29008606362E+03  0.29008606362E+03  0.00000000000E+00 0. -1.
         -2   -1    0    0    0  501 -0.00000000000E+00 -0.00000000000E+00 -0.61908751813E+02  0.61908751813E+02  0.00000000000E+00 0.  1.
         25    2    1    2    0    0 -0.75015359076E+02  0.22132039629E+02  0.12818507527E+03  0.19543823103E+03  0.12509019686E+03 0.  0.
          5    1    3    3  502    0 -0.83512313629E+02  0.18471047557E+02  0.14924044845E+03  0.17206298259E+03  0.41800000000E+01 0.  1.
         -5    1    3    3    0  502  0.84969545538E+01  0.36609920711E+01 -0.21055373182E+02  0.23375248437E+02  0.41800000000E+01 0.  1.
        -11    1    1    2    0    0  0.36968880915E+02  0.12972825688E+02  0.97102260445E+02  0.10470836331E+03  0.00000000000E+00 0. -1.
         11    1    1    2    0    0  0.38046478160E+02 -0.35104865317E+02  0.28899760954E+01  0.51848221099E+02  0.00000000000E+00 0.  1.
</event>
<event>
 7    1  0.2641580E-009  0.1246419E+03  0.7561462E-02  0.1235630E+00
         -3   -1    0    0    0  501 -0.00000000000E+00  0.00000000000E+00  0.74074548336E+03  0.74074548336E+03  0.00000000000E+00 0.  1.
          3   -1    0    0  501    0  0.00000000000E+00 -0.00000000000E+00 -0.12806491765E+03  0.12806491765E+03  0.00000000000E+00 0. -1.
         25    2    1    2    0    0 -0.65003384612E+02  0.50604325938E+02 -0.76767819264E+02  0.16830561577E+03  0.12508894600E+03 0.  0.
          5    1    3    3  502    0 -0.62467526470E+02 -0.11058956217E+02 -0.84739279814E+02  0.10593729428E+03  0.41800000000E+01 0.  1.
         -5    1    3    3    0  502 -0.25358581419E+01  0.61663282155E+02  0.79714605496E+01  0.62368321493E+02  0.41800000000E+01 0.  1.
        -11    1    1    2    0    0  0.29245880923E+02  0.26114298916E+02  0.20436710824E+03  0.20809419283E+03  0.00000000000E+00 0. -1.
         11    1    1    2    0    0  0.35757503689E+02 -0.76718624854E+02  0.48508127674E+03  0.49241059240E+03  0.00000000000E+00 0.  1.
</event>
<event>
 7    1  0.2641580E-009  0.1119630E+03  0.7561462E-02  0.1256977E+00
         -2   -1    0    0    0  501 -0.00000000000E+00  0.00000000000E+00  0.46726537854E+02  0.46726537854E+02  0.00000000000E+00 0. -1.
          2   -1    0    0  501    0  0.00000000000E+00 -0.00000000000E+00 -0.41634690049E+03  0.41634690049E+03  0.00000000000E+00 0.  1.
         25    2    1    2    0    0 -0.61324799481E+02  0.31275017500E+02 -0.11472645566E+03  0.18316219620E+03  0.12508945893E+03 0.  0.
          5    1    3    3  502    0 -0.12626221844E+02  0.75233532501E+02 -0.70285765838E+02  0.10381265419E+03  0.41800000000E+01 0. -1.
         -5    1    3    3    0  502 -0.48698577637E+02 -0.43958515001E+02 -0.44440689826E+02  0.79349542010E+02  0.41800000000E+01 0. -1.
        -11    1    1    2    0    0  0.11295547767E+01 -0.20628264712E+02 -0.32063320947E+01  0.20906500532E+02  0.00000000000E+00 0. -1.
         11    1    1    2    0    0  0.60195244704E+02 -0.10646752789E+02 -0.25168757487E+03  0.25900474161E+03  0.00000000000E+00 0.  1.
</event>
<event>
 7    1  0.2641580E-009  0.1319658E+03  0.7561462E-02  0.1224568E+00
          1   -1    0    0  501    0  0.00000000000E+00  0.00000000000E+00  0.10190060746E+04  0.10190060746E+04  0.00000000000E+00 0. -1.
         -1   -1    0    0    0  501 -0.00000000000E+00 -0.00000000000E+00 -0.23303201321E+02  0.23303201321E+02  0.00000000000E+00 0.  1.
         25    2    1    2    0    0 -0.77463732685E+02  0.67629355790E+02  0.66783357502E+03  0.68718523552E+03  0.12508998504E+03 0.  0.
          5    1    3    3  502    0 -0.17793130080E+02 -0.27528566866E+02  0.55263748526E+02  0.64389220937E+02  0.41800000000E+01 0. -1.
         -5    1    3    3    0  502 -0.59670602605E+02  0.95157922656E+02  0.61256982649E+03  0.62279601459E+03  0.41800000000E+01 0. -1.
        -11    1    1    2    0    0  0.33589899987E+02  0.46777960994E+01  0.19279825961E+03  0.19575835121E+03  0.00000000000E+00 0. -1.
         11    1    1    2    0    0  0.43873832699E+02 -0.72307151889E+02  0.13507103866E+03  0.15936568921E+03  0.00000000000E+00 0.  1.
</event>
<event>
 7    1  0.2641580E-009  0.1125818E+03  0.7561462E-02  0.1255862E+00
          2   -1    0    0  501    0  0.00000000000E+00  0.00000000000E+00  0.17513332124E+03  0.17513332124E+03  0.00000000000E+00 0. -1.
         -2   -1    0    0    0  501 -0.00000000000E+00 -0.00000000000E+00 -0.86450843970E+02  0.86450843970E+02  0.00000000000E+00 0.  1.
         25    2    1    2    0    0 -0.45137455489E+02 -0.20115906555E+02  0.27914186195E+02  0.13736273430E+03  0.12508908585E+03 0.  0.
          5    1    3    3  502    0 -0.81338620730E+02 -0.33338272443E+02 -0.25757658411E+01  0.88042708962E+02  0.41800000000E+01 0.  1.
         -5    1    3    3    0  502  0.36201165241E+02  0.13222365888E+02  0.30489952037E+02  0.49320025341E+02  0.41800000000E+01 0.  1.
        -11    1    1    2    0    0  0.70669342344E+02  0.12664200036E+02  0.65526395860E+02  0.97202090843E+02  0.00000000000E+00 0. -1.
         11    1    1    2    0    0 -0.25531886855E+02  0.74517065190E+01 -0.47581047839E+01  0.27019340065E+02  0.00000000000E+00 0.  1.
</event>
<event>
 7    1  0.2641580E-009  0.1091953E+03  0.7561462E-02  0.1262067E+00
          1   -1    0    0  501    0  0.00000000000E+00  0.00000000000E+00  0.15541700369E+03  0.15541700369E+03  0.00000000000E+00 0.  1.
         -1   -1    0    0    0  501 -0.00000000000E+00 -0.00000000000E+00 -0.96872900578E+02  0.96872900578E+02  0.00000000000E+00 0. -1.
         25    2    1    2    0    0 -0.25192142948E+02  0.39807400071E+02  0.64512535028E+02  0.14841964436E+03  0.12508897029E+03 0.  0.
          5    1    3    3  502    0  0.26274711750E+02  0.55062879750E+02 -0.39971588720E+01  0.61284018169E+02  0.41800000000E+01 0. -1.
         -5    1    3    3    0  502 -0.51466854698E+02 -0.15255479679E+02  0.68509693900E+02  0.87135626187E+02  0.41800000000E+01 0. -1.
        -11    1    1    2    0    0 -0.34091363309E+02 -0.44836831184E+01 -0.57382408568E+01  0.34860462915E+02  0.00000000000E+00 0. -1.
         11    1    1    2    0    0  0.59283506256E+02 -0.35323716953E+02 -0.23019106077E+00  0.69009796995E+02  0.00000000000E+00 0.  1.
</event>
<event>
 7    1  0.2641580E-009  0.9725149E+02  0.7561462E-02  0.1286184E+00
          2   -1    0    0  501    0  0.00000000000E+00  0.00000000000E+00  0.28360587445E+02  0.28360587445E+02  0.00000000000E+00 0. -1.
         -2   -1    0    0    0  501 -0.00000000000E+00 -0.00000000000E+00 -0.43087883015E+03  0.43087883015E+03  0.00000000000E+00 0.  1.
         25    2    1    2    0    0 -0.62295135810E+01 -0.40046028486E+01 -0.27336444309E+03  0.30070996502E+03  0.12507406060E+03 0.  0.
          5    1    3    3  502    0  0.99924071019E+01  0.57119261230E+02 -0.94525248106E+02  0.11097275852E+03  0.41800000000E+01 0.  1.
         -5    1    3    3    0  502 -0.16221920683E+02 -0.61123864079E+02 -0.17883919498E+03  0.18973720650E+03  0.41800000000E+01 0.  1.
        -11    1    1    2    0    0 -0.32727754155E+02 -0.47182098286E+01 -0.10880926995E+03  0.11372257746E+03  0.00000000000E+00 0.  1.
         11    1    1    2    0    0  0.38957267736E+02  0.87228126772E+01 -0.20344529664E+02  0.44806875116E+02  0.00000000000E+00 0. -1.
</event>
<event>
 7    1  0.2641580E-009  0.1451890E+03  0.7561462E-02  0.1206512E+00
         -2   -1    0    0    0  501 -0.00000000000E+00  0.00000000000E+00  0.21544184549E+02  0.21544184549E+02  0.00000000000E+00 0. -1.
          2   -1    0    0  501    0  0.00000000000E+00 -0.00000000000E+00 -0.12053299778E+04  0.12053299778E+04  0.00000000000E+00 0.  1.
         25    2    1    2    0    0  0.10742120381E+03  0.36343662459E+02 -0.77744771739E+03  0.79557057588E+03  0.12508961229E+03 0.  0.
          5    1    3    3  502    0  0.12557897227E+03  0.34694631241E+02 -0.75581123135E+03  0.76696928592E+03  0.41800000000E+01 0. -1.
         -5    1    3    3    0  502 -0.18157768455E+02  0.16490312180E+01 -0.21636486044E+02  0.28601289963E+02  0.41800000000E+01 0. -1.
        -11    1    1    2    0    0 -0.35216461036E+02  0.27701665762E+02 -0.17487545235E+03  0.18052425113E+03  0.00000000000E+00 0.  1.
         11    1    1    2    0    0 -0.72204742775E+02 -0.64045328222E+02 -0.23146262351E+03  0.25077933533E+03  0.00000000000E+00 0. -1.
</event>
<event>
 7    1  0.2641580E-009  0.2158240E+03  0.7561462E-02  0.1137035E+00
          1   -1    0    0  501    0  0.00000000000E+00  0.00000000000E+00  0.12992389067E+03  0.12992389067E+03  0.00000000000E+00 0. -1.
         -1   -1    0    0    0  501 -0.00000000000E+00 -0.00000000000E+00 -0.37453698652E+03  0.37453698652E+03  0.00000000000E+00 0.  1.
         25    2    1    2    0    0 -0.15772194025E+03 -0.10470177864E+03 -0.88675653292E+02  0.24361839051E+03  0.12509146983E+03 0.  0.
          5    1    3    3  502    0 -0.93459876281E+02 -0.12729572290E+03 -0.70499127684E+02  0.17299291589E+03  0.41800000000E+01 0. -1.
         -5    1    3    3    0  502 -0.64262063969E+02  0.22593944262E+02 -0.18176525608E+02  0.70625474625E+02  0.41800000000E+01 0. -1.
        -11    1    1    2    0    0 -0.54271130026E+01  0.21716139267E+02 -0.34692968729E+02  0.41287362950E+02  0.00000000000E+00 0.  1.
         11    1    1    2    0    0  0.16314905325E+03  0.82985639371E+02 -0.12124447383E+03  0.21955512373E+03  0.00000000000E+00 0. -1.
</event>
<event>
 7    1  0.2641580E-009  0.1105533E+03  0.7561462E-02  0.1259549E+00
         -2   -1    0    0    0  501 -0.00000000000E+00  0.00000000000E+00  0.87178683604E+02  0.87178683604E+02  0.00000000000E+00 0.  1.
          2   -1    0    0  501    0  0.00000000000E+00 -0.00000000000E+00 -0.15022283200E+03  0.15022283200E+03  0.00000000000E+00 0. -1.
         25    2    1    2    0    0 -0.29227974233E+02  0.10565688692E+02 -0.14933722820E+02  0.12975334279E+03  0.12508799156E+03 0.  0.
          5    1    3    3  502    0 -0.75274381528E+02 -0.62598893425E+01  0.68204152580E+01  0.75956627053E+02  0.41800000000E+01 0. -1.
         -5    1    3    3    0  502  0.46046407295E+02  0.16825578035E+02 -0.21754138078E+02  0.53796715741E+02  0.41800000000E+01 0. -1.
        -11    1    1    2    0    0 -0.30726401729E+02 -0.18363091849E+02 -0.19475781896E+02  0.40750717613E+02  0.00000000000E+00 0. -1.
         11    1    1    2    0    0  0.59954375962E+02  0.77974031571E+01 -0.28634643678E+02  0.66897455195E+02  0.00000000000E+00 0.  1.
</event>
<event>
 7    1  0.2641580E-009  0.1794831E+03  0.7561462E-02  0.1168304E+00
         -1   -1    0    0    0  501 -0.00000000000E+00  0.00000000000E+00  0.64755297519E+02  0.64755297519E+02  0.00000000000E+00 0.  1.
          1   -1    0    0  501    0  0.00000000000E+00 -0.00000000000E+00 -0.72457476730E+03  0.72457476730E+03  0.00000000000E+00 0. -1.
         25    2    1    2    0    0  0.14962904872E+03  0.50997375590E+02 -0.52256867341E+03  0.56010279414E+03  0.12509011566E+03 0.  0.
          5    1    3    3  502    0 -0.15534992622E+02  0.19488098104E+02 -0.28004828124E+02  0.37720879652E+02  0.41800000000E+01 0. -1.
         -5    1    3    3    0  502  0.16516404135E+03  0.31509277486E+02 -0.49456384529E+03  0.52238191449E+03  0.41800000000E+01 0. -1.
        -11    1    1    2    0    0 -0.45570397809E+02 -0.40407372859E+02 -0.10209426868E+03  0.11888085058E+03  0.00000000000E+00 0. -1.
         11    1    1    2    0    0 -0.10405865091E+03 -0.10590002731E+02 -0.35156527688E+02  0.11034642009E+03  0.00000000000E+00 0.  1.
</event>
<event>
 7    1  0.2641580E-009  0.1086246E+03  0.7561462E-02  0.1263138E+00
          1   -1    0    0  501    0  0.00000000000E+00  0.00000000000E+00  0.75489736437E+03  0.75489736437E+03  0.00000000000E+00 0. -1.
         -1   -1    0    0    0  501 -0.00000000000E+00 -0.00000000000E+00 -0.16361164138E+02  0.16361164138E+02  0.00000000000E+00 0.  1.
         25    2    1    2    0    0 -0.68912608163E+01  0.20021667408E+02  0.48043266313E+03  0.49690146794E+03  0.12508864214E+03 0.  0.
          5    1    3    3  502    0 -0.38395100539E+02 -0.41780184476E+02  0.19502980424E+03  0.20315970196E+03  0.41800000000E+01 0. -1.
         -5    1    3    3    0  502  0.31503839723E+02  0.61801851885E+02  0.28540285889E+03  0.29374176597E+03  0.41800000000E+01 0. -1.
        -11    1    1    2    0    0 -0.40792457555E+02 -0.66110469987E+01  0.14727417270E+03  0.15296212760E+03  0.00000000000E+00 0.  1.
         11    1    1    2    0    0  0.47683718371E+02 -0.13410620410E+02  0.11082936441E+03  0.12139493298E+03  0.00000000000E+00 0. -1.
</event>
<event>
 7    1  0.2641580E-009  0.1383259E+03  0.7561462E-02  0.1215599E+00
         -2   -1    0    0    0  501 -0.00000000000E+00  0.00000000000E+00  0.15586280914E+02  0.15586280914E+02  0.00000000000E+00 0.  1.
          2   -1    0    0  501    0  0.00000000000E+00 -0.00000000000E+00 -0.21113968711E+04  0.21113968711E+04  0.00000000000E+00 0. -1.
         25    2    1    2    0    0  0.23270543392E+02  0.99113612229E+02 -0.17140733620E+04  0.17216444023E+04  0.12508769330E+03 0.  0.
          5    1    3    3  502    0 -0.45275111043E+02  0.70932466837E+02 -0.75003897278E+03  0.75475637369E+03  0.41800000000E+01 0.  1.
         -5    1    3    3    0  502  0.68545654435E+02  0.28181145392E+02 -0.96403438926E+03  0.96688802856E+03  0.41800000000E+01 0.  1.
        -11    1    1    2    0    0  0.20076180711E+02 -0.22607306428E+02 -0.29318525709E+02  0.42115546839E+02  0.00000000000E+00 0. -1.
         11    1    1    2    0    0 -0.43346724103E+02 -0.76506305802E+02 -0.35241870245E+03  0.36322320294E+03  0.00000000000E+00 0.  1.
</event>
<event>
 6    1  0.2641580E-009  0.1334218E+03  0.7561462E-02  0.1222465E+00
          2   -1    0    0  501    0  0.00000000000E+00  0.00000000000E+00  0.15853376078E+03  0.15853376078E+03  0.00000000000E+00 0.  1.
         -2   -1    0    0    0  501 -0.00000000000E+00 -0.00000000000E+00 -0.13179937884E+03  0.13179937884E+03  0.00000000000E+00 0. -1.
          5    1    1    2  502    0  0.31431616449E+02 -0.68836155957E+02  0.11708375118E+02  0.76687165337E+02  0.41800000000E+01 0. -1.
         -5    1    1    2    0  502 -0.78192215133E+02 -0.15974113208E+02  0.11580234826E+02  0.80751278867E+02  0.41800000000E+01 0. -1.
        -11    1    1    2    0    0  0.11014105121E+02  0.72500227820E+02  0.37186090920E+02  0.82221644981E+02  0.00000000000E+00 0.  1.
         11    1    1    2    0    0  0.35746493562E+02  0.12310041345E+02 -0.33740318914E+02  0.50673050434E+02  0.00000000000E+00 0. -1.
</event>
<event>
 7    1  0.2641580E-009  0.1585197E+03  0.7561462E-02  0.1190378E+00
          2   -1    0    0  501    0  0.00000000000E+00  0.00000000000E+00  0.15075775894E+04  0.15075775894E+04  0.00000000000E+00 0. -1.
         -2   -1    0    0    0  501 -0.00000000000E+00 -0.00000000000E+00 -0.17301546577E+02  0.17301546577E+02  0.00000000000E+00 0.  1.
         25    2    1    2    0    0 -0.10435055566E+03 -0.57112097015E+02  0.75246119956E+03  0.77200802927E+03  0.12509080834E+03 0.  0.
          5    1    3    3  502    0  0.30206721351E-01 -0.67097035146E+02  0.26692309586E+03  0.27525883190E+03  0.41800000000E+01 0. -1.
         -5    1    3    3    0  502 -0.10438076238E+03  0.99849381304E+01  0.48553810370E+03  0.49674919737E+03  0.41800000000E+01 0. -1.
        -11    1    1    2    0    0 -0.62965281498E+00  0.38195797368E+02  0.12057829751E+03  0.12648494467E+03  0.00000000000E+00 0.  1.
         11    1    1    2    0    0  0.10498020848E+03  0.18916299647E+02  0.61723654576E+03  0.62638616204E+03  0.00000000000E+00 0. -1.
</event>
<event>
 7    1  0.2641580E-009  0.6429638E+02  0.7561462E-02  0.1380638E+00
          1   -1    0    0  501    0  0.00000000000E+00  0.00000000000E+00  0.96308572984E+02  0.96308572984E+02  0.00000000000E+00 0. -1.
         -1   -1    0    0    0  501 -0.00000000000E+00 -0.00000000000E+00 -0.15149824087E+03  0.15149824087E+03  0.00000000000E+00 0.  1.
         25    2    1    2    0    0 -0.25254984510E+02 -0.38075587106E+02  0.29884152126E+01  0.13320782874E+03  0.12509128841E+03 0.  0.
          5    1    3    3  502    0  0.79693679938E+01 -0.46674183761E+00 -0.55386337969E+02  0.56114592646E+02  0.41800000000E+01 0.  1.
         -5    1    3    3    0  502 -0.33224352504E+02 -0.37608845268E+02  0.58374753182E+02  0.77093236089E+02  0.41800000000E+01 0.  1.
        -11    1    1    2    0    0  0.13549162139E+02 -0.11816723902E+02  0.16250212637E+02  0.24233946628E+02  0.00000000000E+00 0. -1.
         11    1    1    2    0    0  0.11705822371E+02  0.49892311008E+02 -0.74428295731E+02  0.90365038485E+02  0.00000000000E+00 0.  1.
</event>
<event>
 7    1  0.2641580E-009  0.2538333E+03  0.7561462E-02  0.1110906E+00
         -2   -1    0    0    0  501 -0.00000000000E+00  0.00000000000E+00  0.35259346427E+02  0.35259346427E+02  0.00000000000E+00 0.  1.
          2   -1    0    0  501    0  0.00000000000E+00 -0.00000000000E+00 -0.19563506400E+04  0.19563506400E+04  0.00000000000E+00 0. -1.
         25    2    1    2    0    0  0.44968652837E+02 -0.23415135638E+03 -0.91459071768E+03  0.95340042370E+03  0.12508856710E+03 0.  0.
          5    1    3    3  502    0  0.37125293491E+02 -0.24041019388E+03 -0.75051224121E+03  0.78896225850E+03  0.41800000000E+01 0.  1.
         -5    1    3    3    0  502  0.78433593462E+01  0.62588375080E+01 -0.16407847647E+03  0.16443816520E+03  0.41800000000E+01 0.  1.
        -11    1    1    2    0    0  0.24647789337E+02  0.91602002830E+02 -0.33049995485E+03  0.34384394803E+03  0.00000000000E+00 0.  1.
         11    1    1    2    0    0 -0.69616442174E+02  0.14254935355E+03 -0.67600062106E+03  0.69436561471E+03  0.00000000000E+00 0. -1.
</event>
<event>
 7    1  0.2641580E-009  0.9810994E+02  0.7561462E-02  0.1284321E+00
         -1   -1    0    0    0  501 -0.00000000000E+00  0.00000000000E+00  0.32669441981E+03  0.32669441981E+03  0.00000000000E+00 0. -1.
          1   -1    0    0  501    0  0.00000000000E+00 -0.00000000000E+00 -0.41079089700E+02  0.41079089700E+02  0.00000000000E+00 0.  1.
         25    2    1    2    0    0 -0.12264581781E+02  0.86140026162E+01  0.10922945335E+03  0.16674521657E+03  0.12509305641E+03 0.  0.
          5    1    3    3  502    0 -0.39093041394E+02  0.41950430126E+02  0.10958203172E+03  0.12374893353E+03  0.41800000000E+01 0.  1.
         -5    1    3    3    0  502  0.26828459613E+02 -0.33336427510E+02 -0.35257836682E+00  0.42996283047E+02  0.41800000000E+01 0.  1.
        -11    1    1    2    0    0  0.26359258680E+02  0.38440992235E+02  0.73763820505E+02  0.87256069232E+02  0.00000000000E+00 0.  1.
         11    1    1    2    0    0 -0.14094676899E+02 -0.47054994852E+02  0.10262205626E+03  0.11377222371E+03  0.00000000000E+00 0. -1.
</event>
<event>
 7    1  0.2641580E-009  0.1581266E+03  0.7561462E-02  0.1190828E+00
          2   -1    0    0  501    0  0.00000000000E+00  0.00000000000E+00  0.50045995218E+03  0.50045995218E+03  0.00000000000E+00 0. -1.
         -2   -1    0    0    0  501 -0.00000000000E+00 -0.00000000000E+00 -0.80788640083E+02  0.80788640083E+02  0.00000000000E+00 0.  1.
         25    2    1    2    0    0 -0.53230278308E+02  0.12163630748E+03  0.37435663849E+03  0.41643717157E+03  0.12509265071E+03 0.  0.
          5    1    3    3  502    0 -0.45122348448E+02  0.13468718135E+03  0.22422636589E+03  0.26546487283E+03  0.41800000000E+01 0.  1.
         -5    1    3    3    0  502 -0.81079298597E+01 -0.13050873872E+02  0.15013027260E+03  0.15097229874E+03  0.41800000000E+01 0.  1.
        -11    1    1    2    0    0  0.88108751440E+00 -0.10247463257E+03  0.33616857142E+02  0.10785137793E+03  0.00000000000E+00 0. -1.
         11    1    1    2    0    0  0.52349190794E+02 -0.19161674905E+02  0.11697816471E+02  0.56960042767E+02  0.00000000000E+00 0.  1.
</event>
<event>
 7    1  0.2641580E-009  0.1051494E+03  0.7561462E-02  0.1269826E+00
         -1   -1    0    0    0  501 -0.00000000000E+00  0.00000000000E+00  0.12798753449E+03  0.12798753449E+03  0.00000000000E+00 0.  1.
          1   -1    0    0  501    0  0.00000000000E+00 -0.00000000000E+00 -0.12050147232E+03  0.12050147232E+03  0.00000000000E+00 0. -1.
         25    2    1    2    0    0  0.33338690528E+02 -0.48343529152E+02 -0.96505321640E+01  0.13852893402E+03  0.12509423525E+03 0.  0.
          5    1    3    3  502    0  0.52772718485E+02 -0.77717938845E+02  0.15153639742E+02  0.95247798043E+02  0.41800000000E+01 0.  1.
         -5    1    3    3    0  502 -0.19434027957E+02  0.29374409693E+02 -0.24804171906E+02  0.43281135976E+02  0.41800000000E+01 0.  1.
        -11    1    1    2    0    0 -0.46089320760E+02  0.21046010056E+02  0.45855564039E+02  0.68336613764E+02  0.00000000000E+00 0.  1.
         11    1    1    2    0    0  0.12750630232E+02  0.27297519096E+02 -0.28718969713E+02  0.41623459028E+02  0.00000000000E+00 0. -1.
</event>
<event>
 7    1  0.2641580E-009  0.5998354E+02  0.7561462E-02  0.1397901E+00
         -2   -1    0    0    0  501 -0.00000000000E+00  0.00000000000E+00  0.44468074952E+02  0.44468074952E+02  0.00000000000E+00 0.  1.
          2   -1    0    0  501    0  0.00000000000E+00 -0.00000000000E+00 -0.34096292666E+03  0.34096292666E+03  0.00000000000E+00 0. -1.
         25    2    1    2    0    0  0.30814559349E+01  0.24957842277E+02 -0.24938351501E+03  0.28012252793E+03  0.12507639199E+03 0.  0.
          5    1    3    3  502    0  0.13130813786E+02 -0.41266433021E+01  0.10865567268E+02  0.18027212976E+02  0.41800000000E+01 0. -1.
         -5    1    3    3    0  502 -0.10049357851E+02  0.29084485579E+02 -0.26024908228E+03  0.26209531495E+03  0.41800000000E+01 0. -1.
        -11    1    1    2    0    0  0.11647951562E+02  0.22228935380E+02  0.12360873801E+02  0.27974837709E+02  0.00000000000E+00 0.  1.
         11    1    1    2    0    0 -0.14729407496E+02 -0.47186777658E+02 -0.59472210497E+02  0.77333635970E+02  0.00000000000E+00 0. -1.
</event>
<event>
 7    1  0.2641580E-009  0.9735366E+02  0.7561462E-02  0.1285961E+00
          4   -1    0    0  501    0  0.00000000000E+00  0.00000000000E+00  0.38804871541E+03  0.38804871541E+03  0.00000000000E+00 0. -1.
         -4   -1    0    0    0  501 -0.00000000000E+00 -0.00000000000E+00 -0.37053292158E+02  0.37053292158E+02  0.00000000000E+00 0.  1.
         25    2    1    2    0    0  0.37559260408E+01 -0.41220061955E+02  0.14616492599E+03  0.19678085277E+03  0.12508124534E+03 0.  0.
          5    1    3    3  502    0  0.46802319757E+01  0.44081194256E+02  0.35235046104E+02  0.56780605248E+02  0.41800000000E+01 0. -1.
         -5    1    3    3    0  502 -0.92430593493E+00 -0.85301256212E+02  0.11092987989E+03  0.14000024752E+03  0.41800000000E+01 0. -1.
        -11    1    1    2    0    0 -0.25758893719E+02  0.12607704950E+02  0.10303004439E+02  0.30473377401E+02  0.00000000000E+00 0.  1.
         11    1    1    2    0    0  0.22002967678E+02  0.28612357005E+02  0.19452749282E+03  0.19784777740E+03  0.00000000000E+00 0. -1.
</event>
<event>
 7    1  0.2641580E-009  0.1759763E+03  0.7561462E-02  0.1171755E+00
          1   -1    0    0  501    0  0.00000000000E+00  0.00000000000E+00  0.34507603395E+03  0.34507603395E+03  0.00000000000E+00 0. -1.
         -1   -1    0    0    0  501 -0.00000000000E+00 -0.00000000000E+00 -0.10046115042E+03  0.10046115042E+03  0.00000000000E+00 0.  1.
         25    2    1    2    0    0 -0.13648373409E+03 -0.32634176090E+02  0.14412472227E+03  0.23689266339E+03  0.12511354554E+03 0.  0.
          5    1    3    3  502    0 -0.24014361958E+02 -0.65083967106E+02  0.67772814777E+02  0.97073370073E+02  0.41800000000E+01 0.  1.
         -5    1    3    3    0  502 -0.11246937214E+03  0.32449791016E+02  0.76351907496E+02  0.13981929332E+03  0.41800000000E+01 0.  1.
        -11    1    1    2    0    0 -0.15071297046E+00 -0.19189322719E+02  0.50785885050E+02  0.54290505073E+02  0.00000000000E+00 0. -1.
         11    1    1    2    0    0  0.13663444706E+03  0.51823498810E+02  0.49704276210E+02  0.15435401591E+03  0.00000000000E+00 0.  1.
</event>
<event>
 7    1  0.2641580E-009  0.1652169E+03  0.7561462E-02  0.1182930E+00
         -2   -1    0    0    0  501 -0.00000000000E+00  0.00000000000E+00  0.49565164431E+03  0.49565164431E+03  0.00000000000E+00 0. -1.
          2   -1    0    0  501    0  0.00000000000E+00 -0.00000000000E+00 -0.59872213366E+02  0.59872213366E+02  0.00000000000E+00 0.  1.
         25    2    1    2    0    0 -0.94278323214E+02 -0.93542213407E+02  0.25464575733E+03  0.31325769822E+03  0.12508947137E+03 0.  0.
          5    1    3    3  502    0 -0.89687467159E+02 -0.13777336495E+02  0.79532723923E+02  0.12073352203E+03  0.41800000000E+01 0.  1.
         -5    1    3    3    0  502 -0.45908560555E+01 -0.79764876912E+02  0.17511303341E+03  0.19252417619E+03  0.41800000000E+01 0.  1.
        -11    1    1    2    0    0  0.11127634377E+03  0.73724776619E+02  0.13911911134E+03  0.19280014136E+03  0.00000000000E+00 0.  1.
         11    1    1    2    0    0 -0.16998020552E+02  0.19817436788E+02  0.42014562277E+02  0.49466018102E+02  0.00000000000E+00 0. -1.
</event>
<event>
 7    1  0.2641580E-009  0.1439344E+03  0.7561462E-02  0.1208131E+00
         -1   -1    0    0    0  501 -0.00000000000E+00  0.00000000000E+00  0.75780695262E+03  0.75780695262E+03  0.00000000000E+00 0.  1.
          1   -1    0    0  501    0  0.00000000000E+00 -0.00000000000E+00 -0.29602453792E+02  0.29602453792E+02  0.00000000000E+00 0. -1.
         25    2    1    2    0    0  0.78829101345E+02  0.64944022507E+02  0.43302655700E+03  0.46215982938E+03  0.12509178848E+03 0.  0.
          5    1    3    3  502    0  0.10711290384E+03  0.30479858775E+02  0.35629756580E+03  0.37331973395E+03  0.41800000000E+01 0. -1.
         -5    1    3    3    0  502 -0.28283802494E+02  0.34464163731E+02  0.76728991197E+02  0.88840095426E+02  0.41800000000E+01 0. -1.
        -11    1    1    2    0    0  0.13426066363E+02 -0.30226452627E+02  0.11743641594E+03  0.12200495680E+03  0.00000000000E+00 0.  1.
         11    1    1    2    0    0 -0.92255167708E+02 -0.34717569880E+02  0.17774152589E+03  0.20324462023E+03  0.00000000000E+00 0. -1.
</event>
<event>
 7    1  0.2641580E-009  0.9560721E+02  0.7561462E-02  0.1289814E+00
         -2   -1    0    0    0  501 -0.00000000000E+00  0.00000000000E+00  0.70692024033E+02  0.70692024033E+02  0.00000000000E+00 0.  1.
          2   -1    0    0  501    0  0.00000000000E+00 -0.00000000000E+00 -0.15694864450E+03  0.15694864450E+03  0.00000000000E+00 0. -1.
         25    2    1    2    0    0  0.12413880950E+01  0.25863158073E+02 -0.72542120331E+02  0.14690418604E+03  0.12509211272E+03 0.  0.
          5    1    3    3  502    0  0.19218856957E+02  0.70078397718E+02 -0.66538865365E+02  0.98616627875E+02  0.41800000000E+01 0. -1.
         -5    1    3    3    0  502 -0.17977468862E+02 -0.44215239645E+02 -0.60032549664E+01  0.48287558167E+02  0.41800000000E+01 0. -1.
        -11    1    1    2    0    0 -0.28316169448E+02 -0.32025097960E+02  0.10360382599E+02  0.43985791787E+02  0.00000000000E+00 0.  1.
         11    1    1    2    0    0  0.27074781353E+02  0.61619398869E+01 -0.24074882733E+02  0.36750690702E+02  0.00000000000E+00 0. -1.
</event>
<event>
 7    1  0.2641580E-009  0.8175614E+02  0.7561462E-02  0.1324140E+00
         -3   -1    0    0    0  501 -0.00000000000E+00  0.00000000000E+00  0.14167178497E+03  0.14167178497E+03  0.00000000000E+00 0.  1.
          3   -1    0    0  501    0  0.00000000000E+00 -0.00000000000E+00 -0.97508755820E+02  0.97508755820E+02  0.00000000000E+00 0. -1.
         25    2    1    2    0    0 -0.16172029271E+02  0.28211677315E+02  0.35347287852E+02  0.13399247232E+03  0.12508844316E+03 0.  0.
          5    1    3    3  502    0  0.39655477184E+02  0.49461289214E+02 -0.17397175868E+01  0.63556864450E+02  0.41800000000E+01 0. -1.
         -5    1    3    3    0  502 -0.55827506456E+02 -0.21249611900E+02  0.37087005439E+02  0.70435607866E+02  0.41800000000E+01 0. -1.
        -11    1    1    2    0    0  0.17199203683E+02 -0.65375002608E+01  0.52924160162E+02  0.56031404103E+02  0.00000000000E+00 0.  1.
         11    1    1    2    0    0 -0.10271744116E+01 -0.21674177054E+02 -0.44108418860E+02  0.49156664376E+02  0.00000000000E+00 0. -1.
</event>
<event>
 7    1  0.2641580E-009  0.2477956E+03  0.7561462E-02  0.1114706E+00
         -2   -1    0    0    0  501 -0.00000000000E+00  0.00000000000E+00  0.38228946465E+02  0.38228946465E+02  0.00000000000E+00 0.  1.
          2   -1    0    0  501    0  0.00000000000E+00 -0.00000000000E+00 -0.18140378783E+04  0.18140378783E+04  0.00000000000E+00 0. -1.
         25    2    1    2    0    0 -0.14076400301E+03 -0.18977362075E+03 -0.10455982813E+04  0.10792362989E+04  0.12508673517E+03 0.  0.
          5    1    3    3  502    0 -0.12589663601E+03 -0.12278871044E+03 -0.91390890177E+03  0.93068468532E+03  0.41800000000E+01 0. -1.
         -5    1    3    3    0  502 -0.14867366998E+02 -0.66984910313E+02 -0.13168937951E+03  0.14855161354E+03  0.41800000000E+01 0. -1.
        -11    1    1    2    0    0 -0.60049008025E+01  0.42842256989E+02 -0.87694292900E+02  0.97784491740E+02  0.00000000000E+00 0.  1.
         11    1    1    2    0    0  0.14676890381E+03  0.14693136376E+03 -0.64251635767E+03  0.67524603416E+03  0.00000000000E+00 0. -1.
</event>
<event>
 7    1  0.2641580E-009  0.9187240E+02  0.7561462E-02  0.1298380E+00
         -2   -1    0    0    0  501 -0.00000000000E+00  0.00000000000E+00  0.18991448139E+02  0.18991448139E+02  0.00000000000E+00 0.  1.
          2   -1    0    0  501    0  0.00000000000E+00 -0.00000000000E+00 -0.14477904913E+04  0.14477904913E+04  0.00000000000E+00 0. -1.
         25    2    1    2    0    0 -0.79993467265E+02 -0.35934582230E+02 -0.11937612560E+04  0.12034962803E+04  0.12508841405E+03 0.  0.
          5    1    3    3  502    0 -0.65943479925E+02 -0.41131845781E+02 -0.31077729845E+03  0.32037536252E+03  0.41800000000E+01 0. -1.
         -5    1    3    3    0  502 -0.14049987340E+02  0.51972635517E+01 -0.88298395754E+03  0.88312091775E+03  0.41800000000E+01 0. -1.
        -11    1    1    2    0    0  0.67974984254E+02  0.20907022769E+02 -0.23337618944E+03  0.24397161287E+03  0.00000000000E+00 0. -1.
         11    1    1    2    0    0  0.12018483011E+02  0.15027559461E+02 -0.16615977237E+01  0.19314046294E+02  0.00000000000E+00 0.  1.
</event>
<event>
 7    1  0.2641580E-009  0.1192330E+03  0.7561462E-02  0.1244368E+00
          1   -1    0    0  501    0  0.00000000000E+00  0.00000000000E+00  0.14297195340E+03  0.14297195340E+03  0.00000000000E+00 0. -1.
         -1   -1    0    0    0  501 -0.00000000000E+00 -0.00000000000E+00 -0.12223775931E+03  0.12223775931E+03  0.00000000000E+00 0.  1.
         25    2    1    2    0    0 -0.34127192702E+01 -0.52999940368E+02  0.65427674170E+02  0.15082343813E+03  0.12508512545E+03 0.  0.
          5    1    3    3  502    0  0.54718245601E+02 -0.53033563044E+02  0.26715378779E+02  0.80856843087E+02  0.41800000000E+01 0. -1.
         -5    1    3    3    0  502 -0.58130964871E+02  0.33622675346E-01  0.38712295391E+02  0.69966595042E+02  0.41800000000E+01 0. -1.
        -11    1    1    2    0    0 -0.42155556182E+02  0.35301812577E+02 -0.32983648032E+02  0.64118873397E+02  0.00000000000E+00 0. -1.
         11    1    1    2    0    0  0.45568275453E+02  0.17698127791E+02 -0.11709832052E+02  0.50267401183E+02  0.00000000000E+00 0.  1.
</event>
<event>
 7    1  0.2641580E-009  0.1065573E+03  0.7561462E-02  0.1267081E+00
          1   -1    0    0  501    0  0.00000000000E+00  0.00000000000E+00  0.46984551234E+03  0.46984551234E+03  0.00000000000E+00 0. -1.
         -1   -1    0    0    0  501 -0.00000000000E+00 -0.00000000000E+00 -0.28792085227E+02  0.28792085227E+02  0.00000000000E+00 0.  1.
         25    2    1    2    0    0 -0.24622936055E+02  0.34587227252E+02  0.31363628747E+03  0.34031980211E+03  0.12508909473E+03 0.  0.
          5    1    3    3  502    0  0.42691341401E+00  0.79694640790E+02  0.17513089734E+03  0.19245706438E+03  0.41800000000E+01 0.  1.
         -5    1    3    3    0  502 -0.25049849469E+02 -0.45107413538E+02  0.13850539013E+03  0.14786273773E+03  0.41800000000E+01 0.  1.
        -11    1    1    2    0    0  0.21606828613E+02  0.18455310632E+02  0.87116868551E+02  0.91634067461E+02  0.00000000000E+00 0. -1.
         11    1    1    2    0    0  0.30161074423E+01 -0.53042537884E+02  0.40300271088E+02  0.66683727993E+02  0.00000000000E+00 0.  1.
</event>
<event>
 7    1  0.2641580E-009  0.8137779E+02  0.7561462E-02  0.1325186E+00
         -1   -1    0    0    0  501 -0.00000000000E+00  0.00000000000E+00  0.10797308969E+03  0.10797308969E+03  0.00000000000E+00 0.  1.
          1   -1    0    0  501    0  0.00000000000E+00 -0.00000000000E+00 -0.15572395660E+03  0.15572395660E+03  0.00000000000E+00 0. -1.
         25    2    1    2    0    0 -0.66717999264E+02  0.16842116057E+02 -0.44122844546E+02  0.14943171343E+03  0.12509221906E+03 0.  0.
          5    1    3    3  502    0 -0.55420435290E+02  0.24231726431E+02  0.34357814143E+02  0.69688829853E+02  0.41800000000E+01 0.  1.
         -5    1    3    3    0  502 -0.11297563974E+02 -0.73896103743E+01 -0.78480658688E+02  0.79742883578E+02  0.41800000000E+01 0.  1.
        -11    1    1    2    0    0  0.52090148254E+02 -0.36415964571E+02  0.31924946197E+02  0.71124596381E+02  0.00000000000E+00 0.  1.
         11    1    1    2    0    0  0.14627851010E+02  0.19573848514E+02 -0.35552968554E+02  0.43140736477E+02  0.00000000000E+00 0. -1.
</event>
<event>
 7    1  0.2641580E-009  0.3998036E+03  0.7561462E-02  0.1043848E+00
          1   -1    0    0  501    0  0.00000000000E+00  0.00000000000E+00  0.28297875404E+03  0.28297875404E+03  0.00000000000E+00 0. -1.
         -1   -1    0    0    0  501 -0.00000000000E+00 -0.00000000000E+00 -0.68239622211E+03  0.68239622211E+03  0.00000000000E+00 0.  1.
         25    2    1    2    0    0 -0.36672467032E+03 -0.14295933257E+03 -0.24232516034E+02  0.41371419349E+03  0.12509142446E+03 0.  0.
          5    1    3    3  502    0 -0.34813836791E+03 -0.15009597439E+03  0.37016996301E+01  0.37915735483E+03  0.41800000000E+01 0. -1.
         -5    1    3    3    0  502 -0.18586302413E+02  0.71366418238E+01 -0.27934215664E+02  0.34556838667E+02  0.41800000000E+01 0. -1.
        -11    1    1    2    0    0  0.44359492343E+02  0.45037308642E+02 -0.32431665260E+02  0.71048832800E+02  0.00000000000E+00 0.  1.
         11    1    1    2    0    0  0.32236517798E+03  0.97922023925E+02 -0.34275328678E+03  0.48061194986E+03  0.00000000000E+00 0. -1.
</event>
<event>
 7    1  0.2641580E-009  0.2485478E+03  0.7561462E-02  0.1114226E+00
          1   -1    0    0  501    0  0.00000000000E+00  0.00000000000E+00  0.61802928380E+03  0.61802928380E+03  0.00000000000E+00 0. -1.
         -1   -1    0    0    0  501 -0.00000000000E+00 -0.00000000000E+00 -0.11486353102E+03  0.11486353102E+03  0.00000000000E+00 0.  1.
         25    2    1    2    0    0 -0.78890359819E+02  0.21899293805E+03  0.17096767177E+03  0.31473641876E+03  0.12508985855E+03 0.  0.
          5    1    3    3  502    0  0.20766281493E+02  0.12366710644E+03  0.93772476866E+02  0.15663825037E+03  0.41800000000E+01 0.  1.
         -5    1    3    3    0  502 -0.99656641312E+02  0.95325831615E+02  0.77195194899E+02  0.15809816838E+03  0.41800000000E+01 0.  1.
        -11    1    1    2    0    0  0.58409961888E+02 -0.18467563929E+03  0.19338590737E+03  0.27370590889E+03  0.00000000000E+00 0.  1.
         11    1    1    2    0    0  0.20480397932E+02 -0.34317298767E+02  0.13881217364E+03  0.14445048717E+03  0.00000000000E+00 0. -1.
</event>
<event>
 7    1  0.2641580E-009  0.1007527E+03  0.7561462E-02  0.1278721E+00
         -2   -1    0    0    0  501 -0.00000000000E+00  0.00000000000E+00  0.11654453909E+03  0.11654453909E+03  0.00000000000E+00 0.  1.
          2   -1    0    0  501    0  0.00000000000E+00 -0.00000000000E+00 -0.14810080896E+03  0.14810080896E+03  0.00000000000E+00 0. -1.
         25    2    1    2    0    0 -0.59735836128E+02 -0.39313910644E+02 -0.37230410288E+02  0.14882081439E+03  0.12509027803E+03 0.  0.
          5    1    3    3  502    0 -0.25265641311E+02 -0.54226210686E+02 -0.74572312734E+02  0.95693974642E+02  0.41800000000E+01 0. -1.
         -5    1    3    3    0  502 -0.34470194817E+02  0.14912300043E+02  0.37341902447E+02  0.53126839749E+02  0.41800000000E+01 0. -1.
        -11    1    1    2    0    0  0.41907568174E+02  0.62036327140E+02  0.27359893912E+02  0.79707678113E+02  0.00000000000E+00 0.  1.
         11    1    1    2    0    0  0.17828267954E+02 -0.22722416496E+02 -0.21685753495E+02  0.36116855543E+02  0.00000000000E+00 0. -1.
</event>
<event>
 7    1  0.2641580E-009  0.1109296E+03  0.7561462E-02  0.1258858E+00
         -2   -1    0    0    0  501 -0.00000000000E+00  0.00000000000E+00  0.11198577638E+02  0.11198577638E+02  0.00000000000E+00 0.  1.
          2   -1    0    0  501    0  0.00000000000E+00 -0.00000000000E+00 -0.17002279035E+04  0.17002279035E+04  0.00000000000E+00 0. -1.
         25    2    1    2    0    0 -0.24297426344E+02 -0.63332779744E+02 -0.12536420854E+04  0.12616938276E+04  0.12510567636E+03 0.  0.
          5    1    3    3  502    0 -0.48064226198E+02 -0.79612684751E+02 -0.57999529629E+03  0.58741839053E+03  0.41800000000E+01 0.  1.
         -5    1    3    3    0  502  0.23766799854E+02  0.16279905007E+02 -0.67364678914E+03  0.67427543704E+03  0.41800000000E+01 0.  1.
        -11    1    1    2    0    0 -0.21064782199E+02 -0.82946964141E+00 -0.29199927037E+02  0.36014563831E+02  0.00000000000E+00 0.  1.
         11    1    1    2    0    0  0.45362208542E+02  0.64162249385E+02 -0.40618731341E+03  0.41371808975E+03  0.00000000000E+00 0. -1.
</event>
<event>
 7    1  0.2641580E-009  0.1464372E+03  0.7561462E-02  0.1204921E+00
         -1   -1    0    0    0  501 -0.00000000000E+00  0.00000000000E+00  0.24378332534E+03  0.24378332534E+03  0.00000000000E+00 0.  1.
          1   -1    0    0  501    0  0.00000000000E+00 -0.00000000000E+00 -0.12797137991E+03  0.12797137991E+03  0.00000000000E+00 0. -1.
         25    2    1    2    0    0 -0.13266787204E+02  0.13639769989E+03  0.36791700577E+02  0.18916032616E+03  0.12509060549E+03 0.  0.
          5    1    3    3  502    0 -0.31505764555E+02  0.46448001648E+02  0.71459976933E+02  0.90961699416E+02  0.41800000000E+01 0. -1.
         -5    1    3    3    0  502  0.18238977352E+02  0.89949698239E+02 -0.34668276356E+02  0.98198626740E+02  0.41800000000E+01 0. -1.
        -11    1    1    2    0    0 -0.12397609460E+02 -0.96407583205E+02  0.85177371587E+01  0.97573944606E+02  0.00000000000E+00 0. -1.
         11    1    1    2    0    0  0.25664396663E+02 -0.39990116683E+02  0.70502507692E+02  0.85020434481E+02  0.00000000000E+00 0.  1.
</event>
<event>
 7    1  0.2641580E-009  0.7053215E+02  0.7561462E-02  0.1358293E+00
         -1   -1    0    0    0  501 -0.00000000000E+00  0.00000000000E+00  0.60104219933E+02  0.60104219933E+02  0.00000000000E+00 0.  1.
          1   -1    0    0  501    0  0.00000000000E+00 -0.00000000000E+00 -0.21359146391E+03  0.21359146391E+03  0.00000000000E+00 0. -1.
         25    2    1    2    0    0  0.13655458598E+02  0.15960898733E+01 -0.76596996825E+02  0.14732263713E+03  0.12509132838E+03 0.  0.
          5    1    3    3  502    0 -0.27558448058E+02 -0.30869702578E+02  0.12857181222E+02  0.43533735259E+02  0.41800000000E+01 0. -1.
         -5    1    3    3    0  502  0.41213906656E+02  0.32465792451E+02 -0.89454178048E+02  0.10378890187E+03  0.41800000000E+01 0. -1.
        -11    1    1    2    0    0  0.14798451131E+02  0.79873668365E+01  0.19304303794E+02  0.25601725134E+02  0.00000000000E+00 0.  1.
         11    1    1    2    0    0 -0.28453909729E+02 -0.95834567098E+01 -0.96194550946E+02  0.10077132158E+03  0.00000000000E+00 0. -1.
</event>
<event>
 7    1  0.2641580E-009  0.1886855E+03  0.7561462E-02  0.1159652E+00
         -2   -1    0    0    0  501 -0.00000000000E+00  0.00000000000E+00  0.61277117781E+02  0.61277117781E+02  0.00000000000E+00 0.  1.
          2   -1    0    0  501    0  0.00000000000E+00 -0.00000000000E+00 -0.72517251483E+03  0.72517251483E+03  0.00000000000E+00 0. -1.
         25    2    1    2    0    0  0.10586117297E+03  0.12024392986E+03 -0.19195983935E+03  0.27956577121E+03  0.12507297831E+03 0.  0.
          5    1    3    3  502    0  0.10769251105E+03  0.42973972323E+02 -0.15546871355E+03  0.19399080526E+03  0.41800000000E+01 0. -1.
         -5    1    3    3    0  502 -0.18313380790E+01  0.77269957533E+02 -0.36491125801E+02  0.85574965957E+02  0.41800000000E+01 0. -1.
        -11    1    1    2    0    0 -0.13529056799E+02 -0.83463202370E+02 -0.19073559773E+03  0.20863654945E+03  0.00000000000E+00 0.  1.
         11    1    1    2    0    0 -0.92332116170E+02 -0.36780727486E+02 -0.28119995997E+03  0.29824731194E+03  0.00000000000E+00 0. -1.
</event>
<event>
 7    1  0.2641580E-009  0.1876245E+03  0.7561462E-02  0.1160621E+00
         -2   -1    0    0    0  501 -0.00000000000E+00  0.00000000000E+00  0.15091178943E+03  0.15091178943E+03  0.00000000000E+00 0.  1.
          2   -1    0    0  501    0  0.00000000000E+00 -0.00000000000E+00 -0.26920476934E+03  0.26920476934E+03  0.00000000000E+00 0. -1.
         25    2    1    2    0    0 -0.15974135303E+03 -0.14197179606E+02 -0.50788952721E+01  0.20344400585E+03  0.12507920916E+03 0.  0.
          5    1    3    3  502    0 -0.88472551444E+02  0.43946672287E+02 -0.37620280767E+02  0.10578969841E+03  0.41800000000E+01 0. -1.
         -5    1    3    3    0  502 -0.71268801584E+02 -0.58143851893E+02  0.32541385495E+02  0.97654307442E+02  0.41800000000E+01 0. -1.
        -11    1    1    2    0    0  0.27913352243E+02  0.41171884134E+02 -0.24039383743E+02  0.55246459138E+02  0.00000000000E+00 0.  1.
         11    1    1    2    0    0  0.13182800078E+03 -0.26974704528E+02 -0.89174700890E+02  0.16142609378E+03  0.00000000000E+00 0. -1.
</event>
<event>
 7    1  0.2641580E-009  0.8715447E+02  0.7561462E-02  0.1309893E+00
          1   -1    0    0  501    0  0.00000000000E+00  0.00000000000E+00  0.12308731930E+04  0.12308731930E+04  0.00000000000E+00 0. -1.
         -1   -1    0    0    0  501 -0.00000000000E+00 -0.00000000000E+00 -0.11767509042E+02  0.11767509042E+02  0.00000000000E+00 0.  1.
         25    2    1    2    0    0 -0.26511026308E+02  0.19504575463E+02  0.77515650164E+03  0.78587460795E+03  0.12509210368E+03 0.  0.
          5    1    3    3  502    0 -0.32479114774E+02 -0.13923360073E+02  0.72059931778E+03  0.72147737458E+03  0.41800000000E+01 0. -1.
         -5    1    3    3    0  502  0.59680884654E+01  0.33427935536E+02  0.54557183862E+02  0.64397233365E+02  0.41800000000E+01 0. -1.
        -11    1    1    2    0    0  0.63699224919E+02 -0.21608127136E+02  0.33318028385E+03  0.33990234474E+03  0.00000000000E+00 0. -1.
         11    1    1    2    0    0 -0.37188198611E+02  0.21035516730E+01  0.11076889851E+03  0.11686374939E+03  0.00000000000E+00 0.  1.
</event>
<event>
 7    1  0.2641580E-009  0.2732138E+03  0.7561462E-02  0.1099454E+00
          2   -1    0    0  501    0  0.00000000000E+00  0.00000000000E+00  0.40730590477E+03  0.40730590477E+03  0.00000000000E+00 0. -1.
         -2   -1    0    0    0  501 -0.00000000000E+00 -0.00000000000E+00 -0.21610253974E+03  0.21610253974E+03  0.00000000000E+00 0.  1.
         25    2    1    2    0    0  0.81509548604E+01  0.26320884953E+03  0.14280195176E+02  0.29188524057E+03  0.12509089957E+03 0.  0.
          5    1    3    3  502    0  0.43560186411E+02  0.49726810830E+02 -0.27023957232E+02  0.71540283896E+02  0.41800000000E+01 0. -1.
         -5    1    3    3    0  502 -0.35409231551E+02  0.21348203870E+03  0.41304152408E+02  0.22034495668E+03  0.41800000000E+01 0. -1.
        -11    1    1    2    0    0 -0.12374960354E+02 -0.17370505297E+03  0.16715936898E+03  0.24138939436E+03  0.00000000000E+00 0. -1.
         11    1    1    2    0    0  0.42240054937E+01 -0.89503796561E+02  0.97638008725E+01  0.90133809576E+02  0.00000000000E+00 0.  1.
</event>
<event>
 7    1  0.2641580E-009  0.9511367E+02  0.7561462E-02  0.1290920E+00
         -1   -1    0    0    0  501 -0.00000000000E+00  0.00000000000E+00  0.32714718983E+02  0.32714718983E+02  0.00000000000E+00 0.  1.
          1   -1    0    0  501    0  0.00000000000E+00 -0.00000000000E+00 -0.40851467625E+03  0.40851467625E+03  0.00000000000E+00 0. -1.
         25    2    1    2    0    0  0.30894068695E+02 -0.31959858516E+02 -0.20129778754E+03  0.24113125085E+03  0.12509038664E+03 0.  0.
          5    1    3    3  502    0  0.72360190598E+02  0.96229011277E+01 -0.98547776191E+02  0.12270995885E+03  0.41800000000E+01 0.  1.
         -5    1    3    3    0  502 -0.41466121903E+02 -0.41582759644E+02 -0.10275001135E+03  0.11842129199E+03  0.41800000000E+01 0.  1.
        -11    1    1    2    0    0  0.88610524274E+01  0.70444537942E+01  0.65413385195E+01  0.13074084634E+02  0.00000000000E+00 0.  1.
         11    1    1    2    0    0 -0.39755121123E+02  0.24915404722E+02 -0.18104350825E+03  0.18702405975E+03  0.00000000000E+00 0. -1.
</event>
<event>
 6    1  0.2641580E-009  0.1542914E+03  0.7561462E-02  0.1195297E+00
          2   -1    0    0  501    0  0.00000000000E+00  0.00000000000E+00  0.79998187744E+03  0.79998187744E+03  0.00000000000E+00 0. -1.
         -2   -1    0    0    0  501 -0.00000000000E+00 -0.00000000000E+00 -0.35342859005E+02  0.35342859005E+02  0.00000000000E+00 0.  1.
          5    1    1    2  502    0  0.44948088109E+02 -0.36091983613E+02  0.57085765141E+02  0.81235576489E+02  0.41800000000E+01 0. -1.
         -5    1    1    2    0  502  0.80329803402E+02  0.64518200414E+02  0.31855656545E+03  0.33483015588E+03  0.41800000000E+01 0. -1.
        -11    1    1    2    0    0  0.59263389175E+01 -0.14578700666E+02  0.11844074164E+02  0.19696245807E+02  0.00000000000E+00 0.  1.
         11    1    1    2    0    0 -0.13120423043E+03 -0.13847516135E+02  0.37715261368E+03  0.39956275826E+03  0.00000000000E+00 0. -1.
</event>
<event>
 7    1  0.2641580E-009  0.9403382E+02  0.7561462E-02  0.1293367E+00
          2   -1    0    0  501    0  0.00000000000E+00  0.00000000000E+00  0.11232000567E+04  0.11232000567E+04  0.00000000000E+00 0. -1.
         -2   -1    0    0    0  501 -0.00000000000E+00 -0.00000000000E+00 -0.14829420670E+02  0.14829420670E+02  0.00000000000E+00 0.  1.
         25    2    1    2    0    0  0.55425444828E+01 -0.69713391531E+02  0.59331569213E+03  0.61037983196E+03  0.12509736996E+03 0.  0.
          5    1    3    3  502    0 -0.16962028536E+02 -0.36971695898E+02  0.45758215662E+02  0.61366956990E+02  0.41800000000E+01 0. -1.
         -5    1    3    3    0  502  0.22504573019E+02 -0.32741695633E+02  0.54755747647E+03  0.54901287497E+03  0.41800000000E+01 0. -1.
        -11    1    1    2    0    0  0.20115933629E+02  0.77773214557E+02  0.45223804365E+03  0.45931750654E+03  0.00000000000E+00 0. -1.
         11    1    1    2    0    0 -0.25658478112E+02 -0.80598230251E+01  0.62816900214E+02  0.68332138842E+02  0.00000000000E+00 0.  1.
</event>
<event>
 7    1  0.2641580E-009  0.1022646E+03  0.7561462E-02  0.1275605E+00
         -2   -1    0    0    0  501 -0.00000000000E+00  0.00000000000E+00  0.22347427533E+03  0.22347427533E+03  0.00000000000E+00 0. -1.
          2   -1    0    0  501    0  0.00000000000E+00 -0.00000000000E+00 -0.87033238042E+02  0.87033238042E+02  0.00000000000E+00 0.  1.
         25    2    1    2    0    0 -0.30371422920E+02  0.70114931295E+02  0.12159102987E+03  0.19044288436E+03  0.12508231984E+03 0.  0.
          5    1    3    3  502    0  0.19856470123E+02  0.47653126703E+02  0.12484968376E+03  0.13516662245E+03  0.41800000000E+01 0. -1.
         -5    1    3    3    0  502 -0.50227893043E+02  0.22461804592E+02 -0.32586538903E+01  0.55276261906E+02  0.41800000000E+01 0. -1.
        -11    1    1    2    0    0  0.40743685929E+02 -0.75556973097E+02 -0.15771683255E+02  0.87279150543E+02  0.00000000000E+00 0.  1.
         11    1    1    2    0    0 -0.10372263009E+02  0.54420418025E+01  0.30621690677E+02  0.32785478475E+02  0.00000000000E+00 0. -1.
</event>
<event>
 7    1  0.2641580E-009  0.1085685E+03  0.7561462E-02  0.1263244E+00
          2   -1    0    0  501    0  0.00000000000E+00  0.00000000000E+00  0.97769750685E+03  0.97769750685E+03  0.00000000000E+00 0. -1.
         -2   -1    0    0    0  501 -0.00000000000E+00 -0.00000000000E+00 -0.19592657301E+02  0.19592657301E+02  0.00000000000E+00 0.  1.
         25    2    1    2    0    0 -0.33115726531E+02  0.15831909636E+02  0.81460017771E+03  0.82496522016E+03  0.12508742641E+03 0.  0.
          5    1    3    3  502    0 -0.29408905582E+02  0.68262963913E+02  0.38410056061E+03  0.39124855147E+03  0.41800000000E+01 0.  1.
         -5    1    3    3    0  502 -0.37068209489E+01 -0.52431054277E+02  0.43049961710E+03  0.43371666869E+03  0.41800000000E+01 0.  1.
        -11    1    1    2    0    0 -0.12260983731E+01 -0.44932916471E+02  0.43021158815E+02  0.62219694676E+02  0.00000000000E+00 0.  1.
         11    1    1    2    0    0  0.34341824904E+02  0.29101006835E+02  0.10048351302E+03  0.11010524931E+03  0.00000000000E+00 0. -1.
</event>
<event>
 7    1  0.2641580E-009  0.1990444E+03  0.7561462E-02  0.1150548E+00
          2   -1    0    0  501    0  0.00000000000E+00  0.00000000000E+00  0.35978729457E+03  0.35978729457E+03  0.00000000000E+00 0. -1.
         -2   -1    0    0    0  501 -0.00000000000E+00 -0.00000000000E+00 -0.12200606213E+03  0.12200606213E+03  0.00000000000E+00 0.  1.
         25    2    1    2    0    0  0.16874231976E+03  0.22689115714E+00  0.19670470354E+03  0.28777477676E+03  0.12509020660E+03 0.  0.
          5    1    3    3  502    0  0.66518987948E+02 -0.61366522448E+02  0.87428301965E+02  0.12590395633E+03  0.41800000000E+01 0.  1.
         -5    1    3    3    0  502  0.10222333181E+03  0.61593413605E+02  0.10927640158E+03  0.16187082043E+03  0.41800000000E+01 0.  1.
        -11    1    1    2    0    0 -0.75212065643E+02 -0.41429813048E+02  0.64550347928E+01  0.86110113817E+02  0.00000000000E+00 0.  1.
         11    1    1    2    0    0 -0.93530254116E+02  0.41202921891E+02  0.34621494105E+02  0.10790846612E+03  0.00000000000E+00 0. -1.
</event>
<event>
 7    1  0.2641580E-009  0.1213108E+03  0.7561462E-02  0.1240950E+00
          2   -1    0    0  501    0  0.00000000000E+00  0.00000000000E+00  0.27031560093E+03  0.27031560093E+03  0.00000000000E+00 0. -1.
         -2   -1    0    0    0  501 -0.00000000000E+00 -0.00000000000E+00 -0.56748927330E+02  0.56748927330E+02  0.00000000000E+00 0.  1.
         25    2    1    2    0    0  0.24464947900E+02  0.50911435012E+02  0.15072418734E+03  0.20385472865E+03  0.12509381221E+03 0.  0.
          5    1    3    3  502    0 -0.24651775310E+02  0.77099582995E+02  0.96664194585E+02  0.12614870050E+03  0.41800000000E+01 0. -1.
         -5    1    3    3    0  502  0.49116723210E+02 -0.26188147983E+02  0.54059992759E+02  0.77706028150E+02  0.41800000000E+01 0. -1.
        -11    1    1    2    0    0  0.27863638496E+02 -0.45216832188E+02  0.27517957872E+02  0.59817909265E+02  0.00000000000E+00 0.  1.
         11    1    1    2    0    0 -0.52328586396E+02 -0.56946028239E+01  0.35324528384E+02  0.63391890342E+02  0.00000000000E+00 0. -1.
</event>
<event>
 7    1  0.2641580E-009  0.1466372E+03  0.7561462E-02  0.1204667E+00
         -2   -1    0    0    0  501 -0.00000000000E+00  0.00000000000E+00  0.38452230585E+02  0.38452230585E+02  0.00000000000E+00 0.  1.
          2   -1    0    0  501    0  0.00000000000E+00 -0.00000000000E+00 -0.72290145610E+03  0.72290145610E+03  0.00000000000E+00 0. -1.
         25    2    1    2    0    0 -0.12296938652E+02 -0.11153486151E+03 -0.49728279227E+03  0.52490785717E+03  0.12508734146E+03 0.  0.
          5    1    3    3  502    0  0.40748559358E+02 -0.89800199373E+02 -0.21143117352E+03  0.23333481187E+03  0.41800000000E+01 0. -1.
         -5    1    3    3    0  502 -0.53045498010E+02 -0.21734662136E+02 -0.28585161875E+03  0.29157304529E+03  0.41800000000E+01 0. -1.
        -11    1    1    2    0    0 -0.85961356496E+01 -0.10337656062E+02 -0.17173830077E+01  0.13553969358E+02  0.00000000000E+00 0.  1.
         11    1    1    2    0    0  0.20893074301E+02  0.12187251757E+03 -0.18544905024E+03  0.22289186016E+03  0.00000000000E+00 0. -1.
</event>
<event>
 7    1  0.2641580E-009  0.8464942E+02  0.7561462E-02  0.1316352E+00
          1   -1    0    0  501    0  0.00000000000E+00  0.00000000000E+00  0.57832268953E+03  0.57832268953E+03  0.00000000000E+00 0. -1.
         -1   -1    0    0    0  501 -0.00000000000E+00 -0.00000000000E+00 -0.33301813377E+02  0.33301813377E+02  0.00000000000E+00 0.  1.
         25    2    1    2    0    0  0.28210256971E+02 -0.26863481609E+01  0.12319434509E+03  0.17784639289E+03  0.12509779268E+03 0.  0.
          5    1    3    3  502    0 -0.27732123991E+01  0.25891993400E+02 -0.17010160380E+02  0.31383179976E+02  0.41800000000E+01 0. -1.
         -5    1    3    3    0  502  0.30983469370E+02 -0.28578341561E+02  0.14020450547E+03  0.14646321291E+03  0.41800000000E+01 0. -1.
        -11    1    1    2    0    0 -0.36222769141E+02 -0.41831257673E+02  0.25444756167E+03  0.26039490156E+03  0.00000000000E+00 0. -1.
         11    1    1    2    0    0  0.80125121702E+01  0.44517605834E+02  0.16737896939E+03  0.17338320845E+03  0.00000000000E+00 0.  1.
</event>
<event>
 7    1  0.2641580E-009  0.1109345E+03  0.7561462E-02  0.1258849E+00
         -2   -1    0    0    0  501 -0.00000000000E+00  0.00000000000E+00  0.45781474589E+02  0.45781474589E+02  0.00000000000E+00 0.  1.
          2   -1    0    0  501    0  0.00000000000E+00 -0.00000000000E+00 -0.30332506699E+03  0.30332506699E+03  0.00000000000E+00 0. -1.
         25    2    1    2    0    0 -0.20921445819E+02  0.39799982219E+02 -0.16212523876E+03  0.20965050469E+03  0.12508795144E+03 0.  0.
          5    1    3    3  502    0  0.33983899454E+02  0.60457048864E+02 -0.59997089977E+02  0.91799146974E+02  0.41800000000E+01 0.  1.
         -5    1    3    3    0  502 -0.54905345273E+02 -0.20657066644E+02 -0.10212814879E+03  0.11785135772E+03  0.41800000000E+01 0.  1.
        -11    1    1    2    0    0 -0.29746525025E+02 -0.29459345837E+02 -0.16278487043E+02  0.44918792823E+02  0.00000000000E+00 0.  1.
         11    1    1    2    0    0  0.50667970844E+02 -0.10340636382E+02 -0.79139866595E+02  0.94537244062E+02  0.00000000000E+00 0. -1.
</event>
<event>
 7    1  0.2641580E-009  0.1115609E+03  0.7561462E-02  0.1257706E+00
          1   -1    0    0  501    0  0.00000000000E+00  0.00000000000E+00  0.45607774624E+03  0.45607774624E+03  0.00000000000E+00 0. -1.
         -1   -1    0    0    0  501 -0.00000000000E+00 -0.00000000000E+00 -0.30915425132E+02  0.30915425132E+02  0.00000000000E+00 0.  1.
         25    2    1    2    0    0  0.47947817771E+02  0.37128112244E+02  0.25714274610E+03  0.29231420426E+03  0.12509081579E+03 0.  0.
          5    1    3    3  502    0  0.73237599080E+02 -0.89821256635E+01  0.86859481510E+02  0.11404589615E+03  0.41800000000E+01 0.  1.
         -5    1    3    3    0  502 -0.25289781308E+02  0.46110237908E+02  0.17028326459E+03  0.17826830811E+03  0.41800000000E+01 0.  1.
        -11    1    1    2    0    0 -0.37379894616E+02 -0.60326716242E+02  0.10536433563E+03  0.12703626426E+03  0.00000000000E+00 0.  1.
         11    1    1    2    0    0 -0.10567923155E+02  0.23198603998E+02  0.62655239373E+02  0.67642702845E+02  0.00000000000E+00 0. -1.
</event>
<event>
 7    1  0.2641580E-009  0.1060918E+03  0.7561462E-02  0.1267983E+00
          3   -1    0    0  501    0  0.00000000000E+00  0.00000000000E+00  0.22326754142E+03  0.22326754142E+03  0.00000000000E+00 0. -1.
         -3   -1    0    0    0  501 -0.00000000000E+00 -0.00000000000E+00 -0.11542659764E+03  0.11542659764E+03  0.00000000000E+00 0.  1.
         25    2    1    2    0    0  0.71056847840E+02 -0.53015557018E+02 -0.23945736183E+02  0.15517989241E+03  0.12509067038E+03 0.  0.
          5    1    3    3  502    0  0.64940417980E+02  0.98217723472E+00  0.35824307001E+02  0.74290483453E+02  0.41800000000E+01 0.  1.
         -5    1    3    3    0  502  0.61164298598E+01 -0.53997734253E+02 -0.59770043184E+02  0.80889408954E+02  0.41800000000E+01 0.  1.
        -11    1    1    2    0    0 -0.45691470033E+02  0.48857948058E+02  0.21488562586E+02  0.70260713377E+02  0.00000000000E+00 0.  1.
         11    1    1    2    0    0 -0.25365377807E+02  0.41576089599E+01  0.11029811737E+03  0.11325353328E+03  0.00000000000E+00 0. -1.
</event>
<event>
 7    1  0.2641580E-009  0.1504554E+03  0.7561462E-02  0.1199915E+00
          2   -1    0    0  501    0  0.00000000000E+00  0.00000000000E+00  0.16070364912E+04  0.16070364912E+04  0.00000000000E+00 0. -1.
         -2   -1    0    0    0  501 -0.00000000000E+00 -0.00000000000E+00 -0.23545975789E+02  0.23545975789E+02  0.00000000000E+00 0.  1.
         25    2    1    2    0    0  0.13676772447E+03 -0.95055932760E+01  0.12147053091E+04  0.12288010516E+04  0.12508904650E+03 0.  0.
          5    1    3    3  502    0  0.13258671218E+03 -0.21719512438E+02  0.64133502992E+03  0.65527022401E+03  0.41800000000E+01 0. -1.
         -5    1    3    3    0  502  0.41810122863E+01  0.12213919162E+02  0.57337027922E+03  0.57353082757E+03  0.41800000000E+01 0. -1.
        -11    1    1    2    0    0 -0.39722200550E+02 -0.28300500240E+02  0.69609402570E+02  0.84995531980E+02  0.00000000000E+00 0. -1.
         11    1    1    2    0    0 -0.97045523917E+02  0.37806093516E+02  0.29917580370E+03  0.31678588342E+03  0.00000000000E+00 0.  1.
</event>
<event>
 7    1  0.2641580E-009  0.1394572E+03  0.7561462E-02  0.1214061E+00
          2   -1    0    0  501    0  0.00000000000E+00  0.00000000000E+00  0.12854855201E+03  0.12854855201E+03  0.00000000000E+00 0.  1.
         -2   -1    0    0    0  501 -0.00000000000E+00 -0.00000000000E+00 -0.15975537016E+03  0.15975537016E+03  0.00000000000E+00 0. -1.
         25    2    1    2    0    0 -0.47894642150E+02  0.76069867863E+02  0.10787254581E+02  0.15441627018E+03  0.12508996000E+03 0.  0.
          5    1    3    3  502    0  0.41446342954E+02  0.99998886358E+01  0.34379771998E+01  0.42977775701E+02  0.41800000000E+01 0. -1.
         -5    1    3    3    0  502 -0.89340985103E+02  0.66069979228E+02  0.73492773813E+01  0.11143849448E+03  0.41800000000E+01 0. -1.
        -11    1    1    2    0    0  0.57385403481E+02 -0.90765505745E+02 -0.44452784864E+02  0.11622182088E+03  0.00000000000E+00 0. -1.
         11    1    1    2    0    0 -0.94907613318E+01  0.14695637882E+02  0.24587121307E+01  0.17665831109E+02  0.00000000000E+00 0.  1.
</event>
<event>
 7    1  0.2641580E-009  0.1058727E+03  0.7561462E-02  0.1268410E+00
         -2   -1    0    0    0  501 -0.00000000000E+00  0.00000000000E+00  0.29746885457E+03  0.29746885457E+03  0.00000000000E+00 0.  1.
          2   -1    0    0  501    0  0.00000000000E+00 -0.00000000000E+00 -0.71378478093E+02  0.71378478093E+02  0.00000000000E+00 0. -1.
         25    2    1    2    0    0 -0.36939153903E+02 -0.93327128450E+02  0.12833816395E+03  0.20541062615E+03  0.12509351309E+03 0.  0.
          5    1    3    3  502    0 -0.53075281009E+00 -0.21644368377E+02 -0.24317670583E+02  0.32826542364E+02  0.41800000000E+01 0. -1.
         -5    1    3    3    0  502 -0.36408401093E+02 -0.71682760072E+02  0.15265583453E+03  0.17258408379E+03  0.41800000000E+01 0. -1.
        -11    1    1    2    0    0  0.12012589483E+02  0.80047757751E+02  0.10659204823E+03  0.13384248419E+03  0.00000000000E+00 0.  1.
         11    1    1    2    0    0  0.24926564419E+02  0.13279370698E+02 -0.88398356968E+01  0.29594222325E+02  0.00000000000E+00 0. -1.
</event>
<event>
 7    1  0.2641580E-009  0.1905892E+03  0.7561462E-02  0.1157931E+00
         -1   -1    0    0    0  501 -0.00000000000E+00  0.00000000000E+00  0.30419435954E+03  0.30419435954E+03  0.00000000000E+00 0.  1.
          1   -1    0    0  501    0  0.00000000000E+00 -0.00000000000E+00 -0.17233118009E+03  0.17233118009E+03  0.00000000000E+00 0. -1.
         25    2    1    2    0    0  0.34883791163E+02  0.16483445286E+03  0.18277474791E+03  0.27828344665E+03  0.12509113665E+03 0.  0.
          5    1    3    3  502    0 -0.34461525841E+02  0.11937678845E+03  0.88156857602E+02  0.15240576868E+03  0.41800000000E+01 0. -1.
         -5    1    3    3    0  502  0.69345317005E+02  0.45457664407E+02  0.94617890310E+02  0.12587767797E+03  0.41800000000E+01 0. -1.
        -11    1    1    2    0    0  0.87837571420E+01 -0.53974824891E+02  0.21561638331E+02  0.58782143199E+02  0.00000000000E+00 0.  1.
         11    1    1    2    0    0 -0.43667548305E+02 -0.11085962797E+03 -0.72473206794E+02  0.13945994978E+03  0.00000000000E+00 0. -1.
</event>
<event>
 7    1  0.2641580E-009  0.2013216E+03  0.7561462E-02  0.1148629E+00
         -2   -1    0    0    0  501 -0.00000000000E+00  0.00000000000E+00  0.63505142925E+02  0.63505142925E+02  0.00000000000E+00 0.  1.
          2   -1    0    0  501    0  0.00000000000E+00 -0.00000000000E+00 -0.92985403995E+03  0.92985403995E+03  0.00000000000E+00 0. -1.
         25    2    1    2    0    0 -0.18784912018E+03  0.40319681331E+02 -0.64634772083E+03  0.68580318248E+03  0.12509060806E+03 0.  0.
          5    1    3    3  502    0 -0.35520042545E+02  0.33907529905E+01 -0.22131840891E+02  0.42195514092E+02  0.41800000000E+01 0.  1.
         -5    1    3    3    0  502 -0.15232907763E+03  0.36928928340E+02 -0.62421587993E+03  0.64360766838E+03  0.41800000000E+01 0.  1.
        -11    1    1    2    0    0  0.67050600058E+02  0.26235668075E+02 -0.45663144509E+02  0.85259697478E+02  0.00000000000E+00 0.  1.
         11    1    1    2    0    0  0.12079852012E+03 -0.66555349406E+02 -0.17433803169E+03  0.22229630292E+03  0.00000000000E+00 0. -1.
</event>
<event>
 7    1  0.2641580E-009  0.1099077E+03  0.7561462E-02  0.1260741E+00
          1   -1    0    0  501    0  0.00000000000E+00  0.00000000000E+00  0.68907338061E+03  0.68907338061E+03  0.00000000000E+00 0. -1.
         -1   -1    0    0    0  501 -0.00000000000E+00 -0.00000000000E+00 -0.28110205973E+02  0.28110205973E+02  0.00000000000E+00 0.  1.
         25    2    1    2    0    0  0.39475654825E+02 -0.72455068959E+02  0.42957483243E+03  0.45496150147E+03  0.12508943528E+03 0.  0.
          5    1    3    3  502    0 -0.14121353524E+02 -0.38910935570E+02  0.32316536356E+02  0.52681158438E+02  0.41800000000E+01 0.  1.
         -5    1    3    3    0  502  0.53597008349E+02 -0.33544133389E+02  0.39725829607E+03  0.40228034303E+03  0.41800000000E+01 0.  1.
        -11    1    1    2    0    0  0.11659136914E+02  0.61439938685E+02  0.17234988889E+03  0.18334471833E+03  0.00000000000E+00 0. -1.
         11    1    1    2    0    0 -0.51134791739E+02  0.11015130273E+02  0.59038453323E+02  0.78877366791E+02  0.00000000000E+00 0.  1.
</event>
<event>
 7    1  0.2641580E-009  0.7424315E+02  0.7561462E-02  0.1346231E+00
         -2   -1    0    0    0  501 -0.00000000000E+00  0.00000000000E+00  0.27727876371E+02  0.27727876371E+02  0.00000000000E+00 0.  1.
          2   -1    0    0  501    0  0.00000000000E+00 -0.00000000000E+00 -0.42820677149E+03  0.42820677149E+03  0.00000000000E+00 0. -1.
         25    2    1    2    0    0 -0.99008655285E+01 -0.10396706353E+02 -0.21482176956E+03  0.24900396894E+03  0.12509382569E+03 0.  0.
          5    1    3    3  502    0 -0.17027849303E+02 -0.31596612038E+02 -0.22217329379E+03  0.22509273293E+03  0.41800000000E+01 0.  1.
         -5    1    3    3    0  502  0.71269837747E+01  0.21199905686E+02  0.73515242278E+01  0.23911236005E+02  0.41800000000E+01 0.  1.
        -11    1    1    2    0    0  0.92097181069E+01 -0.39062653081E+02 -0.10380780060E+03  0.11129586353E+03  0.00000000000E+00 0. -1.
         11    1    1    2    0    0  0.69114742156E+00  0.49459359433E+02 -0.81849324960E+02  0.95634815401E+02  0.00000000000E+00 0.  1.
</event>
<event>
 7    1  0.2641580E-009  0.1344251E+03  0.7561462E-02  0.1221034E+00
          2   -1    0    0  501    0  0.00000000000E+00  0.00000000000E+00  0.16233925634E+04  0.16233925634E+04  0.00000000000E+00 0. -1.
         -2   -1    0    0    0  501 -0.00000000000E+00 -0.00000000000E+00 -0.13413794700E+02  0.13413794700E+02  0.00000000000E+00 0.  1.
         25    2    1    2    0    0 -0.62797285097E+02 -0.64637666735E+02  0.11103803984E+04  0.11210329173E+04  0.12509454675E+03 0.  0.
          5    1    3    3  502    0 -0.24811277346E+02 -0.91115460435E+02  0.92870413735E+03  0.93350226232E+03  0.41800000000E+01 0.  1.
         -5    1    3    3    0  502 -0.37986007752E+02  0.26477793700E+02  0.18167626102E+03  0.18753065499E+03  0.41800000000E+01 0.  1.
        -11    1    1    2    0    0 -0.22604087551E+02  0.24929122172E+02  0.14821994487E+03  0.15199196677E+03  0.00000000000E+00 0.  1.
         11    1    1    2    0    0  0.85401372648E+02  0.39708544563E+02  0.35137842549E+03  0.36378147405E+03  0.00000000000E+00 0. -1.
</event>
<event>
 7    1  0.2641580E-009  0.1254168E+03  0.7561462E-02  0.1234419E+00
          1   -1    0    0  501    0  0.00000000000E+00  0.00000000000E+00  0.14069650405E+03  0.14069650405E+03  0.00000000000E+00 0. -1.
         -1   -1    0    0    0  501 -0.00000000000E+00 -0.00000000000E+00 -0.14464989093E+03  0.14464989093E+03  0.00000000000E+00 0.  1.
         25    2    1    2    0    0 -0.74088916653E+02  0.54197438752E+02 -0.17092228785E+02  0.15609674192E+03  0.12509004204E+03 0.  0.
          5    1    3    3  502    0 -0.51634354417E+02 -0.33757287700E+02 -0.20555677657E+02  0.65158800732E+02  0.41800000000E+01 0.  1.
         -5    1    3    3    0  502 -0.22454562236E+02  0.87954726451E+02  0.34634488721E+01  0.90937941193E+02  0.41800000000E+01 0.  1.
        -11    1    1    2    0    0  0.16684313350E+01 -0.16314820309E+02 -0.31945575349E+02  0.35909285836E+02  0.00000000000E+00 0.  1.
         11    1    1    2    0    0  0.72420485318E+02 -0.37882618443E+02  0.45084417252E+02  0.93340367220E+02  0.00000000000E+00 0. -1.
</event>
<event>
 7    1  0.2641580E-009  0.1104628E+03  0.7561462E-02  0.1259715E+00
          1   -1    0    0  501    0  0.00000000000E+00  0.00000000000E+00  0.31868262374E+03  0.31868262374E+03  0.00000000000E+00 0. -1.
         -1   -1    0    0    0  501 -0.00000000000E+00 -0.00000000000E+00 -0.50049218013E+02  0.50049218013E+02  0.00000000000E+00 0.  1.
         25    2    1    2    0    0 -0.10542113839E+02 -0.16439847610E+02  0.63862781314E+02  0.14180073206E+03  0.12509031945E+03 0.  0.
          5    1    3    3  502    0 -0.62780780173E+02 -0.29770673798E+02  0.20724126160E+02  0.72627000369E+02  0.41800000000E+01 0. -1.
         -5    1    3    3    0  502  0.52238666333E+02  0.13330826188E+02  0.43138655154E+02  0.69173731688E+02  0.41800000000E+01 0. -1.
        -11    1    1    2    0    0  0.46398289002E+02 -0.15809956443E+02  0.11539868875E+03  0.12537788206E+03  0.00000000000E+00 0. -1.
         11    1    1    2    0    0 -0.35856175163E+02  0.32249804052E+02  0.89371935661E+02  0.10155322763E+03  0.00000000000E+00 0.  1.
</event>
<event>
 7    1  0.2641580E-009  0.1133967E+03  0.7561462E-02  0.1254406E+00
         -1   -1    0    0    0  501 -0.00000000000E+00  0.00000000000E+00  0.68432224514E+02  0.68432224514E+02  0.00000000000E+00 0.  1.
          1   -1    0    0  501    0  0.00000000000E+00 -0.00000000000E+00 -0.26487392744E+03  0.26487392744E+03  0.00000000000E+00 0. -1.
         25    2    1    2    0    0 -0.52149094837E+02  0.22940418793E+02 -0.39374538535E+02  0.14297945376E+03  0.12508788513E+03 0.  0.
          5    1    3    3  502    0 -0.90721646687E+02  0.31995297643E+02 -0.18679777842E+02  0.98084263514E+02  0.41800000000E+01 0.  1.
         -5    1    3    3    0  502  0.38572551851E+02 -0.90548788505E+01 -0.20694760692E+02  0.44895190248E+02  0.41800000000E+01 0.  1.
        -11    1    1    2    0    0 -0.73550195178E+01 -0.29865294485E+02 -0.11365312942E+02  0.32790280039E+02  0.00000000000E+00 0.  1.
         11    1    1    2    0    0  0.59504114355E+02  0.69248756922E+01 -0.14570185145E+03  0.15753641815E+03  0.00000000000E+00 0. -1.
</event>
<event>
 7    1  0.2641580E-009  0.7494703E+02  0.7561462E-02  0.1344035E+00
          1   -1    0    0  501    0  0.00000000000E+00  0.00000000000E+00  0.38611239093E+03  0.38611239093E+03  0.00000000000E+00 0. -1.
         -1   -1    0    0    0  501 -0.00000000000E+00 -0.00000000000E+00 -0.39811034334E+02  0.39811034334E+02  0.00000000000E+00 0.  1.
         25    2    1    2    0    0  0.50902962995E+02 -0.18927251903E+01  0.23948907089E+03  0.27494764140E+03  0.12508595599E+03 0.  0.
          5    1    3    3  502    0  0.19457293183E+02 -0.53050846193E+01 -0.10370200061E+02  0.23059566998E+02  0.41800000000E+01 0.  1.
         -5    1    3    3    0  502  0.31445669812E+02  0.34123594290E+01  0.24985927095E+03  0.25188807440E+03  0.41800000000E+01 0.  1.
        -11    1    1    2    0    0 -0.67589975006E+02  0.22168923904E+02  0.10188211328E+03  0.12425711616E+03  0.00000000000E+00 0. -1.
         11    1    1    2    0    0  0.16687012011E+02 -0.20276198714E+02  0.49301724281E+01  0.26718667712E+02  0.00000000000E+00 0.  1.
</event>
<event>
 7    1  0.2641580E-009  0.1204858E+03  0.7561462E-02  0.1242298E+00
         -2   -1    0    0    0  501 -0.00000000000E+00  0.00000000000E+00  0.46831113945E+02  0.46831113945E+02  0.00000000000E+00 0.  1.
          2   -1    0    0  501    0  0.00000000000E+00 -0.00000000000E+00 -0.36101116580E+03  0.36101116580E+03  0.00000000000E+00 0. -1.
         25    2    1    2    0    0  0.21273972348E+02 -0.56745751700E+02 -0.15283013972E+03  0.20658631571E+03  0.12509273358E+03 0.  0.
          5    1    3    3  502    0  0.45436249890E+02 -0.76710269524E+02 -0.57558787805E+02  0.10620454184E+03  0.41800000000E+01 0. -1.
         -5    1    3    3    0  502 -0.24162277542E+02  0.19964517824E+02 -0.95271351919E+02  0.10038177387E+03  0.41800000000E+01 0. -1.
        -11    1    1    2    0    0 -0.43094019003E+02 -0.14590874115E+02 -0.66757457279E+02  0.80787042177E+02  0.00000000000E+00 0.  1.
         11    1    1    2    0    0  0.21820046656E+02  0.71336625816E+02 -0.94592454852E+02  0.12046892186E+03  0.00000000000E+00 0. -1.
</event>
<event>
 7    1  0.2641580E-009  0.2787083E+03  0.7561462E-02  0.1096397E+00
         -2   -1    0    0    0  501 -0.00000000000E+00  0.00000000000E+00  0.45121003696E+03  0.45121003696E+03  0.00000000000E+00 0.  1.
          2   -1    0    0  501    0  0.00000000000E+00 -0.00000000000E+00 -0.19566412280E+03  0.19566412280E+03  0.00000000000E+00 0. -1.
         25    2    1    2    0    0 -0.27004554851E+03 -0.73099517560E+01  0.19175913657E+03  0.35411450605E+03  0.12508990075E+03 0.  0.
          5    1    3    3  502    0 -0.16164503181E+03 -0.17932586331E+02  0.40468966405E+02  0.16764815419E+03  0.41800000000E+01 0.  1.
         -5    1    3    3    0  502 -0.10840051670E+03  0.10622634575E+02  0.15129017017E+03  0.18646635186E+03  0.41800000000E+01 0.  1.
        -11    1    1    2    0    0  0.69055798756E+02 -0.39226586764E+02  0.17729809657E+02  0.81374287102E+02  0.00000000000E+00 0.  1.
         11    1    1    2    0    0  0.20098974975E+03  0.46536538520E+02  0.46056967937E+02  0.21138536662E+03  0.00000000000E+00 0. -1.
</event>
<event>
 7    1  0.2641580E-009  0.1424520E+03  0.7561462E-02  0.1210067E+00
          1   -1    0    0  501    0  0.00000000000E+00  0.00000000000E+00  0.52574886791E+03  0.52574886791E+03  0.00000000000E+00 0. -1.
         -1   -1    0    0    0  501 -0.00000000000E+00 -0.00000000000E+00 -0.53416439637E+02  0.53416439637E+02  0.00000000000E+00 0.  1.
         25    2    1    2    0    0  0.10062788020E+03  0.36459070695E+02  0.13139188874E+03  0.21063939792E+03  0.12509953405E+03 0.  0.
          5    1    3    3  502    0  0.88290266208E+02 -0.17534822652E+02  0.29899354554E+02  0.94942534806E+02  0.41800000000E+01 0. -1.
         -5    1    3    3    0  502  0.12337613989E+02  0.53993893347E+02  0.10149253419E+03  0.11569686311E+03  0.41800000000E+01 0. -1.
        -11    1    1    2    0    0 -0.57365985215E+02  0.26232749316E+02  0.13697355129E+03  0.15080042158E+03  0.00000000000E+00 0.  1.
         11    1    1    2    0    0 -0.43261894982E+02 -0.62691820011E+02  0.20396698824E+03  0.21772548804E+03  0.00000000000E+00 0. -1.
</event>
<event>
 7    1  0.2641580E-009  0.1377804E+03  0.7561462E-02  0.1216347E+00
         -2   -1    0    0    0  501 -0.00000000000E+00  0.00000000000E+00  0.20470565891E+02  0.20470565891E+02  0.00000000000E+00 0.  1.
          2   -1    0    0  501    0  0.00000000000E+00 -0.00000000000E+00 -0.14241676330E+04  0.14241676330E+04  0.00000000000E+00 0. -1.
         25    2    1    2    0    0 -0.58233991956E+02  0.77265516228E+02 -0.11265307501E+04  0.11375762388E+04  0.12508801061E+03 0.  0.
          5    1    3    3  502    0 -0.92384909817E+02  0.71229060809E+02 -0.70478841347E+03  0.71438976115E+03  0.41800000000E+01 0.  1.
         -5    1    3    3    0  502  0.34150917861E+02  0.60364554189E+01 -0.42174233664E+03  0.42318647769E+03  0.41800000000E+01 0.  1.
        -11    1    1    2    0    0  0.52658717218E+02 -0.93183240567E+02 -0.26628422881E+03  0.28699015198E+03  0.00000000000E+00 0. -1.
         11    1    1    2    0    0  0.55752747377E+01  0.15917724339E+02 -0.10882088217E+02  0.20071808103E+02  0.00000000000E+00 0.  1.
</event>
<event>
 7    1  0.2641580E-009  0.9771030E+02  0.7561462E-02  0.1285186E+00
          2   -1    0    0  501    0  0.00000000000E+00  0.00000000000E+00  0.53879388415E+03  0.53879388415E+03  0.00000000000E+00 0. -1.
         -2   -1    0    0    0  501 -0.00000000000E+00 -0.00000000000E+00 -0.20152784003E+02  0.20152784003E+02  0.00000000000E+00 0.  1.
         25    2    1    2    0    0 -0.56797566674E+01 -0.29777372626E+02  0.31857514332E+03  0.34359394957E+03  0.12509088170E+03 0.  0.
          5    1    3    3  502    0 -0.51313652215E+02  0.24368699923E+02  0.12288636338E+03  0.13544539543E+03  0.41800000000E+01 0.  1.
         -5    1    3    3    0  502  0.45633895548E+02 -0.54146072549E+02  0.19568877994E+03  0.20814855414E+03  0.41800000000E+01 0.  1.
        -11    1    1    2    0    0  0.28269761612E+02  0.34340838484E+02  0.67762114717E+02  0.81056627122E+02  0.00000000000E+00 0.  1.
         11    1    1    2    0    0 -0.22590004944E+02 -0.45634658575E+01  0.13230384211E+03  0.13429609146E+03  0.00000000000E+00 0. -1.
</event>
<event>
 7    1  0.2641580E-009  0.1599064E+03  0.7561462E-02  0.1188802E+00
          1   -1    0    0  501    0  0.00000000000E+00  0.00000000000E+00  0.25874644612E+03  0.25874644612E+03  0.00000000000E+00 0. -1.
         -1   -1    0    0    0  501 -0.00000000000E+00 -0.00000000000E+00 -0.12814091394E+03  0.12814091394E+03  0.00000000000E+00 0.  1.
         25    2    1    2    0    0  0.80877008381E+02 -0.95858122379E+02  0.90444074742E+02  0.19889337662E+03  0.12509426245E+03 0.  0.
          5    1    3    3  502    0  0.40875711006E+02  0.25823745463E+02  0.31296904610E+02  0.57746499618E+02  0.41800000000E+01 0.  1.
         -5    1    3    3    0  502  0.40001297375E+02 -0.12168186784E+03  0.59147170132E+02  0.14114687700E+03  0.41800000000E+01 0.  1.
        -11    1    1    2    0    0  0.12279202102E+02  0.17606473652E+02  0.60905230598E+02  0.64577192823E+02  0.00000000000E+00 0. -1.
         11    1    1    2    0    0 -0.93156210483E+02  0.78251648727E+02 -0.20743773167E+02  0.12341679061E+03  0.00000000000E+00 0.  1.
</event>
<event>
 6    1  0.2641580E-009  0.2148673E+03  0.7561462E-02  0.1137769E+00
          2   -1    0    0  501    0  0.00000000000E+00  0.00000000000E+00  0.10875111829E+04  0.10875111829E+04  0.00000000000E+00 0. -1.
         -2   -1    0    0    0  501 -0.00000000000E+00 -0.00000000000E+00 -0.75447742174E+02  0.75447742174E+02  0.00000000000E+00 0.  1.
          5    1    1    2  502    0 -0.45684721417E+02  0.47597572090E+01  0.30250973513E+03  0.30600549228E+03  0.41800000000E+01 0. -1.
         -5    1    1    2    0  502 -0.79833241527E+02 -0.16292793977E+03  0.56316978844E+03  0.59168956643E+03  0.41800000000E+01 0. -1.
        -11    1    1    2    0    0  0.43031854717E+02  0.61356447087E+02  0.50271584211E+01  0.75110761155E+02  0.00000000000E+00 0.  1.
         11    1    1    2    0    0  0.82486108228E+02  0.96811735474E+02  0.14135675871E+03  0.19015310518E+03  0.00000000000E+00 0. -1.
</event>
<event>
 7    1  0.2641580E-009  0.1474202E+03  0.7561462E-02  0.1203679E+00
          1   -1    0    0  501    0  0.00000000000E+00  0.00000000000E+00  0.36169272703E+03  0.36169272703E+03  0.00000000000E+00 0. -1.
         -1   -1    0    0    0  501 -0.00000000000E+00 -0.00000000000E+00 -0.80300845865E+02  0.80300845865E+02  0.00000000000E+00 0.  1.
         25    2    1    2    0    0  0.98458502312E+02 -0.28991948141E+02  0.43424098367E+02  0.16753506632E+03  0.12509091251E+03 0.  0.
          5    1    3    3  502    0  0.12762773140E+03 -0.33453744020E+02  0.35200920531E+02  0.13661832973E+03  0.41800000000E+01 0.  1.
         -5    1    3    3    0  502 -0.29169229086E+02  0.44617958793E+01  0.82231778355E+01  0.30916736595E+02  0.41800000000E+01 0.  1.
        -11    1    1    2    0    0 -0.78857151368E+02  0.58092904848E+02  0.14399139067E+03  0.17414579094E+03  0.00000000000E+00 0.  1.
         11    1    1    2    0    0 -0.19601350944E+02 -0.29100956707E+02  0.93976392131E+02  0.10031271564E+03  0.00000000000E+00 0. -1.
</event>
<event>
 7    1  0.2641580E-009  0.2053675E+03  0.7561462E-02  0.1145288E+00
          2   -1    0    0  501    0  0.00000000000E+00  0.00000000000E+00  0.59668954064E+03  0.59668954064E+03  0.00000000000E+00 0. -1.
         -2   -1    0    0    0  501 -0.00000000000E+00 -0.00000000000E+00 -0.80909971766E+02  0.80909971766E+02  0.00000000000E+00 0.  1.
         25    2    1    2    0    0  0.14741794494E+03  0.11392178581E+03  0.20445721545E+03  0.30357937796E+03  0.12508981575E+03 0.  0.
          5    1    3    3  502    0  0.13243536249E+03  0.26494776189E+02  0.11356807447E+03  0.17651141136E+03  0.41800000000E+01 0. -1.
         -5    1    3    3    0  502  0.14982582446E+02  0.87427009621E+02  0.90889140977E+02  0.12706796660E+03  0.41800000000E+01 0. -1.
        -11    1    1    2    0    0 -0.43922425460E+02 -0.26220011321E+02  0.17248355598E+03  0.17990899237E+03  0.00000000000E+00 0. -1.
         11    1    1    2    0    0 -0.10349551948E+03 -0.87701774489E+02  0.13883879745E+03  0.19411114207E+03  0.00000000000E+00 0.  1.
</event>
<event>
 7    1  0.2641580E-009  0.5901131E+02  0.7561462E-02  0.1402028E+00
          2   -1    0    0  501    0  0.00000000000E+00  0.00000000000E+00  0.47037950166E+02  0.47037950166E+02  0.00000000000E+00 0. -1.
         -2   -1    0    0    0  501 -0.00000000000E+00 -0.00000000000E+00 -0.29173705266E+03  0.29173705266E+03  0.00000000000E+00 0.  1.
         25    2    1    2    0    0  0.66741567326E+01  0.97235072463E+01 -0.20340934683E+03  0.23907987038E+03  0.12507889942E+03 0.  0.
          5    1    3    3  502    0  0.24830125109E+02 -0.65880606900E+00 -0.21385333897E+03  0.21533158646E+03  0.41800000000E+01 0. -1.
         -5    1    3    3    0  502 -0.18155968376E+02  0.10382313315E+02  0.10443992136E+02  0.23748283921E+02  0.41800000000E+01 0. -1.
        -11    1    1    2    0    0 -0.33524043700E+02  0.13369162190E+02  0.99223922749E+01  0.37430600745E+02  0.00000000000E+00 0. -1.
         11    1    1    2    0    0  0.26849886968E+02 -0.23092669437E+02 -0.51212147936E+02  0.62264531702E+02  0.00000000000E+00 0.  1.
</event>
<event>
 7    1  0.2649179E-009  0.9776197E+02  0.7561462E-02  0.1285074E+00
         -2   -1    0    0    0  501 -0.00000000000E+00  0.00000000000E+00  0.22518895572E+02  0.22518895572E+02  0.00000000000E+00 0.  1.
          2   -1    0    0  501    0  0.00000000000E+00 -0.00000000000E+00 -0.64537475379E+03  0.64537475379E+03  0.00000000000E+00 0. -1.
         25    2    1    2    0    0  0.11702799266E+02  0.50883935949E+02 -0.37672500606E+03  0.40036947407E+03  0.12509138708E+03 0.  0.
          5    1    3    3  502    0  0.62443912118E+02  0.26849666572E+02 -0.28261612635E+03  0.29070516684E+03  0.41800000000E+01 0. -1.
         -5    1    3    3    0  502 -0.50741112852E+02  0.24034269377E+02 -0.94108879712E+02  0.10966430722E+03  0.41800000000E+01 0. -1.
        -11    1    1    2    0    0  0.16882769357E+02 -0.33903494606E+02 -0.22491871927E+03  0.22808530230E+03  0.00000000000E+00 0. -1.
         11    1    1    2    0    0 -0.28585568623E+02 -0.16980441343E+02 -0.21212132886E+02  0.39438872996E+02  0.00000000000E+00 0.  1.
</event>
<event>
 7    1  0.2641580E-009  0.1106864E+03  0.7561462E-02  0.1259304E+00
          1   -1    0    0  501    0  0.00000000000E+00  0.00000000000E+00  0.13232544966E+03  0.13232544966E+03  0.00000000000E+00 0. -1.
         -1   -1    0    0    0  501 -0.00000000000E+00 -0.00000000000E+00 -0.13528346278E+03  0.13528346278E+03  0.00000000000E+00 0.  1.
         25    2    1    2    0    0 -0.25736604257E+02 -0.51057249269E+02  0.53728766143E+02  0.14765817293E+03  0.12508773010E+03 0.  0.
          5    1    3    3  502    0  0.41415750395E+02 -0.27968408704E+02  0.57657953521E+02  0.76416021033E+02  0.41800000000E+01 0. -1.
         -5    1    3    3    0  502 -0.67152354652E+02 -0.23088840565E+02 -0.39291873777E+01  0.71242151900E+02  0.41800000000E+01 0. -1.
        -11    1    1    2    0    0  0.53220613652E+02  0.16061179499E+02 -0.50350173591E+02  0.75003567816E+02  0.00000000000E+00 0.  1.
         11    1    1    2    0    0 -0.27484009396E+02  0.34996069770E+02 -0.63366056639E+01  0.44947171692E+02  0.00000000000E+00 0. -1.
</event>
<event>
 7    1  0.2641580E-009  0.8383491E+02  0.7561462E-02  0.1318508E+00
          2   -1    0    0  501    0  0.00000000000E+00  0.00000000000E+00  0.41209303711E+03  0.41209303711E+03  0.00000000000E+00 0. -1.
         -2   -1    0    0    0  501 -0.00000000000E+00 -0.00000000000E+00 -0.36016668938E+02  0.36016668938E+02  0.00000000000E+00 0.  1.
         25    2    1    2    0    0 -0.35276499007E+02  0.47331305217E+02  0.22190787248E+03  0.26148046797E+03  0.12507696600E+03 0.  0.
          5    1    3    3  502    0 -0.68971750994E+01  0.26821481711E+02 -0.78063775999E+01  0.29075330381E+02  0.41800000000E+01 0. -1.
         -5    1    3    3    0  502 -0.28379323907E+02  0.20509823506E+02  0.22971425008E+03  0.23240513759E+03  0.41800000000E+01 0. -1.
        -11    1    1    2    0    0 -0.27945379662E+02 -0.52013392934E+01  0.52613731857E+02  0.59801362483E+02  0.00000000000E+00 0.  1.
         11    1    1    2    0    0  0.63221878669E+02 -0.42129965924E+02  0.10155476383E+03  0.12682787559E+03  0.00000000000E+00 0. -1.
</event>
<event>
 7    1  0.2641580E-009  0.1257944E+03  0.7561462E-02  0.1233833E+00
         -2   -1    0    0    0  501 -0.00000000000E+00  0.00000000000E+00  0.38773831881E+02  0.38773831881E+02  0.00000000000E+00 0.  1.
          2   -1    0    0  501    0  0.00000000000E+00 -0.00000000000E+00 -0.55032242259E+03  0.55032242259E+03  0.00000000000E+00 0. -1.
         25    2    1    2    0    0  0.72056751617E+02  0.14912866048E+02 -0.14796752184E+03  0.20724511431E+03  0.12506630586E+03 0.  0.
          5    1    3    3  502    0  0.41127246860E+02  0.70248274454E+02 -0.86288847963E+02  0.11869923412E+03  0.41800000000E+01 0.  1.
         -5    1    3    3    0  502  0.30929504757E+02 -0.55335408406E+02 -0.61678673875E+02  0.88545880192E+02  0.41800000000E+01 0.  1.
        -11    1    1    2    0    0  0.16624674796E+02 -0.47336032619E+01 -0.18113571471E+02  0.25037737185E+02  0.00000000000E+00 0.  1.
         11    1    1    2    0    0 -0.88681426413E+02 -0.10179262786E+02 -0.34546749740E+03  0.35681340297E+03  0.00000000000E+00 0. -1.
</event>
<event>
 7    1  0.2641580E-009  0.8714090E+02  0.7561462E-02  0.1309927E+00
         -1   -1    0    0    0  501 -0.00000000000E+00  0.00000000000E+00  0.15824918670E+02  0.15824918670E+02  0.00000000000E+00 0.  1.
          1   -1    0    0  501    0  0.00000000000E+00 -0.00000000000E+00 -0.12296511745E+04  0.12296511745E+04  0.00000000000E+00 0. -1.
         25    2    1    2    0    0 -0.38305618157E+02 -0.57778522503E+02 -0.90146434544E+03  0.91273802909E+03  0.12508823130E+03 0.  0.
          5    1    3    3  502    0 -0.52243803114E+02 -0.39924966157E+02 -0.19369181824E+03  0.20459083738E+03  0.41800000000E+01 0.  1.
         -5    1    3    3    0  502  0.13938184957E+02 -0.17853556345E+02 -0.70777252720E+03  0.70814719172E+03  0.41800000000E+01 0.  1.
        -11    1    1    2    0    0  0.44612920889E+02  0.23334048945E+02 -0.28179257521E+03  0.28625486196E+03  0.00000000000E+00 0. -1.
         11    1    1    2    0    0 -0.63073027319E+01  0.34444473558E+02 -0.30569335197E+02  0.46483202136E+02  0.00000000000E+00 0.  1.
</event>
<event>
 7    1  0.2641580E-009  0.2429817E+03  0.7561462E-02  0.1117822E+00
         -2   -1    0    0    0  501 -0.00000000000E+00  0.00000000000E+00  0.17757895363E+03  0.17757895363E+03  0.00000000000E+00 0.  1.
          2   -1    0    0  501    0  0.00000000000E+00 -0.00000000000E+00 -0.35702803618E+03  0.35702803618E+03  0.00000000000E+00 0. -1.
         25    2    1    2    0    0  0.21936702162E+03 -0.57827818803E+02 -0.53643933170E+02  0.26455831692E+03  0.12508990639E+03 0.  0.
          5    1    3    3  502    0  0.10138093613E+03  0.36614153922E+02 -0.23120130549E+02  0.11032091060E+03  0.41800000000E+01 0.  1.
         -5    1    3    3    0  502  0.11798608549E+03 -0.94441972726E+02 -0.30523802621E+02  0.15423740632E+03  0.41800000000E+01 0.  1.
        -11    1    1    2    0    0 -0.45528432685E+02  0.10126103094E+02  0.55963144209E+01  0.46975471065E+02  0.00000000000E+00 0.  1.
         11    1    1    2    0    0 -0.17383858894E+03  0.47701715710E+02 -0.13140146379E+03  0.22307320183E+03  0.00000000000E+00 0. -1.
</event>
<event>
 7    1  0.2641580E-009  0.9850682E+02  0.7561462E-02  0.1283468E+00
          2   -1    0    0  501    0  0.00000000000E+00  0.00000000000E+00  0.84689230561E+03  0.84689230561E+03  0.00000000000E+00 0. -1.
         -2   -1    0    0    0  501 -0.00000000000E+00 -0.00000000000E+00 -0.15080995418E+02  0.15080995418E+02  0.00000000000E+00 0.  1.
         25    2    1    2    0    0  0.75175048846E+01 -0.11537946749E+02  0.59683793400E+03  0.60996589885E+03  0.12511291384E+03 0.  0.
          5    1    3    3  502    0 -0.36487722133E+02  0.30035426587E+02  0.11620041692E+03  0.12551290774E+03  0.41800000000E+01 0.  1.
         -5    1    3    3    0  502  0.44005227018E+02 -0.41573373335E+02  0.48063751708E+03  0.48445299111E+03  0.41800000000E+01 0.  1.
        -11    1    1    2    0    0 -0.45407608915E+02  0.20703471130E+02  0.15850724285E+03  0.16617770819E+03  0.00000000000E+00 0. -1.
         11    1    1    2    0    0  0.37890104031E+02 -0.91655243814E+01  0.76466133343E+02  0.85829693982E+02  0.00000000000E+00 0.  1.
</event>
<event>
 7    1  0.2641580E-009  0.1332291E+03  0.7561462E-02  0.1222742E+00
          1   -1    0    0  501    0  0.00000000000E+00  0.00000000000E+00  0.36323905030E+02  0.36323905030E+02  0.00000000000E+00 0. -1.
         -1   -1    0    0    0  501 -0.00000000000E+00 -0.00000000000E+00 -0.58879636730E+03  0.58879636730E+03  0.00000000000E+00 0.  1.
         25    2    1    2    0    0 -0.40437802163E+02  0.83679824104E+02 -0.29947266478E+03  0.33759450513E+03  0.12509454080E+03 0.  0.
          5    1    3    3  502    0 -0.24989895189E+02 -0.15633633608E+02 -0.17519356143E+03  0.17770526646E+03  0.41800000000E+01 0. -1.
         -5    1    3    3    0  502 -0.15447906974E+02  0.99313457712E+02 -0.12427910335E+03  0.15988923867E+03  0.41800000000E+01 0. -1.
        -11    1    1    2    0    0  0.73575470878E+02 -0.64233089087E+02 -0.16988253396E+03  0.19595743158E+03  0.00000000000E+00 0.  1.
         11    1    1    2    0    0 -0.33137668715E+02 -0.19446735016E+02 -0.83117263529E+02  0.91568335615E+02  0.00000000000E+00 0. -1.
</event>
<event>
 7    1  0.2641580E-009  0.9952678E+02  0.7561462E-02  0.1281294E+00
          1   -1    0    0  501    0  0.00000000000E+00  0.00000000000E+00  0.33117593214E+03  0.33117593214E+03  0.00000000000E+00 0. -1.
         -1   -1    0    0    0  501 -0.00000000000E+00 -0.00000000000E+00 -0.41802470539E+02  0.41802470539E+02  0.00000000000E+00 0.  1.
         25    2    1    2    0    0 -0.50636869188E+00  0.19749483001E+02  0.10043038027E+03  0.16162665926E+03  0.12508643896E+03 0.  0.
          5    1    3    3  502    0  0.42065323889E+02  0.51729709409E+02  0.29990943455E+02  0.73228296435E+02  0.41800000000E+01 0. -1.
         -5    1    3    3    0  502 -0.42571692581E+02 -0.31980226408E+02  0.70439436816E+02  0.88398362820E+02  0.41800000000E+01 0. -1.
        -11    1    1    2    0    0 -0.57999085902E+01  0.29055318820E+02  0.20918057300E+02  0.36268658820E+02  0.00000000000E+00 0.  1.
         11    1    1    2    0    0  0.63062772821E+01 -0.48804801821E+02  0.16802502403E+03  0.17508308460E+03  0.00000000000E+00 0. -1.
</event>
<event>
 7    1  0.2641580E-009  0.1192368E+03  0.7561462E-02  0.1244361E+00
         -1   -1    0    0    0  501 -0.00000000000E+00  0.00000000000E+00  0.15161603199E+03  0.15161603199E+03  0.00000000000E+00 0.  1.
          1   -1    0    0  501    0  0.00000000000E+00 -0.00000000000E+00 -0.13034096161E+03  0.13034096161E+03  0.00000000000E+00 0. -1.
         25    2    1    2    0    0 -0.53207734752E+02  0.44541441253E+02  0.67215698723E+02  0.15805254228E+03  0.12509057895E+03 0.  0.
          5    1    3    3  502    0 -0.48791215229E+02 -0.25298116821E+02  0.68518633265E+02  0.87936641412E+02  0.41800000000E+01 0.  1.
         -5    1    3    3    0  502 -0.44165195225E+01  0.69839558074E+02 -0.13029345420E+01  0.70115900872E+02  0.41800000000E+01 0.  1.
        -11    1    1    2    0    0  0.25848469504E+02  0.26563565234E+02 -0.25610014344E+02  0.45051517270E+02  0.00000000000E+00 0. -1.
         11    1    1    2    0    0  0.27359265248E+02 -0.71105006487E+02 -0.20330613991E+02  0.78852934046E+02  0.00000000000E+00 0.  1.
</event>
<event>
 7    1  0.2641580E-009  0.9756922E+02  0.7561462E-02  0.1285492E+00
         -2   -1    0    0    0  501 -0.00000000000E+00  0.00000000000E+00  0.38524894784E+02  0.38524894784E+02  0.00000000000E+00 0. -1.
          2   -1    0    0  501    0  0.00000000000E+00 -0.00000000000E+00 -0.36005046987E+03  0.36005046987E+03  0.00000000000E+00 0.  1.
         25    2    1    2    0    0  0.29461551205E+02  0.77736380866E+01 -0.11753702858E+03  0.17433121141E+03  0.12509198909E+03 0.  0.
          5    1    3    3  502    0 -0.17006715818E+02  0.53530658804E+02 -0.83307707300E+02  0.10056046097E+03  0.41800000000E+01 0.  1.
         -5    1    3    3    0  502  0.46468267023E+02 -0.45757020717E+02 -0.34229321276E+02  0.73770750437E+02  0.41800000000E+01 0.  1.
        -11    1    1    2    0    0 -0.20695668776E+02 -0.37305502063E+02 -0.43884520672E+02  0.61203450432E+02  0.00000000000E+00 0. -1.
         11    1    1    2    0    0 -0.87658824291E+01  0.29531863976E+02 -0.16010402584E+03  0.16304070282E+03  0.00000000000E+00 0.  1.
</event>
<event>
 7    1  0.2641580E-009  0.1358493E+03  0.7561462E-02  0.1219026E+00
         -2   -1    0    0    0  501 -0.00000000000E+00  0.00000000000E+00  0.23478234280E+02  0.23478234280E+02  0.00000000000E+00 0.  1.
          2   -1    0    0  501    0  0.00000000000E+00 -0.00000000000E+00 -0.10659666309E+04  0.10659666309E+04  0.00000000000E+00 0. -1.
         25    2    1    2    0    0 -0.17926298151E+02 -0.92309039338E+02 -0.78977558097E+03  0.80512954984E+03  0.12508322362E+03 0.  0.
          5    1    3    3  502    0 -0.48931447983E+02  0.83457454701E+01 -0.30355489998E+03  0.30761499927E+03  0.41800000000E+01 0. -1.
         -5    1    3    3    0  502  0.31005149832E+02 -0.10065478481E+03 -0.48622068098E+03  0.49751455058E+03  0.41800000000E+01 0. -1.
        -11    1    1    2    0    0 -0.22637243866E+02  0.10059111107E+02 -0.13689709994E+02  0.28302626836E+02  0.00000000000E+00 0.  1.
         11    1    1    2    0    0  0.40563542017E+02  0.82249928230E+02 -0.23902310568E+03  0.25601268852E+03  0.00000000000E+00 0. -1.
</event>
<event>
 7    1  0.2641580E-009  0.3570968E+03  0.7561462E-02  0.1059739E+00
         -1   -1    0    0    0  501 -0.00000000000E+00  0.00000000000E+00  0.48325550985E+03  0.48325550985E+03  0.00000000000E+00 0.  1.
          1   -1    0    0  501    0  0.00000000000E+00 -0.00000000000E+00 -0.27545644116E+03  0.27545644116E+03  0.00000000000E+00 0. -1.
         25    2    1    2    0    0  0.41026936582E+02 -0.34548279356E+03  0.11808209031E+03  0.38811314544E+03  0.12508742317E+03 0.  0.
          5    1    3    3  502    0 -0.38255690880E+02 -0.75479198843E+02  0.50664920243E+02  0.98716836892E+02  0.41800000000E+01 0.  1.
         -5    1    3    3    0  502  0.79282627462E+02 -0.27000359472E+03  0.67417170069E+02  0.28939630854E+03  0.41800000000E+01 0.  1.
        -11    1    1    2    0    0 -0.13391990170E+02  0.15211919702E+03 -0.65259879427E+01  0.15284693003E+03  0.00000000000E+00 0. -1.
         11    1    1    2    0    0 -0.27634946412E+02  0.19336359655E+03  0.96242966326E+02  0.21775187554E+03  0.00000000000E+00 0.  1.
</event>
<event>
 7    1  0.2641580E-009  0.1349700E+03  0.7561462E-02  0.1220262E+00
          2   -1    0    0  501    0  0.00000000000E+00  0.00000000000E+00  0.42717060387E+03  0.42717060387E+03  0.00000000000E+00 0. -1.
         -2   -1    0    0    0  501 -0.00000000000E+00 -0.00000000000E+00 -0.54320040291E+02  0.54320040291E+02  0.00000000000E+00 0.  1.
         25    2    1    2    0    0 -0.20295996466E+02 -0.88503306557E+02  0.11073598740E+03  0.19014564115E+03  0.12509253854E+03 0.  0.
          5    1    3    3  502    0 -0.22672893921E+02 -0.11584588336E+03  0.60408449448E+02  0.13266869252E+03  0.41800000000E+01 0.  1.
         -5    1    3    3    0  502  0.23768974546E+01  0.27342576803E+02  0.50327537949E+02  0.57476948630E+02  0.41800000000E+01 0.  1.
        -11    1    1    2    0    0 -0.12153169934E+02 -0.12821542915E+02  0.64904736095E+02  0.67266011252E+02  0.00000000000E+00 0. -1.
         11    1    1    2    0    0  0.32449166401E+02  0.10132484947E+03  0.19720984008E+03  0.22407899176E+03  0.00000000000E+00 0.  1.
</event>
<event>
 7    1  0.2641580E-009  0.9829575E+02  0.7561462E-02  0.1283921E+00
         -1   -1    0    0    0  501 -0.00000000000E+00  0.00000000000E+00  0.24647091475E+02  0.24647091475E+02  0.00000000000E+00 0.  1.
          1   -1    0    0  501    0  0.00000000000E+00 -0.00000000000E+00 -0.63358565599E+03  0.63358565599E+03  0.00000000000E+00 0. -1.
         25    2    1    2    0    0 -0.47494838141E+02 -0.29918301376E+02 -0.25490498255E+03  0.28943574674E+03  0.12508252057E+03 0.  0.
          5    1    3    3  502    0  0.16761712353E+02 -0.24307052760E+02 -0.20660637106E+03  0.20874734197E+03  0.41800000000E+01 0. -1.
         -5    1    3    3    0  502 -0.64256550494E+02 -0.56112486164E+01 -0.48298611489E+02  0.80688404769E+02  0.41800000000E+01 0. -1.
        -11    1    1    2    0    0  0.71641817280E+02  0.13415432313E+02 -0.22588764632E+03  0.23735575108E+03  0.00000000000E+00 0.  1.
         11    1    1    2    0    0 -0.24146979139E+02  0.16502869063E+02 -0.12814593564E+03  0.13144124965E+03  0.00000000000E+00 0. -1.
</event>
<event>
 7    1  0.2641580E-009  0.9072732E+02  0.7561462E-02  0.1301100E+00
          2   -1    0    0  501    0  0.00000000000E+00  0.00000000000E+00  0.10932727416E+04  0.10932727416E+04  0.00000000000E+00 0. -1.
         -2   -1    0    0    0  501 -0.00000000000E+00 -0.00000000000E+00 -0.11185347088E+02  0.11185347088E+02  0.00000000000E+00 0.  1.
         25    2    1    2    0    0 -0.11547453544E+02  0.47989341089E+01  0.70681846199E+03  0.71791010933E+03  0.12508482489E+03 0.  0.
          5    1    3    3  502    0 -0.38312140413E+02 -0.33070885400E+02  0.58959598425E+03  0.59177901332E+03  0.41800000000E+01 0.  1.
         -5    1    3    3    0  502  0.26764686869E+02  0.37869819509E+02  0.11722247774E+03  0.12613109601E+03  0.41800000000E+01 0.  1.
        -11    1    1    2    0    0  0.45963637298E+02 -0.14769806802E+02  0.29099864782E+03  0.29497629766E+03  0.00000000000E+00 0.  1.
         11    1    1    2    0    0 -0.34416183754E+02  0.99708726930E+01  0.84270284744E+02  0.91571681743E+02  0.00000000000E+00 0. -1.
</event>
<event>
 7    1  0.2641580E-009  0.1248067E+03  0.7561462E-02  0.1235372E+00
          4   -1    0    0  501    0  0.00000000000E+00  0.00000000000E+00  0.52961848528E+03  0.52961848528E+03  0.00000000000E+00 0. -1.
         -4   -1    0    0    0  501 -0.00000000000E+00 -0.00000000000E+00 -0.38232037923E+02  0.38232037923E+02  0.00000000000E+00 0.  1.
         25    2    1    2    0    0 -0.64774371025E+02 -0.45093017707E+02  0.17411838344E+03  0.22847199799E+03  0.12511252145E+03 0.  0.
          5    1    3    3  502    0 -0.83360632177E+02 -0.62289181378E+02  0.17402498462E+03  0.20280804911E+03  0.41800000000E+01 0.  1.
         -5    1    3    3    0  502  0.18586261152E+02  0.17196163671E+02  0.93398826985E-01  0.25663948877E+02  0.41800000000E+01 0.  1.
        -11    1    1    2    0    0  0.87866847728E+02  0.36904616544E+02  0.26598735715E+03  0.28254523145E+03  0.00000000000E+00 0.  1.
         11    1    1    2    0    0 -0.23092476703E+02  0.81884011636E+01  0.51280706761E+02  0.56833293762E+02  0.00000000000E+00 0. -1.
</event>
<event>
 7    1  0.2641580E-009  0.1922054E+03  0.7561462E-02  0.1156487E+00
          2   -1    0    0  501    0  0.00000000000E+00  0.00000000000E+00  0.68946186593E+03  0.68946186593E+03  0.00000000000E+00 0. -1.
         -2   -1    0    0    0  501 -0.00000000000E+00 -0.00000000000E+00 -0.66380575325E+02  0.66380575325E+02  0.00000000000E+00 0.  1.
         25    2    1    2    0    0 -0.17012179701E+03 -0.31428231776E+02  0.43318983241E+03  0.48293271356E+03  0.12506564418E+03 0.  0.
          5    1    3    3  502    0 -0.49662059130E+02  0.45318631791E+02  0.18018975036E+03  0.19236922061E+03  0.41800000000E+01 0. -1.
         -5    1    3    3    0  502 -0.12045973788E+03 -0.76746863567E+02  0.25300008205E+03  0.29056349295E+03  0.41800000000E+01 0. -1.
        -11    1    1    2    0    0  0.10680091744E+03  0.29529016216E+02  0.17612361308E+03  0.20808153654E+03  0.00000000000E+00 0. -1.
         11    1    1    2    0    0  0.63320879575E+02  0.18992155597E+01  0.13767845124E+02  0.64828191161E+02  0.00000000000E+00 0.  1.
</event>
<event>
 7    1  0.2641580E-009  0.1026062E+03  0.7561462E-02  0.1274909E+00
          2   -1    0    0  501    0  0.00000000000E+00  0.00000000000E+00  0.47240271822E+02  0.47240271822E+02  0.00000000000E+00 0. -1.
         -2   -1    0    0    0  501 -0.00000000000E+00 -0.00000000000E+00 -0.35070494208E+03  0.35070494208E+03  0.00000000000E+00 0.  1.
         25    2    1    2    0    0  0.65599347037E+02 -0.11525944499E+00 -0.11295527758E+03  0.18085832652E+03  0.12509017516E+03 0.  0.
          5    1    3    3  502    0  0.32671309140E+02  0.61311001775E+02 -0.70893489203E+02  0.99346930456E+02  0.41800000000E+01 0. -1.
         -5    1    3    3    0  502  0.32928037897E+02 -0.61426261220E+02 -0.42061788376E+02  0.81511396066E+02  0.41800000000E+01 0. -1.
        -11    1    1    2    0    0 -0.24613384429E+02  0.24891487641E+01 -0.27497959990E+01  0.24891282262E+02  0.00000000000E+00 0. -1.
         11    1    1    2    0    0 -0.40985962607E+02 -0.23738893191E+01 -0.18775959668E+03  0.19219560511E+03  0.00000000000E+00 0.  1.
</event>
<event>
 7    1  0.2641580E-009  0.1215058E+03  0.7561462E-02  0.1240633E+00
          2   -1    0    0  501    0  0.00000000000E+00  0.00000000000E+00  0.46043350165E+02  0.46043350165E+02  0.00000000000E+00 0. -1.
         -2   -1    0    0    0  501 -0.00000000000E+00 -0.00000000000E+00 -0.32621152534E+03  0.32621152534E+03  0.00000000000E+00 0.  1.
         25    2    1    2    0    0 -0.44776578279E+02  0.35296963310E+02 -0.15876294137E+03  0.21001545612E+03  0.12509997073E+03 0.  0.
          5    1    3    3  502    0 -0.19884571652E+02 -0.46983489751E+02 -0.53450690474E+02  0.74008737397E+02  0.41800000000E+01 0. -1.
         -5    1    3    3    0  502 -0.24892006627E+02  0.82280453061E+02 -0.10531225090E+03  0.13600671873E+03  0.41800000000E+01 0. -1.
        -11    1    1    2    0    0  0.71119323802E+02 -0.15457301355E+02 -0.96729177373E+02  0.12105131201E+03  0.00000000000E+00 0. -1.
         11    1    1    2    0    0 -0.26342745523E+02 -0.19839661955E+02 -0.24676056430E+02  0.41188107375E+02  0.00000000000E+00 0.  1.
</event>
<event>
 7    1  0.2641580E-009  0.1655273E+03  0.7561462E-02  0.1182594E+00
          3   -1    0    0  501    0  0.00000000000E+00  0.00000000000E+00  0.20389149307E+03  0.20389149307E+03  0.00000000000E+00 0. -1.
         -3   -1    0    0    0  501 -0.00000000000E+00 -0.00000000000E+00 -0.18574395816E+03  0.18574395816E+03  0.00000000000E+00 0.  1.
         25    2    1    2    0    0  0.85822753279E+02 -0.11315443492E+03  0.86692431289E+02  0.20816535023E+03  0.12509102394E+03 0.  0.
          5    1    3    3  502    0  0.53660177412E+02 -0.13691517802E+03  0.55333327591E+02  0.15717643002E+03  0.41800000000E+01 0. -1.
         -5    1    3    3    0  502  0.32162575867E+02  0.23760743098E+02  0.31359103698E+02  0.50988920205E+02  0.41800000000E+01 0. -1.
        -11    1    1    2    0    0 -0.12156890289E+02  0.31484848218E+02  0.20907572771E+02  0.39701539617E+02  0.00000000000E+00 0. -1.
         11    1    1    2    0    0 -0.73665862989E+02  0.81669586704E+02 -0.89452469145E+02  0.14176856139E+03  0.00000000000E+00 0.  1.
</event>
<event>
 7    1  0.3063400E-009  0.1429128E+03  0.7561462E-02  0.1209462E+00
         -2   -1    0    0    0  501 -0.00000000000E+00  0.00000000000E+00  0.47518771113E+02  0.47518771113E+02  0.00000000000E+00 0.  1.
          2   -1    0    0  501    0  0.00000000000E+00 -0.00000000000E+00 -0.63889931212E+03  0.63889931212E+03  0.00000000000E+00 0. -1.
         25    2    1    2    0    0 -0.22801657714E+02  0.12812654896E+03 -0.23355706153E+03  0.29518011993E+03  0.12508426788E+03 0.  0.
          5    1    3    3  502    0  0.32308602155E+02  0.44272020348E+02 -0.16412783286E+03  0.17308747927E+03  0.41800000000E+01 0. -1.
         -5    1    3    3    0  502 -0.55110259869E+02  0.83854528612E+02 -0.69429228664E+02  0.12209264066E+03  0.41800000000E+01 0. -1.
        -11    1    1    2    0    0  0.66990706756E+01 -0.62403676697E+02 -0.28500241182E+03  0.29183123746E+03  0.00000000000E+00 0. -1.
         11    1    1    2    0    0  0.16102587038E+02 -0.65722872263E+02 -0.72821067662E+02  0.99406725845E+02  0.00000000000E+00 0.  1.
</event>
<event>
 7    1  0.2641580E-009  0.9347620E+02  0.7561462E-02  0.1294645E+00
         -1   -1    0    0    0  501 -0.00000000000E+00  0.00000000000E+00  0.34908468368E+02  0.34908468368E+02  0.00000000000E+00 0.  1.
          1   -1    0    0  501    0  0.00000000000E+00 -0.00000000000E+00 -0.50156455234E+03  0.50156455234E+03  0.00000000000E+00 0. -1.
         25    2    1    2    0    0  0.27070780098E+02 -0.55099272954E+02 -0.16704127120E+03  0.21752606961E+03  0.12508416231E+03 0.  0.
          5    1    3    3  502    0  0.34126622149E+02 -0.12090233798E+02  0.78128351996E+01  0.37273487715E+02  0.41800000000E+01 0.  1.
         -5    1    3    3    0  502 -0.70558420508E+01 -0.43009039155E+02 -0.17485410640E+03  0.18025258189E+03  0.41800000000E+01 0.  1.
        -11    1    1    2    0    0 -0.23247659781E+02  0.79086713997E+02 -0.25698819415E+03  0.26988533482E+03  0.00000000000E+00 0. -1.
         11    1    1    2    0    0 -0.38231203175E+01 -0.23987441043E+02 -0.42626618628E+02  0.49061616284E+02  0.00000000000E+00 0.  1.
</event>
<event>
 7    1  0.2641580E-009  0.1082607E+03  0.7561462E-02  0.1263825E+00
          1   -1    0    0  501    0  0.00000000000E+00  0.00000000000E+00  0.99680604728E+02  0.99680604728E+02  0.00000000000E+00 0. -1.
         -1   -1    0    0    0  501 -0.00000000000E+00 -0.00000000000E+00 -0.12979510099E+03  0.12979510099E+03  0.00000000000E+00 0.  1.
         25    2    1    2    0    0 -0.98438330324E+01  0.29726953590E+02 -0.20899148541E+01  0.12896649487E+03  0.12508955286E+03 0.  0.
          5    1    3    3  502    0  0.54489098762E+02  0.32806475120E+02  0.55133894086E+01  0.63978094348E+02  0.41800000000E+01 0.  1.
         -5    1    3    3    0  502 -0.64332931794E+02 -0.30795215297E+01 -0.76033042627E+01  0.64988400517E+02  0.41800000000E+01 0.  1.
        -11    1    1    2    0    0  0.40251280104E+02 -0.39405139035E+02 -0.36959261205E+02  0.67371488934E+02  0.00000000000E+00 0.  1.
         11    1    1    2    0    0 -0.30407447072E+02  0.96781854447E+01  0.89346797958E+01  0.33137721919E+02  0.00000000000E+00 0. -1.
</event>
<event>
 7    1  0.2641580E-009  0.1079472E+03  0.7561462E-02  0.1264419E+00
          1   -1    0    0  501    0  0.00000000000E+00  0.00000000000E+00  0.22139962091E+03  0.22139962091E+03  0.00000000000E+00 0. -1.
         -1   -1    0    0    0  501 -0.00000000000E+00 -0.00000000000E+00 -0.89808961588E+02  0.89808961588E+02  0.00000000000E+00 0.  1.
         25    2    1    2    0    0  0.80162194432E+02  0.44799569111E+00  0.11441883047E+03  0.18751669354E+03  0.12507862917E+03 0.  0.
          5    1    3    3  502    0  0.64695449231E+02  0.47178367676E+02  0.11240998360E+03  0.13807525608E+03  0.41800000000E+01 0. -1.
         -5    1    3    3    0  502  0.15466745201E+02 -0.46730371985E+02  0.20088468683E+01  0.49441437466E+02  0.41800000000E+01 0. -1.
        -11    1    1    2    0    0 -0.53397941090E+02  0.14930859962E+02  0.52791171424E+02  0.76558333787E+02  0.00000000000E+00 0. -1.
         11    1    1    2    0    0 -0.26764253342E+02 -0.15378855653E+02 -0.35619342567E+02  0.47133555171E+02  0.00000000000E+00 0.  1.
</event>
<event>
 7    1  0.2641580E-009  0.1188475E+03  0.7561462E-02  0.1245010E+00
          1   -1    0    0  501    0  0.00000000000E+00  0.00000000000E+00  0.84406435874E+02  0.84406435874E+02  0.00000000000E+00 0.  1.
         -1   -1    0    0    0  501 -0.00000000000E+00 -0.00000000000E+00 -0.17949855347E+03  0.17949855347E+03  0.00000000000E+00 0. -1.
         25    2    1    2    0    0 -0.88083230655E+01  0.49108165391E+02 -0.19929994219E+02  0.13613844546E+03  0.12508906107E+03 0.  0.
          5    1    3    3  502    0  0.57955989409E+02  0.20366212149E+02 -0.13593017774E+02  0.63054911291E+02  0.41800000000E+01 0. -1.
         -5    1    3    3    0  502 -0.66764312475E+02  0.28741953242E+02 -0.63369764456E+01  0.73083534171E+02  0.41800000000E+01 0. -1.
        -11    1    1    2    0    0  0.49515929878E+02 -0.33162965236E+02 -0.42724988815E+02  0.73328263611E+02  0.00000000000E+00 0. -1.
         11    1    1    2    0    0 -0.40707606813E+02 -0.15945200155E+02 -0.32437134560E+02  0.54438280271E+02  0.00000000000E+00 0.  1.
</event>
<event>
 7    1  0.2641580E-009  0.1675930E+03  0.7561462E-02  0.1180381E+00
          2   -1    0    0  501    0  0.00000000000E+00  0.00000000000E+00  0.69967272622E+02  0.69967272622E+02  0.00000000000E+00 0. -1.
         -2   -1    0    0    0  501 -0.00000000000E+00 -0.00000000000E+00 -0.46219096920E+03  0.46219096920E+03  0.00000000000E+00 0.  1.
         25    2    1    2    0    0  0.82116367908E+02 -0.11763419304E+03 -0.18320115167E+03  0.26417960896E+03  0.12508917845E+03 0.  0.
          5    1    3    3  502    0  0.52258087187E+02  0.14830805845E+02 -0.51902443200E+02  0.75247567991E+02  0.41800000000E+01 0. -1.
         -5    1    3    3    0  502  0.29858280721E+02 -0.13246499889E+03 -0.13129870847E+03  0.18893204097E+03  0.41800000000E+01 0. -1.
        -11    1    1    2    0    0 -0.33057547022E+02  0.64845617661E+02 -0.37383943535E+02  0.81824903173E+02  0.00000000000E+00 0. -1.
         11    1    1    2    0    0 -0.49058820885E+02  0.52788575380E+02 -0.17163860137E+03  0.18615372969E+03  0.00000000000E+00 0.  1.
</event>
<event>
 7    1  0.2641580E-009  0.1656303E+03  0.7561462E-02  0.1182483E+00
         -2   -1    0    0    0  501 -0.00000000000E+00  0.00000000000E+00  0.10215206267E+03  0.10215206267E+03  0.00000000000E+00 0.  1.
          2   -1    0    0  501    0  0.00000000000E+00 -0.00000000000E+00 -0.32689163278E+03  0.32689163278E+03  0.00000000000E+00 0. -1.
         25    2    1    2    0    0  0.10902859598E+03  0.58402759767E+02 -0.20821601294E+03  0.27257897276E+03  0.12508905331E+03 0.  0.
          5    1    3    3  502    0  0.13558096300E+03  0.61173461764E+02 -0.17300008947E+03  0.22819047594E+03  0.41800000000E+01 0. -1.
         -5    1    3    3    0  502 -0.26552367025E+02 -0.27707019971E+01 -0.35215923468E+02  0.44388496820E+02  0.41800000000E+01 0. -1.
        -11    1    1    2    0    0 -0.10726234574E+03 -0.10803182082E+02 -0.82609553329E+01  0.10812105687E+03  0.00000000000E+00 0. -1.
         11    1    1    2    0    0 -0.17662502391E+01 -0.47599577684E+02 -0.82626018397E+01  0.48343665819E+02  0.00000000000E+00 0.  1.
</event>
<event>
 6    1  0.3352186E-009  0.9848230E+02  0.7561462E-02  0.1283520E+00
          2   -1    0    0  501    0  0.00000000000E+00  0.00000000000E+00  0.37674253530E+03  0.37674253530E+03  0.00000000000E+00 0. -1.
         -2   -1    0    0    0  501 -0.00000000000E+00 -0.00000000000E+00 -0.38750382301E+02  0.38750382301E+02  0.00000000000E+00 0.  1.
          5    1    1    2  502    0  0.47718645083E+02  0.90091118169E+01  0.55062878525E+02  0.73536563529E+02  0.41800000000E+01 0. -1.
         -5    1    1    2    0  502 -0.81084072276E+02  0.28758702691E+02  0.10742127943E+03  0.13768984505E+03  0.41800000000E+01 0. -1.
        -11    1    1    2    0    0  0.38357908266E+02 -0.19264383879E+02  0.17960958975E+03  0.18466740466E+03  0.00000000000E+00 0. -1.
         11    1    1    2    0    0 -0.49924810730E+01 -0.18503430629E+02 -0.41015947082E+01  0.19599104354E+02  0.00000000000E+00 0.  1.
</event>
<event>
 7    1  0.2641580E-009  0.1327028E+03  0.7561462E-02  0.1223499E+00
         -2   -1    0    0    0  501 -0.00000000000E+00  0.00000000000E+00  0.37556847346E+03  0.37556847346E+03  0.00000000000E+00 0.  1.
          2   -1    0    0  501    0  0.00000000000E+00 -0.00000000000E+00 -0.74644664023E+02  0.74644664023E+02  0.00000000000E+00 0. -1.
         25    2    1    2    0    0  0.10051463406E+03 -0.35674844686E+02  0.65796562449E+02  0.17706728741E+03  0.12509096864E+03 0.  0.
          5    1    3    3  502    0  0.11855701568E+03 -0.48614335949E+02  0.79298360065E+02  0.15074754372E+03  0.41800000000E+01 0. -1.
         -5    1    3    3    0  502 -0.18042381629E+02  0.12939491263E+02 -0.13501797616E+02  0.26319743689E+02  0.41800000000E+01 0. -1.
        -11    1    1    2    0    0 -0.71074797506E+02  0.37397039591E+01  0.21264057805E+03  0.22423565207E+03  0.00000000000E+00 0.  1.
         11    1    1    2    0    0 -0.29439836549E+02  0.31935140727E+02  0.22486668940E+02  0.48910198010E+02  0.00000000000E+00 0. -1.
</event>
<event>
 7    1  0.2641580E-009  0.1122447E+03  0.7561462E-02  0.1256469E+00
         -4   -1    0    0    0  501 -0.00000000000E+00  0.00000000000E+00  0.22998568617E+03  0.22998568617E+03  0.00000000000E+00 0.  1.
          4   -1    0    0  501    0  0.00000000000E+00 -0.00000000000E+00 -0.64927564475E+02  0.64927564475E+02  0.00000000000E+00 0. -1.
         25    2    1    2    0    0  0.12735540339E+02  0.38710956907E+02  0.44887489148E+02  0.13898721710E+03  0.12506729254E+03 0.  0.
          5    1    3    3  502    0  0.40030120668E+02  0.71687562234E+02  0.85038948086E+01  0.82651713634E+02  0.41800000000E+01 0.  1.
         -5    1    3    3    0  502 -0.27294580329E+02 -0.32976605327E+02  0.36383594339E+02  0.56335503470E+02  0.41800000000E+01 0.  1.
        -11    1    1    2    0    0  0.37558890069E+02 -0.30333258641E+02  0.61804113122E+02  0.78425284200E+02  0.00000000000E+00 0. -1.
         11    1    1    2    0    0 -0.50294430408E+02 -0.83776982658E+01  0.58366519421E+02  0.77500749336E+02  0.00000000000E+00 0.  1.
</event>
<event>
 7    1  0.2641580E-009  0.1354618E+03  0.7561462E-02  0.1219569E+00
          2   -1    0    0  501    0  0.00000000000E+00  0.00000000000E+00  0.37651335705E+03  0.37651335705E+03  0.00000000000E+00 0. -1.
         -2   -1    0    0    0  501 -0.00000000000E+00 -0.00000000000E+00 -0.97361132646E+02  0.97361132646E+02  0.00000000000E+00 0.  1.
         25    2    1    2    0    0  0.93034929594E+02 -0.57537447224E+02  0.68076401077E+01  0.16631422346E+03  0.12509205013E+03 0.  0.
          5    1    3    3  502    0  0.58150617420E+02 -0.69951738754E+02 -0.45733624159E+02  0.10190081864E+03  0.41800000000E+01 0. -1.
         -5    1    3    3    0  502  0.34884312174E+02  0.12414291530E+02  0.52541264266E+02  0.64413404822E+02  0.41800000000E+01 0. -1.
        -11    1    1    2    0    0 -0.77027252239E+00  0.50023383080E+02  0.86132055921E+02  0.99607546058E+02  0.00000000000E+00 0. -1.
         11    1    1    2    0    0 -0.92264657071E+02  0.75140641446E+01  0.18621252837E+03  0.20795272017E+03  0.00000000000E+00 0.  1.
</event>
<event>
 7    1  0.2641580E-009  0.1683314E+03  0.7561462E-02  0.1179599E+00
          2   -1    0    0  501    0  0.00000000000E+00  0.00000000000E+00  0.29763244054E+03  0.29763244054E+03  0.00000000000E+00 0.  1.
         -2   -1    0    0    0  501 -0.00000000000E+00 -0.00000000000E+00 -0.12970205880E+03  0.12970205880E+03  0.00000000000E+00 0. -1.
         25    2    1    2    0    0  0.74663961471E+00 -0.15885778192E+03  0.12959073861E+03  0.24016304027E+03  0.12509266178E+03 0.  0.
          5    1    3    3  502    0  0.31135790148E+02 -0.28819794382E+02  0.91954188526E+02  0.10135612051E+03  0.41800000000E+01 0. -1.
         -5    1    3    3    0  502 -0.30389150533E+02 -0.13003798754E+03  0.37636550083E+02  0.13880691977E+03  0.41800000000E+01 0. -1.
        -11    1    1    2    0    0 -0.92463884658E+01  0.13030413268E+03 -0.93228960191E+01  0.13096403737E+03  0.00000000000E+00 0. -1.
         11    1    1    2    0    0  0.84997488510E+01  0.28553649239E+02  0.47662539148E+02  0.56207421693E+02  0.00000000000E+00 0.  1.
</event>
<event>
 6    1  0.2750258E-009  0.5564755E+02  0.7561462E-02  0.1417061E+00
          2   -1    0    0  501    0  0.00000000000E+00  0.00000000000E+00  0.16331321302E+03  0.16331321302E+03  0.00000000000E+00 0. -1.
         -2   -1    0    0    0  501 -0.00000000000E+00 -0.00000000000E+00 -0.99666388783E+02  0.99666388783E+02  0.00000000000E+00 0.  1.
          5    1    1    2  502    0 -0.24872841060E+01  0.22090629217E+02 -0.78678760798E+02  0.81865757690E+02  0.41800000000E+01 0.  1.
         -5    1    1    2    0  502  0.76424516511E-01 -0.14614778126E+02  0.45416573746E+02  0.47892955131E+02  0.41800000000E+01 0.  1.
        -11    1    1    2    0    0  0.75382137421E+00 -0.40450774573E+02  0.12125885156E+02  0.42235891148E+02  0.00000000000E+00 0.  1.
         11    1    1    2    0    0  0.16570382153E+01  0.32974923481E+02  0.84783126133E+02  0.90984997835E+02  0.00000000000E+00 0. -1.
</event>
<event>
 7    1  0.2641580E-009  0.1237481E+03  0.7561462E-02  0.1237039E+00
          1   -1    0    0  501    0  0.00000000000E+00  0.00000000000E+00  0.34833963632E+03  0.34833963632E+03  0.00000000000E+00 0. -1.
         -1   -1    0    0    0  501 -0.00000000000E+00 -0.00000000000E+00 -0.45990846252E+02  0.45990846252E+02  0.00000000000E+00 0.  1.
         25    2    1    2    0    0  0.27206234899E+02  0.54801135787E+02  0.20881209866E+03  0.25098346246E+03  0.12508741816E+03 0.  0.
          5    1    3    3  502    0  0.31002977048E+02  0.94220116965E+02  0.14368070212E+03  0.17464315500E+03  0.41800000000E+01 0. -1.
         -5    1    3    3    0  502 -0.37967421488E+01 -0.39418981178E+02  0.65131396545E+02  0.76340307466E+02  0.41800000000E+01 0. -1.
        -11    1    1    2    0    0  0.33144387816E+02 -0.18140205210E+02  0.37081460946E+02  0.52940081551E+02  0.00000000000E+00 0.  1.
         11    1    1    2    0    0 -0.60350622715E+02 -0.36660930577E+02  0.56455230459E+02  0.90406938556E+02  0.00000000000E+00 0. -1.
</event>
<event>
 7    1  0.2641580E-009  0.2632616E+03  0.7561462E-02  0.1105199E+00
          2   -1    0    0  501    0  0.00000000000E+00  0.00000000000E+00  0.96820047448E+03  0.96820047448E+03  0.00000000000E+00 0. -1.
         -2   -1    0    0    0  501 -0.00000000000E+00 -0.00000000000E+00 -0.84602396761E+02  0.84602396761E+02  0.00000000000E+00 0.  1.
         25    2    1    2    0    0  0.22608643688E+03  0.87353132849E+02  0.25751138711E+03  0.37510647957E+03  0.12508840781E+03 0.  0.
          5    1    3    3  502    0  0.17715794234E+03  0.11972207079E+03  0.19828426415E+03  0.29163750201E+03  0.41800000000E+01 0.  1.
         -5    1    3    3    0  502  0.48928494538E+02 -0.32368937945E+02  0.59227122962E+02  0.83468977565E+02  0.41800000000E+01 0.  1.
        -11    1    1    2    0    0 -0.11868594820E+03 -0.55014395198E+01  0.22430217734E+03  0.25382688372E+03  0.00000000000E+00 0.  1.
         11    1    1    2    0    0 -0.10740048868E+03 -0.81851693329E+02  0.40178451326E+03  0.42386950794E+03  0.00000000000E+00 0. -1.
</event>
<event>
 7    1  0.2641580E-009  0.1482725E+03  0.7561462E-02  0.1202612E+00
         -1   -1    0    0    0  501 -0.00000000000E+00  0.00000000000E+00  0.10486529289E+03  0.10486529289E+03  0.00000000000E+00 0. -1.
          1   -1    0    0  501    0  0.00000000000E+00 -0.00000000000E+00 -0.31318426334E+03  0.31318426334E+03  0.00000000000E+00 0.  1.
         25    2    1    2    0    0  0.31918741761E+02  0.10948018201E+03 -0.21165347458E+03  0.27101082956E+03  0.12507981496E+03 0.  0.
          5    1    3    3  502    0  0.39726635213E+02  0.12761474935E+03 -0.12854087159E+03  0.18548303929E+03  0.41800000000E+01 0.  1.
         -5    1    3    3    0  502 -0.78078934522E+01 -0.18134567341E+02 -0.83112602990E+02  0.85527790271E+02  0.41800000000E+01 0.  1.
        -11    1    1    2    0    0  0.95913450358E+01  0.11362466972E+02 -0.10954439694E+02  0.18468873931E+02  0.00000000000E+00 0.  1.
         11    1    1    2    0    0 -0.41510086797E+02 -0.12084264898E+03  0.14288943815E+02  0.12856985274E+03  0.00000000000E+00 0. -1.
</event>
<event>
 7    1  0.2641580E-009  0.1833006E+03  0.7561462E-02  0.1164646E+00
         -1   -1    0    0    0  501 -0.00000000000E+00  0.00000000000E+00  0.41839151373E+02  0.41839151373E+02  0.00000000000E+00 0.  1.
          1   -1    0    0  501    0  0.00000000000E+00 -0.00000000000E+00 -0.12699374719E+04  0.12699374719E+04  0.00000000000E+00 0. -1.
         25    2    1    2    0    0  0.10759746126E+03  0.14313759669E+03 -0.36457852266E+03  0.42500604147E+03  0.12508817226E+03 0.  0.
          5    1    3    3  502    0  0.72772655580E+02  0.10553531972E+03 -0.12193006310E+03  0.17696885544E+03  0.41800000000E+01 0.  1.
         -5    1    3    3    0  502  0.34824805684E+02  0.37602276970E+02 -0.24264845956E+03  0.24803718602E+03  0.41800000000E+01 0.  1.
        -11    1    1    2    0    0 -0.95614841777E+02 -0.14607044881E+03 -0.85261595085E+03  0.87030611490E+03  0.00000000000E+00 0. -1.
         11    1    1    2    0    0 -0.11982619487E+02  0.29328521247E+01 -0.10903847054E+02  0.16464466950E+02  0.00000000000E+00 0.  1.
</event>
<event>
 7    1  0.2659289E-009  0.2211130E+03  0.7561462E-02  0.1133056E+00
          2   -1    0    0  501    0  0.00000000000E+00  0.00000000000E+00  0.30744411128E+03  0.30744411128E+03  0.00000000000E+00 0. -1.
         -2   -1    0    0    0  501 -0.00000000000E+00 -0.00000000000E+00 -0.21412067176E+03  0.21412067176E+03  0.00000000000E+00 0.  1.
         25    2    1    2    0    0 -0.19724914600E+03 -0.49157048395E+02 -0.65850394339E+02  0.24760360366E+03  0.12509048368E+03 0.  0.
          5    1    3    3  502    0 -0.21397481581E+03 -0.44523317236E+02 -0.69504437584E+02  0.22938153113E+03  0.41800000000E+01 0.  1.
         -5    1    3    3    0  502  0.16725669815E+02 -0.46337311594E+01  0.36540432443E+01  0.18222072529E+02  0.41800000000E+01 0.  1.
        -11    1    1    2    0    0  0.58285491468E+02 -0.26394412747E+00  0.18534427168E+01  0.58315550517E+02  0.00000000000E+00 0.  1.
         11    1    1    2    0    0  0.13896365453E+03  0.49420992522E+02  0.15732039114E+03  0.21564562887E+03  0.00000000000E+00 0. -1.
</event>
<event>
 7    1  0.2641580E-009  0.1010485E+03  0.7561462E-02  0.1278106E+00
         -3   -1    0    0    0  501 -0.00000000000E+00  0.00000000000E+00  0.76338813821E+02  0.76338813821E+02  0.00000000000E+00 0.  1.
          3   -1    0    0  501    0  0.00000000000E+00 -0.00000000000E+00 -0.21297406959E+03  0.21297406959E+03  0.00000000000E+00 0. -1.
         25    2    1    2    0    0  0.49474421415E+02  0.40069785454E+01 -0.12305755943E+03  0.18235772902E+03  0.12508958450E+03 0.  0.
          5    1    3    3  502    0  0.38730279639E+02  0.44915114981E+02 -0.12644081156E+03  0.13972169961E+03  0.41800000000E+01 0. -1.
         -5    1    3    3    0  502  0.10744141776E+02 -0.40908136436E+02  0.33832521268E+01  0.42636029413E+02  0.41800000000E+01 0. -1.
        -11    1    1    2    0    0  0.41988034556E+01 -0.36934307272E+02 -0.22357198942E+02  0.43377613450E+02  0.00000000000E+00 0.  1.
         11    1    1    2    0    0 -0.53673224871E+02  0.32927328727E+02  0.87795026072E+01  0.63577540934E+02  0.00000000000E+00 0. -1.
</event>
<event>
 7    1  0.2641580E-009  0.1203450E+03  0.7561462E-02  0.1242529E+00
          1   -1    0    0  501    0  0.00000000000E+00  0.00000000000E+00  0.37050627045E+03  0.37050627045E+03  0.00000000000E+00 0. -1.
         -1   -1    0    0    0  501 -0.00000000000E+00 -0.00000000000E+00 -0.45438127876E+02  0.45438127876E+02  0.00000000000E+00 0.  1.
         25    2    1    2    0    0 -0.60563466036E+02 -0.37523915280E+02  0.15669056607E+03  0.21278015604E+03  0.12508990237E+03 0.  0.
          5    1    3    3  502    0 -0.62996457566E+02  0.29755067799E+02  0.11165579654E+03  0.13167538505E+03  0.41800000000E+01 0. -1.
         -5    1    3    3    0  502  0.24329915308E+01 -0.67278983078E+02  0.45034769526E+02  0.81104770995E+02  0.41800000000E+01 0. -1.
        -11    1    1    2    0    0  0.66740422253E+02  0.13597924188E+01  0.14508916865E+03  0.15970911013E+03  0.00000000000E+00 0. -1.
         11    1    1    2    0    0 -0.61769562173E+01  0.36164122861E+02  0.23288407857E+02  0.43455132159E+02  0.00000000000E+00 0.  1.
</event>
<event>
 7    1  0.2641580E-009  0.9722944E+02  0.7561462E-02  0.1286232E+00
          2   -1    0    0  501    0  0.00000000000E+00  0.00000000000E+00  0.32554047891E+03  0.32554047891E+03  0.00000000000E+00 0. -1.
         -2   -1    0    0    0  501 -0.00000000000E+00 -0.00000000000E+00 -0.43793959743E+02  0.43793959743E+02  0.00000000000E+00 0.  1.
         25    2    1    2    0    0 -0.14289141266E+02  0.43481956322E+02  0.19585954704E+03  0.23686157354E+03  0.12509029847E+03 0.  0.
          5    1    3    3  502    0  0.13791526294E+02 -0.31815166644E+02  0.13336435120E+02  0.37386413680E+02  0.41800000000E+01 0.  1.
         -5    1    3    3    0  502 -0.28080667559E+02  0.75297122966E+02  0.18252311192E+03  0.19947515986E+03  0.41800000000E+01 0.  1.
        -11    1    1    2    0    0 -0.25795073392E+02 -0.19648899444E+02 -0.25158865382E+01  0.32523756636E+02  0.00000000000E+00 0.  1.
         11    1    1    2    0    0  0.40084214657E+02 -0.23833056878E+02  0.88402858667E+02  0.99949108477E+02  0.00000000000E+00 0. -1.
</event>
<event>
 7    1  0.2641580E-009  0.1052027E+03  0.7561462E-02  0.1269721E+00
          1   -1    0    0  501    0  0.00000000000E+00  0.00000000000E+00  0.17352452874E+03  0.17352452874E+03  0.00000000000E+00 0. -1.
         -1   -1    0    0    0  501 -0.00000000000E+00 -0.00000000000E+00 -0.85672319128E+02  0.85672319128E+02  0.00000000000E+00 0.  1.
         25    2    1    2    0    0 -0.27284450308E+02  0.71460781438E+01 -0.37723845266E+00  0.12823608419E+03  0.12509533692E+03 0.  0.
          5    1    3    3  502    0  0.43970519652E+02 -0.12077434326E+02 -0.22577253265E+02  0.51053655926E+02  0.41800000000E+01 0. -1.
         -5    1    3    3    0  502 -0.71254969961E+02  0.19223512470E+02  0.22200014812E+02  0.77182428269E+02  0.41800000000E+01 0. -1.
        -11    1    1    2    0    0 -0.24043577611E+02 -0.26552005548E+02  0.58380911980E+02  0.68494039934E+02  0.00000000000E+00 0. -1.
         11    1    1    2    0    0  0.51328027919E+02  0.19405927404E+02  0.29848536085E+02  0.62466723740E+02  0.00000000000E+00 0.  1.
</event>
<event>
 7    1  0.2641580E-009  0.9373329E+02  0.7561462E-02  0.1294055E+00
          1   -1    0    0  501    0  0.00000000000E+00  0.00000000000E+00  0.81428491975E+03  0.81428491975E+03  0.00000000000E+00 0. -1.
         -1   -1    0    0    0  501 -0.00000000000E+00 -0.00000000000E+00 -0.16285108275E+02  0.16285108275E+02  0.00000000000E+00 0.  1.
         25    2    1    2    0    0 -0.37390068256E+02  0.13967228258E+02  0.44937301892E+03  0.46816329157E+03  0.12509059426E+03 0.  0.
          5    1    3    3  502    0 -0.11898306702E+02 -0.38120388311E+02  0.35538148262E+03  0.35764256500E+03  0.41800000000E+01 0.  1.
         -5    1    3    3    0  502 -0.25491761553E+02  0.52087616569E+02  0.93991536298E+02  0.11052072657E+03  0.41800000000E+01 0.  1.
        -11    1    1    2    0    0  0.59253531331E+02  0.60093203124E+01  0.29678684631E+03  0.30270369183E+03  0.00000000000E+00 0. -1.
         11    1    1    2    0    0 -0.21863463075E+02 -0.19976548571E+02  0.51839946238E+02  0.59703044616E+02  0.00000000000E+00 0.  1.
</event>
<event>
 7    1  0.2641580E-009  0.2360059E+03  0.7561462E-02  0.1122483E+00
          1   -1    0    0  501    0  0.00000000000E+00  0.00000000000E+00  0.15257876171E+04  0.15257876171E+04  0.00000000000E+00 0. -1.
         -1   -1    0    0    0  501 -0.00000000000E+00 -0.00000000000E+00 -0.38502008828E+02  0.38502008828E+02  0.00000000000E+00 0.  1.
         25    2    1    2    0    0 -0.21060800797E+03 -0.41660929782E+02  0.70638055515E+03  0.74880763806E+03  0.12509206220E+03 0.  0.
          5    1    3    3  502    0 -0.44732713493E+02 -0.59088524910E+02  0.14128869144E+03  0.15960086516E+03  0.41800000000E+01 0. -1.
         -5    1    3    3    0  502 -0.16587529448E+03  0.17427595128E+02  0.56509186371E+03  0.58920677289E+03  0.41800000000E+01 0. -1.
        -11    1    1    2    0    0  0.85057656254E+02 -0.25181824738E+02  0.23005330124E+03  0.24656327909E+03  0.00000000000E+00 0. -1.
         11    1    1    2    0    0  0.12555035172E+03  0.66842754521E+02  0.55085175186E+03  0.56891870876E+03  0.00000000000E+00 0.  1.
</event>
<event>
 7    1  0.2641580E-009  0.1682183E+03  0.7561462E-02  0.1179719E+00
          2   -1    0    0  501    0  0.00000000000E+00  0.00000000000E+00  0.19452542751E+03  0.19452542751E+03  0.00000000000E+00 0. -1.
         -2   -1    0    0    0  501 -0.00000000000E+00 -0.00000000000E+00 -0.18604726689E+03  0.18604726689E+03  0.00000000000E+00 0.  1.
         25    2    1    2    0    0  0.10304720006E+03 -0.11414835257E+03 -0.24343544804E+02  0.19971349237E+03  0.12507717227E+03 0.  0.
          5    1    3    3  502    0  0.30720213074E+02 -0.62480133807E+02  0.48301870511E+02  0.84841273604E+02  0.41800000000E+01 0.  1.
         -5    1    3    3    0  502  0.72326986991E+02 -0.51668218765E+02 -0.72645415316E+02  0.11487221876E+03  0.41800000000E+01 0.  1.
        -11    1    1    2    0    0 -0.99966245890E+02  0.46965580953E+02  0.24037434602E+02  0.11303457159E+03  0.00000000000E+00 0.  1.
         11    1    1    2    0    0 -0.30809541739E+01  0.67182771619E+02  0.87842708293E+01  0.67824630445E+02  0.00000000000E+00 0. -1.
</event>
<event>
 7    1  0.2641580E-009  0.1144229E+03  0.7561462E-02  0.1252592E+00
          3   -1    0    0  501    0  0.00000000000E+00  0.00000000000E+00  0.33617859144E+03  0.33617859144E+03  0.00000000000E+00 0. -1.
         -3   -1    0    0    0  501 -0.00000000000E+00 -0.00000000000E+00 -0.79655008796E+02  0.79655008796E+02  0.00000000000E+00 0.  1.
         25    2    1    2    0    0 -0.63464534060E+02 -0.34122922653E+02  0.25985922402E+03  0.29726498228E+03  0.12509009732E+03 0.  0.
          5    1    3    3  502    0  0.20042120386E+02 -0.34121459221E+02  0.22729509560E+02  0.45826450591E+02  0.41800000000E+01 0.  1.
         -5    1    3    3    0  502 -0.83506654446E+02 -0.14634319041E-02  0.23712971446E+03  0.25143853169E+03  0.41800000000E+01 0.  1.
        -11    1    1    2    0    0  0.81612294284E+02  0.28435093841E+02  0.19756089673E+02  0.88653393726E+02  0.00000000000E+00 0. -1.
         11    1    1    2    0    0 -0.18147760224E+02  0.56878288119E+01 -0.23091731049E+02  0.29915224227E+02  0.00000000000E+00 0.  1.
</event>
<event>
 7    1  0.2641580E-009  0.1221315E+03  0.7561462E-02  0.1239622E+00
         -1   -1    0    0    0  501 -0.00000000000E+00  0.00000000000E+00  0.19368259344E+02  0.19368259344E+02  0.00000000000E+00 0.  1.
          1   -1    0    0  501    0  0.00000000000E+00 -0.00000000000E+00 -0.98571306184E+03  0.98571306184E+03  0.00000000000E+00 0. -1.
         25    2    1    2    0    0  0.50002435548E+02 -0.57006522487E+02 -0.67409761345E+03  0.68978469803E+03  0.12508137357E+03 0.  0.
          5    1    3    3  502    0  0.66445071263E+02  0.17162772703E+01 -0.51603790170E+03  0.52031767364E+03  0.41800000000E+01 0. -1.
         -5    1    3    3    0  502 -0.16442635715E+02 -0.58722799757E+02 -0.15805971175E+03  0.16946702440E+03  0.41800000000E+01 0. -1.
        -11    1    1    2    0    0 -0.39343699638E+02 -0.16209672815E+02 -0.13427771888E+03  0.14085874478E+03  0.00000000000E+00 0. -1.
         11    1    1    2    0    0 -0.10658735909E+02  0.73216195302E+02 -0.15796947017E+03  0.17443787837E+03  0.00000000000E+00 0.  1.
</event>
<event>
 7    1  0.2641580E-009  0.1104077E+03  0.7561462E-02  0.1259817E+00
          1   -1    0    0  501    0  0.00000000000E+00  0.00000000000E+00  0.38824742774E+02  0.38824742774E+02  0.00000000000E+00 0. -1.
         -1   -1    0    0    0  501 -0.00000000000E+00 -0.00000000000E+00 -0.53181625203E+03  0.53181625203E+03  0.00000000000E+00 0.  1.
         25    2    1    2    0    0  0.89696651158E+01 -0.92059051746E+02 -0.28554295918E+03  0.32517093019E+03  0.12508408534E+03 0.  0.
          5    1    3    3  502    0 -0.17797634371E+02  0.98903499713E+01 -0.15932836441E+03  0.16067848306E+03  0.41800000000E+01 0. -1.
         -5    1    3    3    0  502  0.26767299487E+02 -0.10194940172E+03 -0.12621459476E+03  0.16449244713E+03  0.41800000000E+01 0. -1.
        -11    1    1    2    0    0 -0.15228195652E+02  0.62628166541E+02 -0.20544103387E+03  0.21531419736E+03  0.00000000000E+00 0.  1.
         11    1    1    2    0    0  0.62585305363E+01  0.29430885205E+02 -0.20075162097E+01  0.30155867253E+02  0.00000000000E+00 0. -1.
</event>
<event>
 7    1  0.3288358E-009  0.9011579E+02  0.7561462E-02  0.1302572E+00
         -1   -1    0    0    0  501 -0.00000000000E+00  0.00000000000E+00  0.27451817897E+02  0.27451817897E+02  0.00000000000E+00 0.  1.
          1   -1    0    0  501    0  0.00000000000E+00 -0.00000000000E+00 -0.55851401767E+03  0.55851401767E+03  0.00000000000E+00 0. -1.
         25    2    1    2    0    0  0.36342213378E+02  0.78035217432E+01 -0.40877660319E+03  0.42910004107E+03  0.12508749940E+03 0.  0.
          5    1    3    3  502    0  0.68995325089E+02  0.27844630268E+02 -0.35619557445E+03  0.36390718319E+03  0.41800000000E+01 0.  1.
         -5    1    3    3    0  502 -0.32653111711E+02 -0.20041108524E+02 -0.52581028741E+02  0.65192857881E+02  0.41800000000E+01 0.  1.
        -11    1    1    2    0    0  0.15044914707E+02 -0.43865171797E+01  0.73983970735E+01  0.17329952994E+02  0.00000000000E+00 0.  1.
         11    1    1    2    0    0 -0.51387128085E+02 -0.34170045635E+01 -0.12968399365E+03  0.13953584149E+03  0.00000000000E+00 0. -1.
</event>
<event>
 7    1  0.2641580E-009  0.1552204E+03  0.7561462E-02  0.1194201E+00
          1   -1    0    0  501    0  0.00000000000E+00  0.00000000000E+00  0.10100395579E+03  0.10100395579E+03  0.00000000000E+00 0. -1.
         -1   -1    0    0    0  501 -0.00000000000E+00 -0.00000000000E+00 -0.33000733167E+03  0.33000733167E+03  0.00000000000E+00 0.  1.
         25    2    1    2    0    0  0.68892771463E+02  0.95015340484E+02 -0.16301462334E+02  0.17230017907E+03  0.12508990826E+03 0.  0.
          5    1    3    3  502    0 -0.14431354988E+02  0.86235666216E+02 -0.53396934559E+01  0.87697427903E+02  0.41800000000E+01 0. -1.
         -5    1    3    3    0  502  0.83324126450E+02  0.87796742675E+01 -0.10961768878E+02  0.84602751172E+02  0.41800000000E+01 0. -1.
        -11    1    1    2    0    0 -0.71322817411E+02 -0.35894669588E+02 -0.78163853734E+02  0.11173611600E+03  0.00000000000E+00 0. -1.
         11    1    1    2    0    0  0.24300459488E+01 -0.59120670896E+02 -0.13453805981E+03  0.14697499239E+03  0.00000000000E+00 0.  1.
</event>
<event>
 7    1  0.2641580E-009  0.1688418E+03  0.7561462E-02  0.1179061E+00
          1   -1    0    0  501    0  0.00000000000E+00  0.00000000000E+00  0.53108471046E+03  0.53108471046E+03  0.00000000000E+00 0. -1.
         -1   -1    0    0    0  501 -0.00000000000E+00 -0.00000000000E+00 -0.11979722146E+03  0.11979722146E+03  0.00000000000E+00 0.  1.
         25    2    1    2    0    0  0.91924163256E+02 -0.98154994167E+02  0.44560110605E+03  0.48196689764E+03  0.12508912839E+03 0.  0.
          5    1    3    3  502    0  0.12330368597E+03 -0.74822088486E+02  0.34569760153E+03  0.37460171916E+03  0.41800000000E+01 0. -1.
         -5    1    3    3    0  502 -0.31379522718E+02 -0.23332905681E+02  0.99903504523E+02  0.10736517848E+03  0.41800000000E+01 0. -1.
        -11    1    1    2    0    0 -0.28636445581E+02 -0.86543626456E+01  0.17191959573E+02  0.34503731426E+02  0.00000000000E+00 0. -1.
         11    1    1    2    0    0 -0.63287717675E+02  0.10680935681E+03 -0.51505576625E+02  0.13441130285E+03  0.00000000000E+00 0.  1.
</event>
<event>
 7    1  0.2641580E-009  0.8841435E+02  0.7561462E-02  0.1306738E+00
          1   -1    0    0  501    0  0.00000000000E+00  0.00000000000E+00  0.13178989259E+03  0.13178989259E+03  0.00000000000E+00 0. -1.
         -1   -1    0    0    0  501 -0.00000000000E+00 -0.00000000000E+00 -0.15162611439E+03  0.15162611439E+03  0.00000000000E+00 0.  1.
         25    2    1    2    0    0  0.20714756357E+02 -0.17561806046E+02  0.75870620164E+02  0.14879995287E+03  0.12509019469E+03 0.  0.
          5    1    3    3  502    0 -0.12730551133E+02 -0.65042846257E+02  0.23377424708E+02  0.70403232649E+02  0.41800000000E+01 0. -1.
         -5    1    3    3    0  502  0.33445307490E+02  0.47481040211E+02  0.52493195456E+02  0.78396720224E+02  0.41800000000E+01 0. -1.
        -11    1    1    2    0    0  0.45260858621E+01  0.25370307198E+02  0.84808551537E+01  0.27130478151E+02  0.00000000000E+00 0. -1.
         11    1    1    2    0    0 -0.25240842219E+02 -0.78085011519E+01 -0.10418769712E+03  0.10748557595E+03  0.00000000000E+00 0.  1.
</event>
<event>
 7    1  0.2641580E-009  0.6385113E+02  0.7561462E-02  0.1382346E+00
         -1   -1    0    0    0  501 -0.00000000000E+00  0.00000000000E+00  0.71087849136E+02  0.71087849136E+02  0.00000000000E+00 0.  1.
          1   -1    0    0  501    0  0.00000000000E+00 -0.00000000000E+00 -0.18863035140E+03  0.18863035140E+03  0.00000000000E+00 0. -1.
         25    2    1    2    0    0  0.39144332264E+02  0.13451908435E+02 -0.71133391946E+02  0.14973674145E+03  0.12509156527E+03 0.  0.
          5    1    3    3  502    0 -0.16544865730E+02 -0.14034593961E+02 -0.83416245998E+02  0.86292785944E+02  0.41800000000E+01 0. -1.
         -5    1    3    3    0  502  0.55689197994E+02  0.27486502396E+02  0.12282854052E+02  0.63443955510E+02  0.41800000000E+01 0. -1.
        -11    1    1    2    0    0 -0.29030407216E+02 -0.36139250901E+01  0.24206058117E+02  0.37970491796E+02  0.00000000000E+00 0.  1.
         11    1    1    2    0    0 -0.10113925048E+02 -0.98379833444E+01 -0.70615168433E+02  0.72010967283E+02  0.00000000000E+00 0. -1.
</event>
<event>
 7    1  0.2641580E-009  0.2951738E+03  0.7561462E-02  0.1087678E+00
         -1   -1    0    0    0  501 -0.00000000000E+00  0.00000000000E+00  0.25656992841E+03  0.25656992841E+03  0.00000000000E+00 0.  1.
          1   -1    0    0  501    0  0.00000000000E+00 -0.00000000000E+00 -0.38510170513E+03  0.38510170513E+03  0.00000000000E+00 0. -1.
         25    2    1    2    0    0 -0.29239749873E+03  0.37174079943E+02 -0.56869681543E+02  0.32520879091E+03  0.12509351512E+03 0.  0.
          5    1    3    3  502    0 -0.27019021490E+03  0.38432195811E+02 -0.87949401226E+02  0.28676184453E+03  0.41800000000E+01 0. -1.
         -5    1    3    3    0  502 -0.22207283829E+02 -0.12581158686E+01  0.31079719683E+02  0.38446946383E+02  0.41800000000E+01 0. -1.
        -11    1    1    2    0    0  0.13158358151E+03 -0.18552372086E+02  0.13450230995E+02  0.13356398522E+03  0.00000000000E+00 0. -1.
         11    1    1    2    0    0  0.16081391721E+03 -0.18621707857E+02 -0.85112326179E+02  0.18289885741E+03  0.00000000000E+00 0.  1.
</event>
<event>
 7    1  0.2641580E-009  0.8451887E+02  0.7561462E-02  0.1316696E+00
         -4   -1    0    0    0  501 -0.00000000000E+00  0.00000000000E+00  0.11654086787E+03  0.11654086787E+03  0.00000000000E+00 0. -1.
          4   -1    0    0  501    0  0.00000000000E+00 -0.00000000000E+00 -0.15673716000E+03  0.15673716000E+03  0.00000000000E+00 0.  1.
         25    2    1    2    0    0 -0.68513066726E+02  0.32715780217E+02  0.47464545450E+01  0.14640206822E+03  0.12508666660E+03 0.  0.
          5    1    3    3  502    0 -0.41115257443E+02 -0.78415759294E+01 -0.54880387977E+02  0.69146829950E+02  0.41800000000E+01 0. -1.
         -5    1    3    3    0  502 -0.27397809283E+02  0.40557356147E+02  0.59626842522E+02  0.77255238270E+02  0.41800000000E+01 0. -1.
        -11    1    1    2    0    0  0.22404838219E+02 -0.19970861069E+02 -0.67585883829E+02  0.73950414201E+02  0.00000000000E+00 0.  1.
         11    1    1    2    0    0  0.46108228507E+02 -0.12744919148E+02  0.22643137157E+02  0.52925545443E+02  0.00000000000E+00 0. -1.
</event>
<event>
 7    1  0.2641580E-009  0.1468551E+03  0.7561462E-02  0.1204392E+00
          1   -1    0    0  501    0  0.00000000000E+00  0.00000000000E+00  0.25427813829E+03  0.25427813829E+03  0.00000000000E+00 0. -1.
         -1   -1    0    0    0  501 -0.00000000000E+00 -0.00000000000E+00 -0.12576797400E+03  0.12576797400E+03  0.00000000000E+00 0.  1.
         25    2    1    2    0    0  0.23513751860E+02  0.89936703067E+02  0.17671026803E+02  0.15684820948E+03  0.12509032154E+03 0.  0.
          5    1    3    3  502    0  0.18988226333E+02  0.11825342039E+03 -0.51655885327E+01  0.11995240672E+03  0.41800000000E+01 0.  1.
         -5    1    3    3    0  502  0.45255255271E+01 -0.28316717323E+02  0.22836615335E+02  0.36895802759E+02  0.41800000000E+01 0.  1.
        -11    1    1    2    0    0  0.43154430202E+02 -0.54089779289E+02 -0.20011169737E+02  0.72030937685E+02  0.00000000000E+00 0.  1.
         11    1    1    2    0    0 -0.66668182062E+02 -0.35846923778E+02  0.13085030723E+03  0.15116696513E+03  0.00000000000E+00 0. -1.
</event>
<event>
 7    1  0.2641580E-009  0.1652425E+03  0.7561462E-02  0.1182902E+00
         -1   -1    0    0    0  501 -0.00000000000E+00  0.00000000000E+00  0.46098406613E+02  0.46098406613E+02  0.00000000000E+00 0.  1.
          1   -1    0    0  501    0  0.00000000000E+00 -0.00000000000E+00 -0.65883900189E+03  0.65883900189E+03  0.00000000000E+00 0. -1.
         25    2    1    2    0    0  0.36609976444E+02  0.13077076995E+03 -0.31347434500E+03  0.36380655710E+03  0.12509101233E+03 0.  0.
          5    1    3    3  502    0  0.50767643338E+02  0.14356300085E+03 -0.21550117530E+03  0.26390513026E+03  0.41800000000E+01 0.  1.
         -5    1    3    3    0  502 -0.14157666893E+02 -0.12792230894E+02 -0.97973169699E+02  0.99901426836E+02  0.41800000000E+01 0.  1.
        -11    1    1    2    0    0  0.23934990796E+02 -0.15796146763E+02 -0.93234695498E+02  0.97545427784E+02  0.00000000000E+00 0. -1.
         11    1    1    2    0    0 -0.60544967240E+02 -0.11497462319E+03 -0.20603155478E+03  0.24358542362E+03  0.00000000000E+00 0.  1.
</event>
<event>
 7    1  0.2641580E-009  0.6911692E+02  0.7561462E-02  0.1363122E+00
         -2   -1    0    0    0  501 -0.00000000000E+00  0.00000000000E+00  0.63750411078E+02  0.63750411078E+02  0.00000000000E+00 0. -1.
          2   -1    0    0  501    0  0.00000000000E+00 -0.00000000000E+00 -0.20223188103E+03  0.20223188103E+03  0.00000000000E+00 0.  1.
         25    2    1    2    0    0 -0.21913506607E+02  0.55270633222E+00 -0.74331995300E+02  0.14714776621E+03  0.12508681913E+03 0.  0.
          5    1    3    3  502    0 -0.45448178503E+02  0.16881478161E+02  0.16837657744E+02  0.51492721354E+02  0.41800000000E+01 0.  1.
         -5    1    3    3    0  502  0.23534671896E+02 -0.16328771829E+02 -0.91169653044E+02  0.95655044859E+02  0.41800000000E+01 0.  1.
        -11    1    1    2    0    0 -0.14392589350E+02 -0.15687470953E+02  0.17918885127E+02  0.27826782374E+02  0.00000000000E+00 0. -1.
         11    1    1    2    0    0  0.36306095957E+02  0.15134764621E+02 -0.82068359779E+02  0.91007743520E+02  0.00000000000E+00 0.  1.
</event>
<event>
 7    1  0.2641580E-009  0.9171212E+02  0.7561462E-02  0.1298758E+00
          1   -1    0    0  501    0  0.00000000000E+00  0.00000000000E+00  0.33608590696E+02  0.33608590696E+02  0.00000000000E+00 0. -1.
         -1   -1    0    0    0  501 -0.00000000000E+00 -0.00000000000E+00 -0.60789748351E+03  0.60789748351E+03  0.00000000000E+00 0.  1.
         25    2    1    2    0    0  0.78307941375E+02 -0.15334128026E+02 -0.42077742824E+03  0.44616927981E+03  0.12508442334E+03 0.  0.
          5    1    3    3  502    0  0.15321943668E+02 -0.48810306913E+01  0.35957478118E+01  0.16999653547E+02  0.41800000000E+01 0.  1.
         -5    1    3    3    0  502  0.62985997707E+02 -0.10453097335E+02 -0.42437317605E+03  0.42916962626E+03  0.41800000000E+01 0.  1.
        -11    1    1    2    0    0 -0.31346059880E+00 -0.18002206337E+02 -0.83310800574E+02  0.85234190222E+02  0.00000000000E+00 0.  1.
         11    1    1    2    0    0 -0.77994480777E+02  0.33336334363E+02 -0.70200663996E+02  0.11010260417E+03  0.00000000000E+00 0. -1.
</event>
<event>
 7    1  0.2641580E-009  0.2366335E+03  0.7561462E-02  0.1122056E+00
          2   -1    0    0  501    0  0.00000000000E+00  0.00000000000E+00  0.47576678065E+03  0.47576678065E+03  0.00000000000E+00 0. -1.
         -2   -1    0    0    0  501 -0.00000000000E+00 -0.00000000000E+00 -0.21119025081E+03  0.21119025081E+03  0.00000000000E+00 0.  1.
         25    2    1    2    0    0 -0.15027125935E+03 -0.16385137336E+03  0.34882301848E+03  0.43214987916E+03  0.12508915182E+03 0.  0.
          5    1    3    3  502    0 -0.78986222491E+01 -0.90106286918E+02  0.16481135215E+03  0.18804729557E+03  0.41800000000E+01 0.  1.
         -5    1    3    3    0  502 -0.14237263710E+03 -0.73745086437E+02  0.18401166633E+03  0.24410258359E+03  0.41800000000E+01 0.  1.
        -11    1    1    2    0    0  0.84108600605E+02  0.91402837103E+02  0.19208312038E+01  0.12422731148E+03  0.00000000000E+00 0.  1.
         11    1    1    2    0    0  0.66162658749E+02  0.72448536253E+02 -0.86167319847E+02  0.13057984082E+03  0.00000000000E+00 0. -1.
</event>
<event>
 7    1  0.2641580E-009  0.8769600E+02  0.7561462E-02  0.1308529E+00
          2   -1    0    0  501    0  0.00000000000E+00  0.00000000000E+00  0.27168927503E+03  0.27168927503E+03  0.00000000000E+00 0. -1.
         -2   -1    0    0    0  501 -0.00000000000E+00 -0.00000000000E+00 -0.67382121200E+02  0.67382121200E+02  0.00000000000E+00 0.  1.
         25    2    1    2    0    0  0.27925376696E+02  0.20401296598E+01  0.16550480996E+02  0.12925092881E+03  0.12509154801E+03 0.  0.
          5    1    3    3  502    0  0.59002545619E+02 -0.73360297164E+01 -0.34307410644E+02  0.68772004091E+02  0.41800000000E+01 0. -1.
         -5    1    3    3    0  502 -0.31077168923E+02  0.93761593762E+01  0.50857891640E+02  0.60478924718E+02  0.41800000000E+01 0. -1.
        -11    1    1    2    0    0 -0.36525674594E+02 -0.34037409213E+02  0.15649978653E+03  0.16427067089E+03  0.00000000000E+00 0. -1.
         11    1    1    2    0    0  0.86002978979E+01  0.31997279553E+02  0.31256886306E+02  0.45549796534E+02  0.00000000000E+00 0.  1.
</event>
<event>
 7    1  0.2641580E-009  0.9263342E+02  0.7561462E-02  0.1296597E+00
          1   -1    0    0  501    0  0.00000000000E+00  0.00000000000E+00  0.38413905115E+02  0.38413905115E+02  0.00000000000E+00 0. -1.
         -1   -1    0    0    0  501 -0.00000000000E+00 -0.00000000000E+00 -0.37132557547E+03  0.37132557547E+03  0.00000000000E+00 0.  1.
         25    2    1    2    0    0 -0.18481868574E+02  0.96062646001E+01 -0.26340646775E+03  0.29234321676E+03  0.12509088436E+03 0.  0.
          5    1    3    3  502    0 -0.68334205022E+02 -0.35287530663E+01 -0.10236415161E+03  0.12319865100E+03  0.41800000000E+01 0. -1.
         -5    1    3    3    0  502  0.49852336448E+02  0.13135017666E+02 -0.16104231614E+03  0.16914456576E+03  0.41800000000E+01 0. -1.
        -11    1    1    2    0    0 -0.17509175321E+02 -0.20904446527E+02 -0.74510010631E+02  0.79342981979E+02  0.00000000000E+00 0.  1.
         11    1    1    2    0    0  0.35991043895E+02  0.11298181927E+02  0.50048080281E+01  0.38053281841E+02  0.00000000000E+00 0. -1.
</event>
<event>
 7    1  0.2641580E-009  0.1119624E+03  0.7561462E-02  0.1256978E+00
         -1   -1    0    0    0  501 -0.00000000000E+00  0.00000000000E+00  0.76676987402E+02  0.76676987402E+02  0.00000000000E+00 0.  1.
          1   -1    0    0  501    0  0.00000000000E+00 -0.00000000000E+00 -0.23913527673E+03  0.23913527673E+03  0.00000000000E+00 0. -1.
         25    2    1    2    0    0  0.16594361794E+02  0.79231302371E+02 -0.10282096796E+03  0.18102683041E+03  0.12508233191E+03 0.  0.
          5    1    3    3  502    0 -0.42900981515E+02  0.48002312768E+02 -0.92710305441E+02  0.11294861390E+03  0.41800000000E+01 0.  1.
         -5    1    3    3    0  502  0.59495343309E+02  0.31228989603E+02 -0.10110662524E+02  0.68078216514E+02  0.41800000000E+01 0.  1.
        -11    1    1    2    0    0  0.72908549144E+01 -0.62500914972E+02 -0.78081187084E+02  0.10028056997E+03  0.00000000000E+00 0. -1.
         11    1    1    2    0    0 -0.23885216709E+02 -0.16730387399E+02  0.18443865719E+02  0.34504863750E+02  0.00000000000E+00 0.  1.
</event>
<event>
 7    1  0.2641580E-009  0.1036804E+03  0.7561462E-02  0.1272742E+00
         -3   -1    0    0    0  501 -0.00000000000E+00  0.00000000000E+00  0.10586800719E+04  0.10586800719E+04  0.00000000000E+00 0.  1.
          3   -1    0    0  501    0  0.00000000000E+00 -0.00000000000E+00 -0.15597125007E+02  0.15597125007E+02  0.00000000000E+00 0. -1.
         25    2    1    2    0    0  0.47940273782E+02  0.28888307578E+02  0.72899720953E+03  0.74176648327E+03  0.12509108696E+03 0.  0.
          5    1    3    3  502    0 -0.26250773758E+02  0.58399751549E+01  0.39940266873E+02  0.48331208867E+02  0.41800000000E+01 0.  1.
         -5    1    3    3    0  502  0.74191047540E+02  0.23048332423E+02  0.68905694266E+03  0.69343527441E+03  0.41800000000E+01 0.  1.
        -11    1    1    2    0    0 -0.41344235969E+02  0.24826818215E+02  0.91392496103E+02  0.10333588483E+03  0.00000000000E+00 0.  1.
         11    1    1    2    0    0 -0.65960378127E+01 -0.53715125792E+02  0.22269324127E+03  0.22917482881E+03  0.00000000000E+00 0. -1.
</event>
<event>
 7    1  0.2641580E-009  0.1769553E+03  0.7561462E-02  0.1170783E+00
         -2   -1    0    0    0  501 -0.00000000000E+00  0.00000000000E+00  0.28308529813E+02  0.28308529813E+02  0.00000000000E+00 0.  1.
          2   -1    0    0  501    0  0.00000000000E+00 -0.00000000000E+00 -0.14105460019E+04  0.14105460019E+04  0.00000000000E+00 0. -1.
         25    2    1    2    0    0  0.15731255385E+03 -0.46142676764E+02 -0.84445467172E+03  0.86926781885E+03  0.12508581886E+03 0.  0.
          5    1    3    3  502    0 -0.82187417433E+01 -0.50828722391E+01 -0.26531610870E+03  0.26552493902E+03  0.41800000000E+01 0.  1.
         -5    1    3    3    0  502  0.16553129559E+03 -0.41059804525E+02 -0.57913856303E+03  0.60374287984E+03  0.41800000000E+01 0.  1.
        -11    1    1    2    0    0 -0.47136358587E+02 -0.11385394609E+02 -0.67216493933E+02  0.82882570953E+02  0.00000000000E+00 0.  1.
         11    1    1    2    0    0 -0.11017619526E+03  0.57528071373E+02 -0.47056630639E+03  0.48670414186E+03  0.00000000000E+00 0. -1.
</event>
<event>
 7    1  0.2641580E-009  0.3142025E+03  0.7561462E-02  0.1078349E+00
          2   -1    0    0  501    0  0.00000000000E+00  0.00000000000E+00  0.66403545406E+03  0.66403545406E+03  0.00000000000E+00 0. -1.
         -2   -1    0    0    0  501 -0.00000000000E+00 -0.00000000000E+00 -0.16456452201E+03  0.16456452201E+03  0.00000000000E+00 0.  1.
         25    2    1    2    0    0 -0.30538684696E+03 -0.30406601839E+02  0.18867458860E+03  0.38135423017E+03  0.12508901134E+03 0.  0.
          5    1    3    3  502    0 -0.79909423658E+02 -0.29697600394E+02  0.11679613473E+03  0.14465916129E+03  0.41800000000E+01 0.  1.
         -5    1    3    3    0  502 -0.22547742330E+03 -0.70900144480E+00  0.71878453870E+02  0.23669506888E+03  0.41800000000E+01 0.  1.
        -11    1    1    2    0    0  0.96805253737E+02 -0.28287398880E+02  0.67031707581E+02  0.12109782784E+03  0.00000000000E+00 0.  1.
         11    1    1    2    0    0  0.20858159322E+03  0.58694000719E+02  0.24376463588E+03  0.32614791806E+03  0.00000000000E+00 0. -1.
</event>
<event>
 7    1  0.2641580E-009  0.7510704E+02  0.7561462E-02  0.1343540E+00
         -1   -1    0    0    0  501 -0.00000000000E+00  0.00000000000E+00  0.34925307480E+03  0.34925307480E+03  0.00000000000E+00 0.  1.
          1   -1    0    0  501    0  0.00000000000E+00 -0.00000000000E+00 -0.48150670079E+02  0.48150670079E+02  0.00000000000E+00 0. -1.
         25    2    1    2    0    0 -0.34528577082E+02 -0.57325460158E+02  0.21213029306E+03  0.25519609027E+03  0.12508937700E+03 0.  0.
          5    1    3    3  502    0  0.14858878718E+01 -0.38388846115E+02 -0.51975826746E+00  0.38647819052E+02  0.41800000000E+01 0.  1.
         -5    1    3    3    0  502 -0.36014464953E+02 -0.18936614042E+02  0.21265005133E+03  0.21654827122E+03  0.41800000000E+01 0.  1.
        -11    1    1    2    0    0  0.48768145737E+01  0.29836963061E+02  0.96460046395E+02  0.10108693405E+03  0.00000000000E+00 0.  1.
         11    1    1    2    0    0  0.29651762508E+02  0.27488497097E+02 -0.74879347386E+01  0.41120720557E+02  0.00000000000E+00 0. -1.
</event>
<event>
 7    1  0.2641580E-009  0.1052006E+03  0.7561462E-02  0.1269725E+00
          1   -1    0    0  501    0  0.00000000000E+00  0.00000000000E+00  0.81850067843E+03  0.81850067843E+03  0.00000000000E+00 0. -1.
         -1   -1    0    0    0  501 -0.00000000000E+00 -0.00000000000E+00 -0.21931660840E+02  0.21931660840E+02  0.00000000000E+00 0.  1.
         25    2    1    2    0    0  0.70574763301E+02  0.29998636409E+02  0.38895923448E+03  0.41571295054E+03  0.12508899137E+03 0.  0.
          5    1    3    3  502    0  0.54291395986E+02 -0.26393374070E+01  0.37074156373E+03  0.37472830325E+03  0.41800000000E+01 0.  1.
         -5    1    3    3    0  502  0.16283367315E+02  0.32637973816E+02  0.18217670744E+02  0.40984647288E+02  0.41800000000E+01 0.  1.
        -11    1    1    2    0    0 -0.20133611008E+01 -0.48194983666E+02  0.15420324768E+03  0.16157181582E+03  0.00000000000E+00 0. -1.
         11    1    1    2    0    0 -0.68561402200E+02  0.18196347257E+02  0.25340653543E+03  0.26314757290E+03  0.00000000000E+00 0.  1.
</event>
<event>
 7    1  0.2641580E-009  0.7077189E+02  0.7561462E-02  0.1357488E+00
         -2   -1    0    0    0  501 -0.00000000000E+00  0.00000000000E+00  0.49625064444E+03  0.49625064444E+03  0.00000000000E+00 0. -1.
          2   -1    0    0  501    0  0.00000000000E+00 -0.00000000000E+00 -0.35295453279E+02  0.35295453279E+02  0.00000000000E+00 0.  1.
         25    2    1    2    0    0 -0.35009896250E+02 -0.11258572339E+02  0.38988907548E+03  0.41111287097E+03  0.12509137945E+03 0.  0.
          5    1    3    3  502    0 -0.24862993256E+02 -0.43731832650E+02  0.55700035248E+02  0.75170525788E+02  0.41800000000E+01 0.  1.
         -5    1    3    3    0  502 -0.10146902994E+02  0.32473260311E+02  0.33418904023E+03  0.33594234518E+03  0.41800000000E+01 0.  1.
        -11    1    1    2    0    0  0.36454943353E+02  0.24206093737E+02  0.88465644717E+02  0.98696849818E+02  0.00000000000E+00 0. -1.
         11    1    1    2    0    0 -0.14450471029E+01 -0.12947521398E+02 -0.17399529034E+02  0.21736376931E+02  0.00000000000E+00 0.  1.
</event>
<event>
 7    1  0.2641580E-009  0.1757190E+03  0.7561462E-02  0.1172012E+00
         -1   -1    0    0    0  501 -0.00000000000E+00  0.00000000000E+00  0.53663084301E+02  0.53663084301E+02  0.00000000000E+00 0.  1.
          1   -1    0    0  501    0  0.00000000000E+00 -0.00000000000E+00 -0.80638091854E+03  0.80638091854E+03  0.00000000000E+00 0. -1.
         25    2    1    2    0    0  0.12113063381E+03 -0.77742903393E+02 -0.60683640511E+03  0.63608877858E+03  0.12506767045E+03 0.  0.
          5    1    3    3  502    0  0.74800654291E+02  0.19312813594E+02 -0.33280351129E+03  0.34167787780E+03  0.41800000000E+01 0.  1.
         -5    1    3    3    0  502  0.46329979521E+02 -0.97055716987E+02 -0.27403289382E+03  0.29441090078E+03  0.41800000000E+01 0.  1.
        -11    1    1    2    0    0 -0.80601729638E+02  0.21022116544E+01 -0.48219716130E+02  0.93947853292E+02  0.00000000000E+00 0. -1.
         11    1    1    2    0    0 -0.40528904174E+02  0.75640691739E+02 -0.97661712996E+02  0.13000737097E+03  0.00000000000E+00 0.  1.
</event>
<event>
 7    1  0.2641580E-009  0.1032872E+03  0.7561462E-02  0.1273531E+00
         -2   -1    0    0    0  501 -0.00000000000E+00  0.00000000000E+00  0.14953734286E+03  0.14953734286E+03  0.00000000000E+00 0.  1.
          2   -1    0    0  501    0  0.00000000000E+00 -0.00000000000E+00 -0.12312266036E+03  0.12312266036E+03  0.00000000000E+00 0. -1.
         25    2    1    2    0    0  0.27058367217E+02 -0.22120204687E+02 -0.58483461222E+02  0.14243966422E+03  0.12508910430E+03 0.  0.
          5    1    3    3  502    0 -0.37865053255E+02 -0.39666447450E+02 -0.50357484563E+02  0.74569014764E+02  0.41800000000E+01 0.  1.
         -5    1    3    3    0  502  0.64923420472E+02  0.17546242763E+02 -0.81259766587E+01  0.67870649456E+02  0.41800000000E+01 0.  1.
        -11    1    1    2    0    0 -0.54147479553E+02  0.14914030455E+02  0.20157239015E+02  0.59671535350E+02  0.00000000000E+00 0. -1.
         11    1    1    2    0    0  0.27089112336E+02  0.72061742326E+01  0.64740904706E+02  0.70548803650E+02  0.00000000000E+00 0.  1.
</event>
<event>
 7    1  0.2641580E-009  0.9495410E+02  0.7561462E-02  0.1291279E+00
          1   -1    0    0  501    0  0.00000000000E+00  0.00000000000E+00  0.73838924094E+02  0.73838924094E+02  0.00000000000E+00 0. -1.
         -1   -1    0    0    0  501 -0.00000000000E+00 -0.00000000000E+00 -0.20288654727E+03  0.20288654727E+03  0.00000000000E+00 0.  1.
         25    2    1    2    0    0 -0.53672587761E+02  0.19299891404E+02 -0.73323576070E+02  0.15582940771E+03  0.12511284912E+03 0.  0.
          5    1    3    3  502    0 -0.66208661301E+02  0.39142318048E+02  0.17648017924E+01  0.77047354392E+02  0.41800000000E+01 0.  1.
         -5    1    3    3    0  502  0.12536073540E+02 -0.19842426644E+02 -0.75088377862E+02  0.78782053317E+02  0.41800000000E+01 0.  1.
        -11    1    1    2    0    0  0.64072711405E+02 -0.32815399681E+02 -0.10735053842E+02  0.72783268572E+02  0.00000000000E+00 0. -1.
         11    1    1    2    0    0 -0.10400123643E+02  0.13515508278E+02 -0.44988993259E+02  0.48112795078E+02  0.00000000000E+00 0.  1.
</event>
<event>
 7    1  0.2641580E-009  0.1864303E+03  0.7561462E-02  0.1161721E+00
          3   -1    0    0  501    0  0.00000000000E+00  0.00000000000E+00  0.45129593361E+02  0.45129593361E+02  0.00000000000E+00 0. -1.
         -3   -1    0    0    0  501 -0.00000000000E+00 -0.00000000000E+00 -0.95590791493E+03  0.95590791493E+03  0.00000000000E+00 0.  1.
         25    2    1    2    0    0 -0.12644916017E+03  0.11001127900E+03 -0.33983099612E+03  0.39902856211E+03  0.12508723294E+03 0.  0.
          5    1    3    3  502    0 -0.13157993501E+02  0.54302747597E+02 -0.21214411439E+03  0.21941859279E+03  0.41800000000E+01 0. -1.
         -5    1    3    3    0  502 -0.11329116667E+03  0.55708531403E+02 -0.12768688173E+03  0.17960996933E+03  0.41800000000E+01 0. -1.
        -11    1    1    2    0    0  0.10498606791E+03 -0.32224130759E+02 -0.31062292170E+03  0.32946482140E+03  0.00000000000E+00 0. -1.
         11    1    1    2    0    0  0.21463092264E+02 -0.77787148241E+02 -0.26032440375E+03  0.27254412477E+03  0.00000000000E+00 0.  1.
</event>
<event>
 7    1  0.2641580E-009  0.1504692E+03  0.7561462E-02  0.1199898E+00
         -2   -1    0    0    0  501 -0.00000000000E+00  0.00000000000E+00  0.80326203737E+02  0.80326203737E+02  0.00000000000E+00 0.  1.
          2   -1    0    0  501    0  0.00000000000E+00 -0.00000000000E+00 -0.36629481717E+03  0.36629481717E+03  0.00000000000E+00 0. -1.
         25    2    1    2    0    0 -0.12757781034E+03 -0.32013377492E+02 -0.16672024503E+03  0.24645777857E+03  0.12507934476E+03 0.  0.
          5    1    3    3  502    0 -0.13729162954E+03 -0.20362661200E+02 -0.17896792926E+03  0.22651847963E+03  0.41800000000E+01 0. -1.
         -5    1    3    3    0  502  0.97138191925E+01 -0.11650716292E+02  0.12247684226E+02  0.19939298942E+02  0.41800000000E+01 0. -1.
        -11    1    1    2    0    0  0.10040030187E+02  0.26884380193E+02 -0.64097080009E+02  0.70228254786E+02  0.00000000000E+00 0. -1.
         11    1    1    2    0    0  0.11753778016E+03  0.51289972992E+01 -0.55151288390E+02  0.12993498755E+03  0.00000000000E+00 0.  1.
</event>
<event>
 7    1  0.2641580E-009  0.1108038E+03  0.7561462E-02  0.1259089E+00
         -3   -1    0    0    0  501 -0.00000000000E+00  0.00000000000E+00  0.18184555126E+03  0.18184555126E+03  0.00000000000E+00 0.  1.
          3   -1    0    0  501    0  0.00000000000E+00 -0.00000000000E+00 -0.81517250869E+02  0.81517250869E+02  0.00000000000E+00 0. -1.
         25    2    1    2    0    0 -0.21513642693E+02  0.15228059010E+02  0.39323018226E+01  0.12789906387E+03  0.12509187399E+03 0.  0.
          5    1    3    3  502    0 -0.72733766296E+02  0.21220273952E+02 -0.13350527955E+01  0.75893053385E+02  0.41800000000E+01 0.  1.
         -5    1    3    3    0  502  0.51220123603E+02 -0.59922149420E+01  0.52673546180E+01  0.52006010484E+02  0.41800000000E+01 0.  1.
        -11    1    1    2    0    0  0.29411271395E+02 -0.50174904354E+02  0.69732130595E+02  0.90802609816E+02  0.00000000000E+00 0. -1.
         11    1    1    2    0    0 -0.78976287018E+01  0.34946845344E+02  0.26663867972E+02  0.44661128443E+02  0.00000000000E+00 0.  1.
</event>
<event>
 7    1  0.2641580E-009  0.1028386E+03  0.7561462E-02  0.1274437E+00
          2   -1    0    0  501    0  0.00000000000E+00  0.00000000000E+00  0.47293766300E+03  0.47293766300E+03  0.00000000000E+00 0. -1.
         -2   -1    0    0    0  501 -0.00000000000E+00 -0.00000000000E+00 -0.25986029001E+02  0.25986029001E+02  0.00000000000E+00 0.  1.
         25    2    1    2    0    0  0.63189036832E+01 -0.11255928668E+02  0.17679922928E+03  0.21696064141E+03  0.12508928000E+03 0.  0.
          5    1    3    3  502    0 -0.21120284300E+02  0.52214555300E+02  0.79669004359E+02  0.97657815098E+02  0.41800000000E+01 0. -1.
         -5    1    3    3    0  502  0.27439187983E+02 -0.63470483968E+02  0.97130224919E+02  0.11930282631E+03  0.41800000000E+01 0. -1.
        -11    1    1    2    0    0 -0.41976355563E+02 -0.16345997162E+01  0.16195772640E+03  0.16731703883E+03  0.00000000000E+00 0.  1.
         11    1    1    2    0    0  0.35657451880E+02  0.12890528384E+02  0.10819467832E+03  0.11464601177E+03  0.00000000000E+00 0. -1.
</event>
<event>
 7    1  0.2641580E-009  0.1600310E+03  0.7561462E-02  0.1188662E+00
          2   -1    0    0  501    0  0.00000000000E+00  0.00000000000E+00  0.13976398984E+04  0.13976398984E+04  0.00000000000E+00 0. -1.
         -2   -1    0    0    0  501 -0.00000000000E+00 -0.00000000000E+00 -0.19034434656E+02  0.19034434656E+02  0.00000000000E+00 0.  1.
         25    2    1    2    0    0  0.85755404021E+02 -0.81446492734E+02  0.86441148935E+03  0.88138657159E+03  0.12509014816E+03 0.  0.
          5    1    3    3  502    0  0.11021006020E+03 -0.93146833057E+02  0.74600530817E+03  0.75984470920E+03  0.41800000000E+01 0. -1.
         -5    1    3    3    0  502 -0.24454656183E+02  0.11700340323E+02  0.11840618118E+03  0.12154186239E+03  0.41800000000E+01 0. -1.
        -11    1    1    2    0    0 -0.46849589869E+02 -0.10867721226E+02  0.18826383876E+03  0.19430971262E+03  0.00000000000E+00 0.  1.
         11    1    1    2    0    0 -0.38905814152E+02  0.92314213960E+02  0.32593013559E+03  0.34097804880E+03  0.00000000000E+00 0. -1.
</event>
<event>
 7    1  0.2641580E-009  0.1662065E+03  0.7561462E-02  0.1181863E+00
         -2   -1    0    0    0  501 -0.00000000000E+00  0.00000000000E+00  0.30417252695E+02  0.30417252695E+02  0.00000000000E+00 0.  1.
          2   -1    0    0  501    0  0.00000000000E+00 -0.00000000000E+00 -0.13679996867E+04  0.13679996867E+04  0.00000000000E+00 0. -1.
         25    2    1    2    0    0 -0.15845972736E+02  0.12814734406E+03 -0.10723325813E+04  0.10872984373E+04  0.12509152735E+03 0.  0.
          5    1    3    3  502    0  0.53207716583E+02  0.44706544342E+02 -0.49596078309E+03  0.50082362861E+03  0.41800000000E+01 0. -1.
         -5    1    3    3    0  502 -0.69053689319E+02  0.83440799715E+02 -0.57637179824E+03  0.58647480873E+03  0.41800000000E+01 0. -1.
        -11    1    1    2    0    0 -0.34194813581E+02 -0.36722084876E+02 -0.13674841048E+03  0.14566373798E+03  0.00000000000E+00 0.  1.
         11    1    1    2    0    0  0.50040786316E+02 -0.91425259182E+02 -0.12850144222E+03  0.16545476410E+03  0.00000000000E+00 0. -1.
</event>
<event>
 7    1  0.2641580E-009  0.9808456E+02  0.7561462E-02  0.1284376E+00
         -1   -1    0    0    0  501 -0.00000000000E+00  0.00000000000E+00  0.11452710892E+03  0.11452710892E+03  0.00000000000E+00 0.  1.
          1   -1    0    0  501    0  0.00000000000E+00 -0.00000000000E+00 -0.11960384370E+03  0.11960384370E+03  0.00000000000E+00 0. -1.
         25    2    1    2    0    0  0.14631742230E+02 -0.41327848578E+02 -0.11411889069E+02  0.13304037001E+03  0.12508968739E+03 0.  0.
          5    1    3    3  502    0 -0.19577797998E+02 -0.75735783752E+02 -0.25433479620E+02  0.82362208570E+02  0.41800000000E+01 0.  1.
         -5    1    3    3    0  502  0.34209540228E+02  0.34407935174E+02  0.14021590551E+02  0.50678161442E+02  0.41800000000E+01 0.  1.
        -11    1    1    2    0    0 -0.24470878583E+02 -0.21405958958E+01  0.38820692356E+02  0.45939658297E+02  0.00000000000E+00 0.  1.
         11    1    1    2    0    0  0.98391363530E+01  0.43468444474E+02 -0.32485538065E+02  0.55150924312E+02  0.00000000000E+00 0. -1.
</event>
<event>
 7    1  0.2641580E-009  0.1203863E+03  0.7561462E-02  0.1242461E+00
          1   -1    0    0  501    0  0.00000000000E+00  0.00000000000E+00  0.44661552495E+03  0.44661552495E+03  0.00000000000E+00 0.  1.
         -1   -1    0    0    0  501 -0.00000000000E+00 -0.00000000000E+00 -0.55736323320E+02  0.55736323320E+02  0.00000000000E+00 0. -1.
         25    2    1    2    0    0 -0.10343643596E+03  0.38018881344E+01  0.13035843017E+03  0.20821658659E+03  0.12508907217E+03 0.  0.
          5    1    3    3  502    0  0.38039061067E+01  0.23440760729E+02  0.87891924688E+02  0.91139463409E+02  0.41800000000E+01 0. -1.
         -5    1    3    3    0  502 -0.10724034207E+03 -0.19638872595E+02  0.42466505483E+02  0.11707712318E+03  0.41800000000E+01 0. -1.
        -11    1    1    2    0    0  0.66782063633E+02  0.11627678921E+02  0.62639228684E+02  0.92296911705E+02  0.00000000000E+00 0. -1.
         11    1    1    2    0    0  0.36654372330E+02 -0.15429567055E+02  0.19788154277E+03  0.20183834997E+03  0.00000000000E+00 0.  1.
</event>
<event>
 7    1  0.2641580E-009  0.3960723E+03  0.7561462E-02  0.1045148E+00
         -1   -1    0    0    0  501 -0.00000000000E+00  0.00000000000E+00  0.22519589018E+03  0.22519589018E+03  0.00000000000E+00 0.  1.
          1   -1    0    0  501    0  0.00000000000E+00 -0.00000000000E+00 -0.86752999992E+03  0.86752999992E+03  0.00000000000E+00 0. -1.
         25    2    1    2    0    0 -0.11821507017E+03  0.36500137135E+03 -0.56071045563E+03  0.69082896066E+03  0.12509050297E+03 0.  0.
          5    1    3    3  502    0 -0.75837009345E+02  0.70486056004E+02 -0.17901314387E+03  0.20683982730E+03  0.41800000000E+01 0.  1.
         -5    1    3    3    0  502 -0.42378060824E+02  0.29451531534E+03 -0.38169731176E+03  0.48398913336E+03  0.41800000000E+01 0.  1.
        -11    1    1    2    0    0  0.12910069699E+03 -0.33334700746E+03 -0.87216404765E+02  0.36795912627E+03  0.00000000000E+00 0.  1.
         11    1    1    2    0    0 -0.10885626823E+02 -0.31654363890E+02  0.55927506483E+01  0.33937803176E+02  0.00000000000E+00 0. -1.
</event>
<event>
 7    1  0.2641580E-009  0.8054708E+02  0.7561462E-02  0.1327506E+00
          3   -1    0    0  501    0  0.00000000000E+00  0.00000000000E+00  0.11496690352E+03  0.11496690352E+03  0.00000000000E+00 0. -1.
         -3   -1    0    0    0  501 -0.00000000000E+00 -0.00000000000E+00 -0.11734242144E+03  0.11734242144E+03  0.00000000000E+00 0.  1.
         25    2    1    2    0    0 -0.13470899376E+02  0.35055136760E+02  0.49333257444E+01  0.13069243172E+03  0.12508335725E+03 0.  0.
          5    1    3    3  502    0 -0.62573705489E+01 -0.41250906576E+02  0.28142627886E+02  0.50500216672E+02  0.41800000000E+01 0.  1.
         -5    1    3    3    0  502 -0.72135288275E+01  0.76306043336E+02 -0.23209302142E+02  0.80192215044E+02  0.41800000000E+01 0.  1.
        -11    1    1    2    0    0  0.12410800434E+02 -0.68469039108E+01 -0.49144978399E+02  0.51148186306E+02  0.00000000000E+00 0.  1.
         11    1    1    2    0    0  0.10600989426E+01 -0.28208232849E+02  0.41836134737E+02  0.50468706937E+02  0.00000000000E+00 0. -1.
</event>
<event>
 7    1  0.2641580E-009  0.1598977E+03  0.7561462E-02  0.1188812E+00
         -1   -1    0    0    0  501 -0.00000000000E+00  0.00000000000E+00  0.15272582035E+03  0.15272582035E+03  0.00000000000E+00 0.  1.
          1   -1    0    0  501    0  0.00000000000E+00 -0.00000000000E+00 -0.27731368023E+03  0.27731368023E+03  0.00000000000E+00 0. -1.
         25    2    1    2    0    0 -0.82036994472E+02 -0.10659891184E+03  0.51743161938E+02  0.19083408092E+03  0.12508755000E+03 0.  0.
          5    1    3    3  502    0 -0.62141312355E+02  0.11305972047E+02  0.98187225681E+01  0.64056595429E+02  0.41800000000E+01 0. -1.
         -5    1    3    3    0  502 -0.19895682117E+02 -0.11790488388E+03  0.41924439370E+02  0.12677748549E+03  0.41800000000E+01 0. -1.
        -11    1    1    2    0    0  0.32721201000E+01  0.18033204556E+02 -0.91836557513E+02  0.93647512152E+02  0.00000000000E+00 0. -1.
         11    1    1    2    0    0  0.78764874372E+02  0.88565707279E+02 -0.84494464308E+02  0.14555790751E+03  0.00000000000E+00 0.  1.
</event>
<event>
 7    1  0.2641580E-009  0.1704922E+03  0.7561462E-02  0.1177336E+00
          2   -1    0    0  501    0  0.00000000000E+00  0.00000000000E+00  0.68294672532E+03  0.68294672532E+03  0.00000000000E+00 0. -1.
         -2   -1    0    0    0  501 -0.00000000000E+00 -0.00000000000E+00 -0.43462687951E+02  0.43462687951E+02  0.00000000000E+00 0.  1.
         25    2    1    2    0    0  0.89979066480E+02 -0.94510726717E+02  0.28734038249E+03  0.33947029197E+03  0.12508826423E+03 0.  0.
          5    1    3    3  502    0  0.27485982705E+02 -0.11217415699E+03  0.17783713845E+03  0.21208970025E+03  0.41800000000E+01 0.  1.
         -5    1    3    3    0  502  0.62493083775E+02  0.17663430277E+02  0.10950324404E+03  0.12738059171E+03  0.41800000000E+01 0.  1.
        -11    1    1    2    0    0 -0.65633601163E+02  0.11237906736E+03  0.28839483609E+03  0.31639912431E+03  0.00000000000E+00 0. -1.
         11    1    1    2    0    0 -0.24345465317E+02 -0.17868340642E+02  0.63748818791E+02  0.70539996995E+02  0.00000000000E+00 0.  1.
</event>
<event>
 7    1  0.2641580E-009  0.1055960E+03  0.7561462E-02  0.1268950E+00
          1   -1    0    0  501    0  0.00000000000E+00  0.00000000000E+00  0.23719900887E+03  0.23719900887E+03  0.00000000000E+00 0. -1.
         -1   -1    0    0    0  501 -0.00000000000E+00 -0.00000000000E+00 -0.77737804860E+02  0.77737804860E+02  0.00000000000E+00 0.  1.
         25    2    1    2    0    0 -0.27615151268E+02 -0.54012638047E+02  0.22980209539E+02  0.14091043386E+03  0.12509076182E+03 0.  0.
          5    1    3    3  502    0 -0.73742833258E+02 -0.48479081594E+02  0.30898433223E+02  0.93597074660E+02  0.41800000000E+01 0. -1.
         -5    1    3    3    0  502  0.46127681990E+02 -0.55335564526E+01 -0.79182236835E+01  0.47313359203E+02  0.41800000000E+01 0. -1.
        -11    1    1    2    0    0  0.71507333006E+01  0.55234183485E+02  0.25654445023E+02  0.61319642542E+02  0.00000000000E+00 0.  1.
         11    1    1    2    0    0  0.20464417968E+02 -0.12215454384E+01  0.11082654945E+03  0.11270673733E+03  0.00000000000E+00 0. -1.
</event>
<event>
 7    1  0.2641580E-009  0.1198851E+03  0.7561462E-02  0.1243287E+00
          2   -1    0    0  501    0  0.00000000000E+00  0.00000000000E+00  0.99268530859E+03  0.99268530859E+03  0.00000000000E+00 0. -1.
         -2   -1    0    0    0  501 -0.00000000000E+00 -0.00000000000E+00 -0.19915400310E+02  0.19915400310E+02  0.00000000000E+00 0.  1.
         25    2    1    2    0    0  0.77625164752E+02  0.31003303830E+02  0.65322080814E+03  0.67032156215E+03  0.12508677564E+03 0.  0.
          5    1    3    3  502    0  0.55818296405E+02  0.79204260343E+02  0.39868894528E+03  0.41031615196E+03  0.41800000000E+01 0. -1.
         -5    1    3    3    0  502  0.21806868347E+02 -0.48200956513E+02  0.25453186286E+03  0.26000541018E+03  0.41800000000E+01 0. -1.
        -11    1    1    2    0    0 -0.22105985967E+02 -0.25764416093E+02  0.24148515597E+02  0.41660899627E+02  0.00000000000E+00 0.  1.
         11    1    1    2    0    0 -0.55519178785E+02 -0.52388877374E+01  0.29540058454E+03  0.30061824712E+03  0.00000000000E+00 0. -1.
</event>
<event>
 7    1  0.2641580E-009  0.1195111E+03  0.7561462E-02  0.1243906E+00
          2   -1    0    0  501    0  0.00000000000E+00  0.00000000000E+00  0.15359520281E+03  0.15359520281E+03  0.00000000000E+00 0. -1.
         -2   -1    0    0    0  501 -0.00000000000E+00 -0.00000000000E+00 -0.14586821234E+03  0.14586821234E+03  0.00000000000E+00 0.  1.
         25    2    1    2    0    0 -0.28469336557E+02 -0.87849812693E+02 -0.45357977548E+02  0.16196612158E+03  0.12509031017E+03 0.  0.
          5    1    3    3  502    0 -0.60575332163E+02 -0.15539648081E+02  0.12436969786E+02  0.63898373584E+02  0.41800000000E+01 0. -1.
         -5    1    3    3    0  502  0.32105995606E+02 -0.72310164612E+02 -0.57794947334E+02  0.98067747998E+02  0.41800000000E+01 0. -1.
        -11    1    1    2    0    0  0.28063669708E+02  0.37861408419E+02  0.70291987580E+02  0.84628714530E+02  0.00000000000E+00 0. -1.
         11    1    1    2    0    0  0.40566684867E+00  0.49988404274E+02 -0.17207019568E+02  0.52868579042E+02  0.00000000000E+00 0.  1.
</event>
<event>
 7    1  0.2641580E-009  0.1827962E+03  0.7561462E-02  0.1165124E+00
         -1   -1    0    0    0  501 -0.00000000000E+00  0.00000000000E+00  0.54147046049E+02  0.54147046049E+02  0.00000000000E+00 0.  1.
          1   -1    0    0  501    0  0.00000000000E+00 -0.00000000000E+00 -0.80291874564E+03  0.80291874564E+03  0.00000000000E+00 0. -1.
         25    2    1    2    0    0  0.15799948444E+03 -0.53211990553E+02 -0.26080976635E+03  0.33386227088E+03  0.12508768393E+03 0.  0.
          5    1    3    3  502    0  0.90205395632E+01 -0.26355360438E+02 -0.13224269515E+03  0.13520938569E+03  0.41800000000E+01 0.  1.
         -5    1    3    3    0  502  0.14897894488E+03 -0.26856630114E+02 -0.12856707120E+03  0.19865288519E+03  0.41800000000E+01 0.  1.
        -11    1    1    2    0    0 -0.70485815842E+02  0.67170946885E+02 -0.21038521175E+03  0.23182347522E+03  0.00000000000E+00 0.  1.
         11    1    1    2    0    0 -0.87513668597E+02 -0.13958956333E+02 -0.27757672150E+03  0.29138004559E+03  0.00000000000E+00 0. -1.
</event>
<event>
 7    1  0.2641580E-009  0.1079821E+03  0.7561462E-02  0.1264353E+00
          1   -1    0    0  501    0  0.00000000000E+00  0.00000000000E+00  0.50745348919E+03  0.50745348919E+03  0.00000000000E+00 0. -1.
         -1   -1    0    0    0  501 -0.00000000000E+00 -0.00000000000E+00 -0.45042979142E+02  0.45042979142E+02  0.00000000000E+00 0.  1.
         25    2    1    2    0    0  0.61242094106E+02  0.10504399938E+01  0.10293453663E+03  0.17318964034E+03  0.12508970850E+03 0.  0.
          5    1    3    3  502    0  0.59949829593E+02  0.37412962942E+02  0.77629199682E+01  0.71214094046E+02  0.41800000000E+01 0. -1.
         -5    1    3    3    0  502  0.12922645137E+01 -0.36362522949E+02  0.95171616663E+02  0.10197554629E+03  0.41800000000E+01 0. -1.
        -11    1    1    2    0    0 -0.84590536417E+02 -0.55473423521E+01  0.33343928591E+03  0.34404663818E+03  0.00000000000E+00 0.  1.
         11    1    1    2    0    0  0.23348442311E+02  0.44969023583E+01  0.26036687503E+02  0.35260189808E+02  0.00000000000E+00 0. -1.
</event>
<event>
 7    1  0.2641580E-009  0.9781910E+02  0.7561462E-02  0.1284950E+00
          2   -1    0    0  501    0  0.00000000000E+00  0.00000000000E+00  0.24789371522E+03  0.24789371522E+03  0.00000000000E+00 0. -1.
         -2   -1    0    0    0  501 -0.00000000000E+00 -0.00000000000E+00 -0.71156385450E+02  0.71156385450E+02  0.00000000000E+00 0.  1.
         25    2    1    2    0    0 -0.29966474972E+02 -0.68958908010E+02  0.10591787531E+03  0.18033266939E+03  0.12509178518E+03 0.  0.
          5    1    3    3  502    0 -0.19949108400E+02 -0.31983808907E+02  0.12964482102E+03  0.13507843268E+03  0.41800000000E+01 0.  1.
         -5    1    3    3    0  502 -0.10017366572E+02 -0.36975099103E+02 -0.23726945710E+02  0.45254236702E+02  0.41800000000E+01 0.  1.
        -11    1    1    2    0    0 -0.19417824943E+02  0.66995942181E+02  0.44252454620E+02  0.82606222127E+02  0.00000000000E+00 0. -1.
         11    1    1    2    0    0  0.49384299915E+02  0.19629658292E+01  0.26566999838E+02  0.56111209160E+02  0.00000000000E+00 0.  1.
</event>
<event>
 7    1  0.2641580E-009  0.9561332E+02  0.7561462E-02  0.1289801E+00
          1   -1    0    0  501    0  0.00000000000E+00  0.00000000000E+00  0.39637807037E+02  0.39637807037E+02  0.00000000000E+00 0. -1.
         -1   -1    0    0    0  501 -0.00000000000E+00 -0.00000000000E+00 -0.33773340498E+03  0.33773340498E+03  0.00000000000E+00 0.  1.
         25    2    1    2    0    0  0.43610881994E+01  0.37538322841E+02 -0.13247441447E+03  0.18606797292E+03  0.12507467883E+03 0.  0.
          5    1    3    3  502    0 -0.45035411836E+02 -0.24139311654E+02 -0.46396132684E+02  0.69144545804E+02  0.41800000000E+01 0. -1.
         -5    1    3    3    0  502  0.49396500036E+02  0.61677634495E+02 -0.86078281785E+02  0.11692342711E+03  0.41800000000E+01 0. -1.
        -11    1    1    2    0    0 -0.24898571548E+02 -0.10867813414E+02 -0.15293692359E+03  0.15533110065E+03  0.00000000000E+00 0.  1.
         11    1    1    2    0    0  0.20537483348E+02 -0.26670509427E+02 -0.12684259881E+02  0.35972138442E+02  0.00000000000E+00 0. -1.
</event>
<event>
 7    1  0.2945279E-009  0.1033624E+03  0.7561462E-02  0.1273380E+00
          1   -1    0    0  501    0  0.00000000000E+00  0.00000000000E+00  0.60040427289E+03  0.60040427289E+03  0.00000000000E+00 0. -1.
         -1   -1    0    0    0  501 -0.00000000000E+00 -0.00000000000E+00 -0.23980030160E+02  0.23980030160E+02  0.00000000000E+00 0.  1.
         25    2    1    2    0    0  0.26771171421E+02 -0.25807782791E+02  0.23398761254E+03  0.26791875772E+03  0.12509005013E+03 0.  0.
          5    1    3    3  502    0  0.71108345651E+02 -0.18884040461E+02  0.19452215611E+03  0.20801284918E+03  0.41800000000E+01 0.  1.
         -5    1    3    3    0  502 -0.44337174230E+02 -0.69237423303E+01  0.39465456436E+02  0.59905908542E+02  0.41800000000E+01 0.  1.
        -11    1    1    2    0    0  0.66911320454E+00  0.50826300605E+02  0.27330918580E+03  0.27799581217E+03  0.00000000000E+00 0. -1.
         11    1    1    2    0    0 -0.27440284626E+02 -0.25018517814E+02  0.69127444388E+02  0.78469733156E+02  0.00000000000E+00 0.  1.
</event>
<event>
 7    1  0.2641580E-009  0.1556114E+03  0.7561462E-02  0.1193742E+00
         -2   -1    0    0    0  501 -0.00000000000E+00  0.00000000000E+00  0.17545454347E+02  0.17545454347E+02  0.00000000000E+00 0.  1.
          2   -1    0    0  501    0  0.00000000000E+00 -0.00000000000E+00 -0.14459972273E+04  0.14459972273E+04  0.00000000000E+00 0. -1.
         25    2    1    2    0    0 -0.11273369271E+03  0.26942975326E+02 -0.81065139755E+03  0.82839509812E+03  0.12509172974E+03 0.  0.
          5    1    3    3  502    0 -0.46251045766E+02  0.70517737085E+02 -0.30315452116E+03  0.31469357569E+03  0.41800000000E+01 0.  1.
         -5    1    3    3    0  502 -0.66482646949E+02 -0.43574761759E+02 -0.50749687639E+03  0.51370152243E+03  0.41800000000E+01 0.  1.
        -11    1    1    2    0    0  0.94836936337E+02 -0.58126522218E+02 -0.45075012349E+03  0.46427191484E+03  0.00000000000E+00 0.  1.
         11    1    1    2    0    0  0.17896756377E+02  0.31183546893E+02 -0.16705025191E+03  0.17087566868E+03  0.00000000000E+00 0. -1.
</event>
<event>
 7    1  0.2641580E-009  0.1425779E+03  0.7561462E-02  0.1209902E+00
          1   -1    0    0  501    0  0.00000000000E+00  0.00000000000E+00  0.91839537544E+03  0.91839537544E+03  0.00000000000E+00 0. -1.
         -1   -1    0    0    0  501 -0.00000000000E+00 -0.00000000000E+00 -0.31962006609E+02  0.31962006609E+02  0.00000000000E+00 0.  1.
         25    2    1    2    0    0 -0.25252889099E+02 -0.12297121794E+03  0.59162231733E+03  0.61759462462E+03  0.12508607096E+03 0.  0.
          5    1    3    3  502    0  0.17031457345E+02 -0.10163558523E+03  0.52903900602E+03  0.53899870595E+03  0.41800000000E+01 0. -1.
         -5    1    3    3    0  502 -0.42284346445E+02 -0.21335632708E+02  0.62583311313E+02  0.78595918674E+02  0.41800000000E+01 0. -1.
        -11    1    1    2    0    0  0.15180825522E+02  0.48711557236E+01  0.10351302120E+01  0.15976768014E+02  0.00000000000E+00 0.  1.
         11    1    1    2    0    0  0.10072063578E+02  0.11810006222E+03  0.29377592129E+03  0.31678598942E+03  0.00000000000E+00 0. -1.
</event>
<event>
 7    1  0.2641580E-009  0.1104934E+03  0.7561462E-02  0.1259659E+00
         -3   -1    0    0    0  501 -0.00000000000E+00  0.00000000000E+00  0.80531369986E+03  0.80531369986E+03  0.00000000000E+00 0. -1.
          3   -1    0    0  501    0  0.00000000000E+00 -0.00000000000E+00 -0.27656102449E+02  0.27656102449E+02  0.00000000000E+00 0.  1.
         25    2    1    2    0    0  0.49074277349E+02 -0.78978191687E+02  0.53103143315E+03  0.55343271864E+03  0.12509017392E+03 0.  0.
          5    1    3    3  502    0  0.96148322844E+01 -0.34111527661E+02  0.45614798247E+03  0.45754179659E+03  0.41800000000E+01 0. -1.
         -5    1    3    3    0  502  0.39459445065E+02 -0.44866664026E+02  0.74883450683E+02  0.95890922052E+02  0.41800000000E+01 0. -1.
        -11    1    1    2    0    0 -0.43472997127E+02 -0.26788495310E+01  0.48593479443E+02  0.65256447639E+02  0.00000000000E+00 0. -1.
         11    1    1    2    0    0 -0.56012802216E+01  0.81657041218E+02  0.19803268482E+03  0.21428063603E+03  0.00000000000E+00 0.  1.
</event>
<event>
 6    1  0.2641580E-009  0.9926882E+02  0.7561462E-02  0.1281841E+00
          2   -1    0    0  501    0  0.00000000000E+00  0.00000000000E+00  0.17919341807E+03  0.17919341807E+03  0.00000000000E+00 0. -1.
         -2   -1    0    0    0  501 -0.00000000000E+00 -0.00000000000E+00 -0.10344270184E+03  0.10344270184E+03  0.00000000000E+00 0.  1.
          5    1    1    2  502    0  0.17340146556E+02 -0.12588047691E+02  0.50341891015E+02  0.54871832649E+02  0.41800000000E+01 0. -1.
         -5    1    1    2    0  502 -0.40976868822E+02 -0.49152164069E+02 -0.58798791869E+02  0.87004651234E+02  0.41800000000E+01 0. -1.
        -11    1    1    2    0    0 -0.54171309030E+01 -0.22669299910E+02  0.13996390496E+02  0.27187155286E+02  0.00000000000E+00 0.  1.
         11    1    1    2    0    0  0.29053853169E+02  0.84409511670E+02  0.70211226581E+02  0.11357248074E+03  0.00000000000E+00 0. -1.
</event>
<event>
 7    1  0.2641580E-009  0.1530177E+03  0.7561462E-02  0.1196813E+00
         -2   -1    0    0    0  501 -0.00000000000E+00  0.00000000000E+00  0.50099515641E+02  0.50099515641E+02  0.00000000000E+00 0.  1.
          2   -1    0    0  501    0  0.00000000000E+00 -0.00000000000E+00 -0.58152838266E+03  0.58152838266E+03  0.00000000000E+00 0. -1.
         25    2    1    2    0    0 -0.12640161473E+03  0.24607290848E+02 -0.23664959662E+03  0.29704155997E+03  0.12509104603E+03 0.  0.
          5    1    3    3  502    0 -0.13459995846E+03  0.31241239294E+02 -0.24610494529E+03  0.28227341417E+03  0.41800000000E+01 0.  1.
         -5    1    3    3    0  502  0.81983437311E+01 -0.66339484456E+01  0.94553486668E+01  0.14768145798E+02  0.41800000000E+01 0.  1.
        -11    1    1    2    0    0  0.11040181999E+03  0.17155741869E+02 -0.23205490971E+03  0.25755069881E+03  0.00000000000E+00 0.  1.
         11    1    1    2    0    0  0.15999794739E+02 -0.41763032717E+02 -0.62724360691E+02  0.77035639528E+02  0.00000000000E+00 0. -1.
</event>
<event>
 7    1  0.2641580E-009  0.1298697E+03  0.7561462E-02  0.1227649E+00
          2   -1    0    0  501    0  0.00000000000E+00  0.00000000000E+00  0.66550282640E+03  0.66550282640E+03  0.00000000000E+00 0. -1.
         -2   -1    0    0    0  501 -0.00000000000E+00 -0.00000000000E+00 -0.45115119987E+02  0.45115119987E+02  0.00000000000E+00 0.  1.
         25    2    1    2    0    0  0.99264613357E+02 -0.54035885279E+02  0.47735074929E+03  0.50624564946E+03  0.12509028495E+03 0.  0.
          5    1    3    3  502    0  0.89148856555E+02 -0.47096978182E+02  0.48202070941E+03  0.49247038558E+03  0.41800000000E+01 0.  1.
         -5    1    3    3    0  502  0.10115756802E+02 -0.69389070975E+01 -0.46699601191E+01  0.13775263878E+02  0.41800000000E+01 0.  1.
        -11    1    1    2    0    0 -0.76451511061E+02 -0.10731230772E+02  0.79578916559E+02  0.11087288586E+03  0.00000000000E+00 0.  1.
         11    1    1    2    0    0 -0.22813102296E+02  0.64767116051E+02  0.63458040568E+02  0.93499411071E+02  0.00000000000E+00 0. -1.
</event>
<event>
 7    1  0.2641580E-009  0.5430175E+02  0.7561462E-02  0.1423430E+00
         -1   -1    0    0    0  501 -0.00000000000E+00  0.00000000000E+00  0.46717589813E+02  0.46717589813E+02  0.00000000000E+00 0.  1.
          1   -1    0    0  501    0  0.00000000000E+00 -0.00000000000E+00 -0.29150644118E+03  0.29150644118E+03  0.00000000000E+00 0. -1.
         25    2    1    2    0    0  0.23155165726E+02  0.14489549049E+02 -0.14577343825E+03  0.19401978008E+03  0.12509065125E+03 0.  0.
          5    1    3    3  502    0  0.26729713403E+02  0.30065452789E+01  0.16113583070E+02  0.31632844521E+02  0.41800000000E+01 0. -1.
         -5    1    3    3    0  502 -0.35745476772E+01  0.11483003770E+02 -0.16188702132E+03  0.16238693556E+03  0.41800000000E+01 0. -1.
        -11    1    1    2    0    0  0.24448752450E-01 -0.36609658732E+02  0.35208291961E+01  0.36778580022E+02  0.00000000000E+00 0.  1.
         11    1    1    2    0    0 -0.23179614478E+02  0.22120109683E+02 -0.10253624231E+03  0.10742567089E+03  0.00000000000E+00 0. -1.
</event>
<event>
 7    1  0.2641580E-009  0.1520166E+03  0.7561462E-02  0.1198017E+00
          3   -1    0    0  501    0  0.00000000000E+00  0.00000000000E+00  0.10490525472E+03  0.10490525472E+03  0.00000000000E+00 0. -1.
         -3   -1    0    0    0  501 -0.00000000000E+00 -0.00000000000E+00 -0.27053799318E+03  0.27053799318E+03  0.00000000000E+00 0.  1.
         25    2    1    2    0    0 -0.27108248557E+02 -0.12491120692E+03 -0.82398032476E+02  0.19691429559E+03  0.12509251495E+03 0.  0.
          5    1    3    3  502    0 -0.27837195799E+02  0.15562605680E+02 -0.37442890425E+02  0.49361387833E+02  0.41800000000E+01 0. -1.
         -5    1    3    3    0  502  0.72894724211E+00 -0.14047381260E+03 -0.44955142051E+02  0.14755290775E+03  0.41800000000E+01 0. -1.
        -11    1    1    2    0    0  0.16276865138E+02  0.11646040759E+03 -0.10173014685E+03  0.15548950335E+03  0.00000000000E+00 0.  1.
         11    1    1    2    0    0  0.10831383419E+02  0.84507993261E+01  0.18495440863E+02  0.23039448968E+02  0.00000000000E+00 0. -1.
</event>
<event>
 7    1  0.2641580E-009  0.1167918E+03  0.7561462E-02  0.1248485E+00
         -2   -1    0    0    0  501 -0.00000000000E+00  0.00000000000E+00  0.55109815267E+02  0.55109815267E+02  0.00000000000E+00 0.  1.
          2   -1    0    0  501    0  0.00000000000E+00 -0.00000000000E+00 -0.31399484190E+03  0.31399484190E+03  0.00000000000E+00 0. -1.
         25    2    1    2    0    0  0.10606621623E+02  0.30163462620E+02 -0.17994479721E+03  0.22146905681E+03  0.12508428431E+03 0.  0.
          5    1    3    3  502    0  0.51445950318E+02 -0.26846084504E+02 -0.70351515868E+02  0.91291873911E+02  0.41800000000E+01 0. -1.
         -5    1    3    3    0  502 -0.40839328694E+02  0.57009547123E+02 -0.10959328135E+03  0.13017718290E+03  0.41800000000E+01 0. -1.
        -11    1    1    2    0    0 -0.44102857567E+02  0.17032075386E+02  0.29380437285E+01  0.47368615543E+02  0.00000000000E+00 0.  1.
         11    1    1    2    0    0  0.33496235943E+02 -0.47195538005E+02 -0.81878273148E+02  0.10026698481E+03  0.00000000000E+00 0. -1.
</event>
<event>
 7    1  0.2641580E-009  0.8870671E+02  0.7561462E-02  0.1306014E+00
          2   -1    0    0  501    0  0.00000000000E+00  0.00000000000E+00  0.45673241932E+02  0.45673241932E+02  0.00000000000E+00 0. -1.
         -2   -1    0    0    0  501 -0.00000000000E+00 -0.00000000000E+00 -0.42365045860E+03  0.42365045860E+03  0.00000000000E+00 0.  1.
         25    2    1    2    0    0  0.23336146095E+02 -0.39693047092E+02 -0.81156472206E+02  0.15606004298E+03  0.12509296676E+03 0.  0.
          5    1    3    3  502    0  0.40015999546E+02 -0.46019955892E+01  0.21761599892E+02  0.45972798620E+02  0.41800000000E+01 0. -1.
         -5    1    3    3    0  502 -0.16679853451E+02 -0.35091051503E+02 -0.10291807210E+03  0.11008724436E+03  0.41800000000E+01 0. -1.
        -11    1    1    2    0    0 -0.52985329724E+02  0.42684628819E+02 -0.17279627599E+03  0.18570938506E+03  0.00000000000E+00 0.  1.
         11    1    1    2    0    0  0.29649183629E+02 -0.29915817272E+01 -0.12402446848E+03  0.12755427250E+03  0.00000000000E+00 0. -1.
</event>
<event>
 7    1  0.2641580E-009  0.1213390E+03  0.7561462E-02  0.1240904E+00
         -2   -1    0    0    0  501 -0.00000000000E+00  0.00000000000E+00  0.76013197245E+02  0.76013197245E+02  0.00000000000E+00 0.  1.
          2   -1    0    0  501    0  0.00000000000E+00 -0.00000000000E+00 -0.30196382374E+03  0.30196382374E+03  0.00000000000E+00 0. -1.
         25    2    1    2    0    0  0.52660164497E+02 -0.68065615788E+02 -0.51947823543E+02  0.16047310459E+03  0.12508804878E+03 0.  0.
          5    1    3    3  502    0 -0.13559051305E+02 -0.74621294585E+02 -0.12053178564E-01  0.75958265008E+02  0.41800000000E+01 0.  1.
         -5    1    3    3    0  502  0.66219215802E+02  0.65556787971E+01 -0.51935770365E+02  0.84514839580E+02  0.41800000000E+01 0.  1.
        -11    1    1    2    0    0 -0.28511359963E+02  0.70233154283E+02 -0.49198757320E+02  0.90366538770E+02  0.00000000000E+00 0.  1.
         11    1    1    2    0    0 -0.24148804534E+02 -0.21675384951E+01 -0.12480404563E+03  0.12713737763E+03  0.00000000000E+00 0. -1.
</event>
<event>
 7    1  0.2641580E-009  0.8914487E+02  0.7561462E-02  0.1304936E+00
         -1   -1    0    0    0  501 -0.00000000000E+00  0.00000000000E+00  0.97857650330E+01  0.97857650330E+01  0.00000000000E+00 0.  1.
          1   -1    0    0  501    0  0.00000000000E+00 -0.00000000000E+00 -0.14809607867E+04  0.14809607867E+04  0.00000000000E+00 0. -1.
         25    2    1    2    0    0 -0.10877741731E+02 -0.41562891531E+02 -0.99363899252E+03  0.10024028123E+04  0.12508857446E+03 0.  0.
          5    1    3    3  502    0 -0.32219221152E+02 -0.44595896267E+02 -0.17549523028E+03  0.18396445425E+03  0.41800000000E+01 0. -1.
         -5    1    3    3    0  502  0.21341479421E+02  0.30330047359E+01 -0.81814376224E+03  0.81843835806E+03  0.41800000000E+01 0. -1.
        -11    1    1    2    0    0 -0.95032628278E+01 -0.27528113322E+02 -0.10833169379E+03  0.11217782717E+03  0.00000000000E+00 0.  1.
         11    1    1    2    0    0  0.20381004559E+02  0.69091004853E+02 -0.36920433537E+03  0.37616591227E+03  0.00000000000E+00 0. -1.
</event>
<event>
 6    1  0.2641580E-009  0.1517527E+03  0.7561462E-02  0.1198336E+00
         -2   -1    0    0    0  501 -0.00000000000E+00  0.00000000000E+00  0.11383321916E+03  0.11383321916E+03  0.00000000000E+00 0.  1.
          2   -1    0    0  501    0  0.00000000000E+00 -0.00000000000E+00 -0.23006883448E+03  0.23006883448E+03  0.00000000000E+00 0. -1.
          5    1    1    2  502    0  0.90660166108E+02 -0.36914291129E+02 -0.15328501203E+02  0.99168371759E+02  0.41800000000E+01 0. -1.
         -5    1    1    2    0  502 -0.29407297535E+02 -0.65789063051E+02 -0.41229954841E+02  0.83128644532E+02  0.41800000000E+01 0. -1.
        -11    1    1    2    0    0 -0.35194278997E+02  0.93384719083E+01  0.14859670343E+02  0.39327523878E+02  0.00000000000E+00 0.  1.
         11    1    1    2    0    0 -0.26058589576E+02  0.93364882272E+02 -0.74536829612E+02  0.12227751347E+03  0.00000000000E+00 0. -1.
</event>
<event>
 7    1  0.2641580E-009  0.1197562E+03  0.7561462E-02  0.1243500E+00
          1   -1    0    0  501    0  0.00000000000E+00  0.00000000000E+00  0.34676275024E+03  0.34676275024E+03  0.00000000000E+00 0. -1.
         -1   -1    0    0    0  501 -0.00000000000E+00 -0.00000000000E+00 -0.82749785544E+02  0.82749785544E+02  0.00000000000E+00 0.  1.
         25    2    1    2    0    0 -0.10683368247E+03  0.51525136925E+02  0.74192247017E+02  0.18767218373E+03  0.12509230025E+03 0.  0.
          5    1    3    3  502    0 -0.13325916280E+02  0.14755498465E+02  0.84194993173E+02  0.86611627713E+02  0.41800000000E+01 0.  1.
         -5    1    3    3    0  502 -0.93507766194E+02  0.36769638460E+02 -0.10002746156E+02  0.10106055601E+03  0.41800000000E+01 0.  1.
        -11    1    1    2    0    0  0.18071252794E+02 -0.96629150821E+01  0.11916184366E+03  0.12091107100E+03  0.00000000000E+00 0. -1.
         11    1    1    2    0    0  0.88762429680E+02 -0.41862221843E+02  0.70658874022E+02  0.12092928106E+03  0.00000000000E+00 0.  1.
</event>
<event>
 7    1  0.2641580E-009  0.1226913E+03  0.7561462E-02  0.1238722E+00
         -1   -1    0    0    0  501 -0.00000000000E+00  0.00000000000E+00  0.41698640499E+02  0.41698640499E+02  0.00000000000E+00 0.  1.
          1   -1    0    0  501    0  0.00000000000E+00 -0.00000000000E+00 -0.50561891575E+03  0.50561891575E+03  0.00000000000E+00 0. -1.
         25    2    1    2    0    0 -0.30241693217E+02  0.79537098731E+02 -0.18691916796E+03  0.24047314464E+03  0.12509135806E+03 0.  0.
          5    1    3    3  502    0 -0.31996304948E+02  0.93998750174E+02 -0.19810532721E+03  0.22163646278E+03  0.41800000000E+01 0. -1.
         -5    1    3    3    0  502  0.17546117314E+01 -0.14461651443E+02  0.11186159253E+02  0.18836681864E+02  0.41800000000E+01 0. -1.
        -11    1    1    2    0    0 -0.20030740797E+02  0.14147477184E+02 -0.69324410818E+02  0.73534043972E+02  0.00000000000E+00 0. -1.
         11    1    1    2    0    0  0.50272434013E+02 -0.93684575915E+02 -0.20767669648E+03  0.23331036764E+03  0.00000000000E+00 0.  1.
</event>
<event>
 7    1  0.2641580E-009  0.2888920E+03  0.7561462E-02  0.1090929E+00
         -2   -1    0    0    0  501 -0.00000000000E+00  0.00000000000E+00  0.18976654050E+03  0.18976654050E+03  0.00000000000E+00 0. -1.
          2   -1    0    0  501    0  0.00000000000E+00 -0.00000000000E+00 -0.59184205335E+03  0.59184205335E+03  0.00000000000E+00 0.  1.
         25    2    1    2    0    0  0.11219842142E+03  0.25544330348E+03 -0.29711347227E+02  0.30719660350E+03  0.12508885637E+03 0.  0.
          5    1    3    3  502    0 -0.54714963184E+01  0.45332949986E+02 -0.47079019576E+02  0.65718491391E+02  0.41800000000E+01 0. -1.
         -5    1    3    3    0  502  0.11766991773E+03  0.21011035350E+03  0.17367672349E+02  0.24147811211E+03  0.41800000000E+01 0. -1.
        -11    1    1    2    0    0 -0.12498768266E+03 -0.21533230751E+03 -0.29239348959E+03  0.38403629546E+03  0.00000000000E+00 0. -1.
         11    1    1    2    0    0  0.12789261247E+02 -0.40110995975E+02 -0.79970676028E+02  0.90375694884E+02  0.00000000000E+00 0.  1.
</event>
<event>
 7    1  0.2641580E-009  0.1482096E+03  0.7561462E-02  0.1202690E+00
         -2   -1    0    0    0  501 -0.00000000000E+00  0.00000000000E+00  0.15828272636E+03  0.15828272636E+03  0.00000000000E+00 0.  1.
          2   -1    0    0  501    0  0.00000000000E+00 -0.00000000000E+00 -0.30915120539E+03  0.30915120539E+03  0.00000000000E+00 0. -1.
         25    2    1    2    0    0  0.12499159510E+03 -0.70539448124E+02 -0.21330675236E+03  0.28591188809E+03  0.12508846695E+03 0.  0.
          5    1    3    3  502    0  0.64515275565E+02 -0.58536562632E+02 -0.20597854567E+03  0.22368143335E+03  0.41800000000E+01 0. -1.
         -5    1    3    3    0  502  0.60476319531E+02 -0.12002885491E+02 -0.73282066809E+01  0.62230454741E+02  0.41800000000E+01 0. -1.
        -11    1    1    2    0    0 -0.11373003689E+03  0.50536150563E+02  0.83903612647E+02  0.15009410388E+03  0.00000000000E+00 0.  1.
         11    1    1    2    0    0 -0.11261558205E+02  0.20003297561E+02 -0.21465339321E+02  0.31427939778E+02  0.00000000000E+00 0. -1.
</event>
<event>
 7    1  0.2641580E-009  0.1210487E+03  0.7561462E-02  0.1241377E+00
         -3   -1    0    0    0  501 -0.00000000000E+00  0.00000000000E+00  0.19631973210E+03  0.19631973210E+03  0.00000000000E+00 0.  1.
          3   -1    0    0  501    0  0.00000000000E+00 -0.00000000000E+00 -0.10988952826E+03  0.10988952826E+03  0.00000000000E+00 0. -1.
         25    2    1    2    0    0  0.68692965199E+02  0.27888730666E+02 -0.22404259990E+02  0.14712734007E+03  0.12509196043E+03 0.  0.
          5    1    3    3  502    0 -0.21872237836E+02  0.43703726425E+02 -0.25013731898E+02  0.55059691925E+02  0.41800000000E+01 0.  1.
         -5    1    3    3    0  502  0.90565203035E+02 -0.15814995759E+02  0.26094719075E+01  0.92067648147E+02  0.41800000000E+01 0.  1.
        -11    1    1    2    0    0 -0.43293973869E+02 -0.50845696104E+02  0.10526353641E+03  0.12465979738E+03  0.00000000000E+00 0.  1.
         11    1    1    2    0    0 -0.25398991330E+02  0.22956965438E+02  0.35709274168E+01  0.34422122906E+02  0.00000000000E+00 0. -1.
</event>
<event>
 7    1  0.2641580E-009  0.8164878E+02  0.7561462E-02  0.1324436E+00
          1   -1    0    0  501    0  0.00000000000E+00  0.00000000000E+00  0.38951961319E+03  0.38951961319E+03  0.00000000000E+00 0. -1.
         -1   -1    0    0    0  501 -0.00000000000E+00 -0.00000000000E+00 -0.35740150587E+02  0.35740150587E+02  0.00000000000E+00 0.  1.
         25    2    1    2    0    0  0.71638678404E+02 -0.20340506888E+02  0.20639076272E+03  0.25256770861E+03  0.12508982385E+03 0.  0.
          5    1    3    3  502    0  0.68322968985E+02 -0.17310561138E+02  0.22350224104E+03  0.23438943612E+03  0.41800000000E+01 0. -1.
         -5    1    3    3    0  502  0.33157094193E+01 -0.30299457498E+01 -0.17111478319E+02  0.18178272483E+02  0.41800000000E+01 0. -1.
        -11    1    1    2    0    0 -0.41092674348E+02  0.33769894093E+02  0.11236531773E+03  0.12431805283E+03  0.00000000000E+00 0. -1.
         11    1    1    2    0    0 -0.30546004057E+02 -0.13429387205E+02  0.35023382156E+02  0.48374002338E+02  0.00000000000E+00 0.  1.
</event>
<event>
 7    1  0.2641580E-009  0.1233314E+03  0.7561462E-02  0.1237700E+00
          2   -1    0    0  501    0  0.00000000000E+00  0.00000000000E+00  0.29873764532E+03  0.29873764532E+03  0.00000000000E+00 0.  1.
         -2   -1    0    0    0  501 -0.00000000000E+00 -0.00000000000E+00 -0.78786467433E+02  0.78786467433E+02  0.00000000000E+00 0. -1.
         25    2    1    2    0    0  0.82126902730E+02 -0.67439134245E+02  0.14380100015E+03  0.21821674891E+03  0.12508779669E+03 0.  0.
          5    1    3    3  502    0  0.30194285176E+02 -0.21619529973E+02  0.14406584478E+03  0.14883393083E+03  0.41800000000E+01 0.  1.
         -5    1    3    3    0  502  0.51932617554E+02 -0.45819604272E+02 -0.26484463112E+00  0.69382818077E+02  0.41800000000E+01 0.  1.
        -11    1    1    2    0    0 -0.47211556807E+02  0.87657569624E+02  0.55366639226E+02  0.11392210210E+03  0.00000000000E+00 0.  1.
         11    1    1    2    0    0 -0.34915345923E+02 -0.20218435380E+02  0.20783538505E+02  0.45385261736E+02  0.00000000000E+00 0. -1.
</event>
<event>
 7    1  0.2641580E-009  0.1540030E+03  0.7561462E-02  0.1195639E+00
          1   -1    0    0  501    0  0.00000000000E+00  0.00000000000E+00  0.34007841831E+03  0.34007841831E+03  0.00000000000E+00 0. -1.
         -1   -1    0    0    0  501 -0.00000000000E+00 -0.00000000000E+00 -0.74535917702E+02  0.74535917702E+02  0.00000000000E+00 0.  1.
         25    2    1    2    0    0 -0.33374068149E+02  0.11142428479E+03  0.19391681436E+03  0.25841864614E+03  0.12508903275E+03 0.  0.
          5    1    3    3  502    0  0.39801528454E+02  0.81318643726E+02  0.89876434849E+02  0.12764062608E+03  0.41800000000E+01 0. -1.
         -5    1    3    3    0  502 -0.73175596603E+02  0.30105641061E+02  0.10404037951E+03  0.13077802006E+03  0.41800000000E+01 0. -1.
        -11    1    1    2    0    0 -0.17682126413E+02 -0.70555036267E+02  0.30048736483E+02  0.78699411061E+02  0.00000000000E+00 0.  1.
         11    1    1    2    0    0  0.51056194562E+02 -0.40869248521E+02  0.41576949765E+02  0.77496278811E+02  0.00000000000E+00 0. -1.
</event>
<event>
 7    1  0.2641580E-009  0.1109961E+03  0.7561462E-02  0.1258736E+00
         -4   -1    0    0    0  501 -0.00000000000E+00  0.00000000000E+00  0.34969374386E+02  0.34969374386E+02  0.00000000000E+00 0.  1.
          4   -1    0    0  501    0  0.00000000000E+00 -0.00000000000E+00 -0.38220946700E+03  0.38220946700E+03  0.00000000000E+00 0. -1.
         25    2    1    2    0    0  0.29887470864E+02  0.23476962067E+02 -0.20117830685E+03  0.23990574227E+03  0.12505049126E+03 0.  0.
          5    1    3    3  502    0  0.34000806998E+02  0.68360365998E+02 -0.80543088839E+02  0.11105789515E+03  0.41800000000E+01 0. -1.
         -5    1    3    3    0  502 -0.41133361338E+01 -0.44883403931E+02 -0.12063521801E+03  0.12884784712E+03  0.41800000000E+01 0. -1.
        -11    1    1    2    0    0 -0.14180784311E+01  0.35103342345E+02 -0.46013511872E+02  0.57892131288E+02  0.00000000000E+00 0.  1.
         11    1    1    2    0    0 -0.28469392433E+02 -0.58580304412E+02 -0.10004827388E+03  0.11938096782E+03  0.00000000000E+00 0. -1.
</event>
<event>
 7    1  0.2641580E-009  0.8943411E+02  0.7561462E-02  0.1304228E+00
          2   -1    0    0  501    0  0.00000000000E+00  0.00000000000E+00  0.66672902275E+03  0.66672902275E+03  0.00000000000E+00 0. -1.
         -2   -1    0    0    0  501 -0.00000000000E+00 -0.00000000000E+00 -0.21253050397E+02  0.21253050397E+02  0.00000000000E+00 0.  1.
         25    2    1    2    0    0  0.43113211675E+02 -0.59495818090E+01  0.42352207240E+03  0.44374888621E+03  0.12509189288E+03 0.  0.
          5    1    3    3  502    0 -0.14752580887E+02  0.27984325509E+02  0.31135711318E+03  0.31298799569E+03  0.41800000000E+01 0.  1.
         -5    1    3    3    0  502  0.57865792562E+02 -0.33933907318E+02  0.11216495921E+03  0.13076089052E+03  0.41800000000E+01 0.  1.
        -11    1    1    2    0    0 -0.87022867738E+01  0.34159409976E+02  0.27375608126E+02  0.44632040120E+02  0.00000000000E+00 0.  1.
         11    1    1    2    0    0 -0.34410924901E+02 -0.28209828167E+02  0.19457829183E+03  0.19960114681E+03  0.00000000000E+00 0. -1.
</event>
<event>
 7    1  0.2641580E-009  0.1428025E+03  0.7561462E-02  0.1209607E+00
          2   -1    0    0  501    0  0.00000000000E+00  0.00000000000E+00  0.25006833389E+04  0.25006833389E+04  0.00000000000E+00 0. -1.
         -2   -1    0    0    0  501 -0.00000000000E+00 -0.00000000000E+00 -0.12349358511E+02  0.12349358511E+02  0.00000000000E+00 0.  1.
         25    2    1    2    0    0  0.44607599111E+02  0.88853050722E+02  0.20063262837E+04  0.20126793197E+04  0.12509270469E+03 0.  0.
          5    1    3    3  502    0  0.35130974079E+02  0.11864291174E+03  0.13738398847E+04  0.13794070563E+04  0.41800000000E+01 0. -1.
         -5    1    3    3    0  502  0.94766250328E+01 -0.29789861019E+02  0.63248639902E+03  0.63327226340E+03  0.41800000000E+01 0. -1.
        -11    1    1    2    0    0  0.21320405643E+02 -0.22794967701E+01  0.42861182778E+02  0.47925325157E+02  0.00000000000E+00 0.  1.
         11    1    1    2    0    0 -0.65928004754E+02 -0.86573553952E+02  0.43914651385E+03  0.45242805249E+03  0.00000000000E+00 0. -1.
</event>
<event>
 7    1  0.2641580E-009  0.1258202E+03  0.7561462E-02  0.1233793E+00
          2   -1    0    0  501    0  0.00000000000E+00  0.00000000000E+00  0.17604692395E+04  0.17604692395E+04  0.00000000000E+00 0. -1.
         -2   -1    0    0    0  501 -0.00000000000E+00 -0.00000000000E+00 -0.13382293681E+02  0.13382293681E+02  0.00000000000E+00 0.  1.
         25    2    1    2    0    0  0.80090493699E+02 -0.78523057219E+01  0.13509425897E+04  0.13591051907E+04  0.12507954604E+03 0.  0.
          5    1    3    3  502    0 -0.24200927795E+02  0.10719143287E+02  0.95316913918E+02  0.99011976133E+02  0.41800000000E+01 0.  1.
         -5    1    3    3    0  502  0.10429142149E+03 -0.18571449009E+02  0.12556256758E+04  0.12600932146E+04  0.41800000000E+01 0.  1.
        -11    1    1    2    0    0 -0.46283728848E+02  0.47773510820E+02  0.27230175713E+03  0.28030829247E+03  0.00000000000E+00 0. -1.
         11    1    1    2    0    0 -0.33806764851E+02 -0.39921205098E+02  0.12384259899E+03  0.13443805001E+03  0.00000000000E+00 0.  1.
</event>
<event>
 7    1  0.2641580E-009  0.1276136E+03  0.7561462E-02  0.1231040E+00
         -1   -1    0    0    0  501 -0.00000000000E+00  0.00000000000E+00  0.33724586432E+03  0.33724586432E+03  0.00000000000E+00 0.  1.
          1   -1    0    0  501    0  0.00000000000E+00 -0.00000000000E+00 -0.57735992106E+02  0.57735992106E+02  0.00000000000E+00 0. -1.
         25    2    1    2    0    0  0.96668141677E+01 -0.95430390576E+02  0.16671591897E+03  0.22943602826E+03  0.12508511775E+03 0.  0.
          5    1    3    3  502    0 -0.36755308533E+02 -0.11677194534E+02  0.11319279277E+03  0.11965529788E+03  0.41800000000E+01 0.  1.
         -5    1    3    3    0  502  0.46422122701E+02 -0.83753196042E+02  0.53523126207E+02  0.10978073038E+03  0.41800000000E+01 0.  1.
        -11    1    1    2    0    0 -0.37632168741E+02  0.80553214358E+02  0.75734703044E+02  0.11679360305E+03  0.00000000000E+00 0.  1.
         11    1    1    2    0    0  0.27965354574E+02  0.14877176218E+02  0.37059250192E+02  0.48752225112E+02  0.00000000000E+00 0. -1.
</event>
<event>
 7    1  0.2641580E-009  0.1077958E+03  0.7561462E-02  0.1264707E+00
          2   -1    0    0  501    0  0.00000000000E+00  0.00000000000E+00  0.10304934046E+03  0.10304934046E+03  0.00000000000E+00 0. -1.
         -2   -1    0    0    0  501 -0.00000000000E+00 -0.00000000000E+00 -0.14447064901E+03  0.14447064901E+03  0.00000000000E+00 0.  1.
         25    2    1    2    0    0  0.53007180072E+02 -0.12938625983E+02 -0.34034342379E+02  0.14065496753E+03  0.12509322223E+03 0.  0.
          5    1    3    3  502    0  0.52049464410E+02  0.35042281626E+02 -0.59146594700E+02  0.86330181927E+02  0.41800000000E+01 0. -1.
         -5    1    3    3    0  502  0.95771566203E+00 -0.47980907609E+02  0.25112252321E+02  0.54324785604E+02  0.41800000000E+01 0. -1.
        -11    1    1    2    0    0 -0.78311996469E+02  0.11870933044E+02  0.35296174520E+01  0.79285219566E+02  0.00000000000E+00 0.  1.
         11    1    1    2    0    0  0.25304816397E+02  0.10676929388E+01 -0.10916583616E+02  0.27579802373E+02  0.00000000000E+00 0. -1.
</event>
<event>
 7    1  0.2641580E-009  0.1082834E+03  0.7561462E-02  0.1263782E+00
          2   -1    0    0  501    0  0.00000000000E+00  0.00000000000E+00  0.68112501551E+03  0.68112501551E+03  0.00000000000E+00 0.  1.
         -2   -1    0    0    0  501 -0.00000000000E+00 -0.00000000000E+00 -0.22198593215E+02  0.22198593215E+02  0.00000000000E+00 0. -1.
         25    2    1    2    0    0 -0.26174019972E+02 -0.14610061208E+01  0.50898210092E+03  0.52478249378E+03  0.12508666140E+03 0.  0.
          5    1    3    3  502    0 -0.63326093508E+02 -0.38654919737E+02  0.32532518870E+03  0.33370398221E+03  0.41800000000E+01 0.  1.
         -5    1    3    3    0  502  0.37152073536E+02  0.37193913616E+02  0.18365691221E+03  0.19107851156E+03  0.41800000000E+01 0.  1.
        -11    1    1    2    0    0  0.56592981644E+02  0.10978211613E+02  0.12636739369E+03  0.13889566188E+03  0.00000000000E+00 0.  1.
         11    1    1    2    0    0 -0.30418961672E+02 -0.95172054918E+01  0.23576927685E+02  0.39645453064E+02  0.00000000000E+00 0. -1.
</event>
<event>
 7    1  0.2641580E-009  0.1502889E+03  0.7561462E-02  0.1200118E+00
         -1   -1    0    0    0  501 -0.00000000000E+00  0.00000000000E+00  0.32159174975E+02  0.32159174975E+02  0.00000000000E+00 0.  1.
          1   -1    0    0  501    0  0.00000000000E+00 -0.00000000000E+00 -0.10223870825E+04  0.10223870825E+04  0.00000000000E+00 0. -1.
         25    2    1    2    0    0 -0.96504636393E+02  0.93424352776E+02 -0.67202764847E+03  0.69664198109E+03  0.12509050716E+03 0.  0.
          5    1    3    3  502    0  0.79995904628E+01  0.49021364494E+02 -0.38055828170E+03  0.38380876201E+03  0.41800000000E+01 0. -1.
         -5    1    3    3    0  502 -0.10450422686E+03  0.44402988282E+02 -0.29146936676E+03  0.31283321908E+03  0.41800000000E+01 0. -1.
        -11    1    1    2    0    0  0.55177810418E+02 -0.34288428475E+02 -0.55391334878E+02  0.85372636537E+02  0.00000000000E+00 0.  1.
         11    1    1    2    0    0  0.41326825974E+02 -0.59135924301E+02 -0.26280892421E+03  0.27253163987E+03  0.00000000000E+00 0. -1.
</event>
<event>
 7    1  0.2641580E-009  0.1119790E+03  0.7561462E-02  0.1256948E+00
         -2   -1    0    0    0  501 -0.00000000000E+00  0.00000000000E+00  0.12031880210E+03  0.12031880210E+03  0.00000000000E+00 0.  1.
          2   -1    0    0  501    0  0.00000000000E+00 -0.00000000000E+00 -0.19623066403E+03  0.19623066403E+03  0.00000000000E+00 0. -1.
         25    2    1    2    0    0 -0.21840141883E+02  0.63209198198E+02 -0.12866036765E+03  0.19150342121E+03  0.12509066950E+03 0.  0.
          5    1    3    3  502    0 -0.68873694363E+02  0.24195672116E+02 -0.99994210824E+02  0.12387627264E+03  0.41800000000E+01 0.  1.
         -5    1    3    3    0  502  0.47033552481E+02  0.39013526081E+02 -0.28666156824E+02  0.67627148567E+02  0.41800000000E+01 0.  1.
        -11    1    1    2    0    0  0.15799979421E+02 -0.74835751664E+02  0.62539664925E+01  0.76740739987E+02  0.00000000000E+00 0. -1.
         11    1    1    2    0    0  0.60401624618E+01  0.11626553467E+02  0.46494539221E+02  0.48305304941E+02  0.00000000000E+00 0.  1.
</event>
<event>
 7    1  0.2641580E-009  0.7938637E+02  0.7561462E-02  0.1330802E+00
         -1   -1    0    0    0  501 -0.00000000000E+00  0.00000000000E+00  0.45867923765E+02  0.45867923765E+02  0.00000000000E+00 0.  1.
          1   -1    0    0  501    0  0.00000000000E+00 -0.00000000000E+00 -0.38792636999E+03  0.38792636999E+03  0.00000000000E+00 0. -1.
         25    2    1    2    0    0  0.53468877838E+02  0.45378214608E+02 -0.13269804412E+03  0.19539044321E+03  0.12510216276E+03 0.  0.
          5    1    3    3  502    0  0.22427835530E+02  0.46129222061E+02  0.72568796353E+01  0.51971604136E+02  0.41800000000E+01 0.  1.
         -5    1    3    3    0  502  0.31041042309E+02 -0.75100745289E+00 -0.13995492375E+03  0.14341883908E+03  0.41800000000E+01 0.  1.
        -11    1    1    2    0    0 -0.11053414842E+02 -0.28072097173E+02 -0.70645352414E+01  0.30985936770E+02  0.00000000000E+00 0.  1.
         11    1    1    2    0    0 -0.42415462997E+02 -0.17306117435E+02 -0.20229586687E+03  0.20741791378E+03  0.00000000000E+00 0. -1.
</event>
<event>
 7    1  0.2641580E-009  0.9001800E+02  0.7561462E-02  0.1302808E+00
          2   -1    0    0  501    0  0.00000000000E+00  0.00000000000E+00  0.52748732257E+03  0.52748732257E+03  0.00000000000E+00 0. -1.
         -2   -1    0    0    0  501 -0.00000000000E+00 -0.00000000000E+00 -0.31028569997E+02  0.31028569997E+02  0.00000000000E+00 0.  1.
         25    2    1    2    0    0 -0.37439928891E+02  0.36515399589E+02  0.18136766734E+03  0.22644677912E+03  0.12509512514E+03 0.  0.
          5    1    3    3  502    0 -0.54611744470E+02  0.54669621098E+01  0.18258344362E+03  0.19070006973E+03  0.41800000000E+01 0.  1.
         -5    1    3    3    0  502  0.17171815579E+02  0.31048437479E+02 -0.12157762815E+01  0.35746709389E+02  0.41800000000E+01 0.  1.
        -11    1    1    2    0    0  0.51338443044E+02 -0.48715240292E+02  0.29989631890E+03  0.30813408195E+03  0.00000000000E+00 0. -1.
         11    1    1    2    0    0 -0.13898514153E+02  0.12199840704E+02  0.15194766326E+02  0.23935031493E+02  0.00000000000E+00 0.  1.
</event>
<event>
 7    1  0.2641580E-009  0.1285824E+03  0.7561462E-02  0.1229574E+00
          1   -1    0    0  501    0  0.00000000000E+00  0.00000000000E+00  0.22965881386E+03  0.22965881386E+03  0.00000000000E+00 0. -1.
         -1   -1    0    0    0  501 -0.00000000000E+00 -0.00000000000E+00 -0.93564743092E+02  0.93564743092E+02  0.00000000000E+00 0.  1.
         25    2    1    2    0    0  0.65655491814E+01 -0.89242360104E+02  0.31563921569E+02  0.15700688803E+03  0.12509027329E+03 0.  0.
          5    1    3    3  502    0  0.16063896013E+02  0.16340862676E+02 -0.27133275702E+02  0.35759748300E+02  0.41800000000E+01 0.  1.
         -5    1    3    3    0  502 -0.94983468318E+01 -0.10558322278E+03  0.58697197270E+02  0.12124713973E+03  0.41800000000E+01 0.  1.
        -11    1    1    2    0    0  0.28872118774E+02 -0.29394875470E+01  0.34844275365E+02  0.45347142746E+02  0.00000000000E+00 0. -1.
         11    1    1    2    0    0 -0.35437667956E+02  0.92181847651E+02  0.69685873839E+02  0.12086952618E+03  0.00000000000E+00 0.  1.
</event>
<event>
 6    1  0.3826451E-009  0.1073599E+03  0.7561462E-02  0.1265539E+00
          2   -1    0    0  501    0  0.00000000000E+00  0.00000000000E+00  0.88720793747E+03  0.88720793747E+03  0.00000000000E+00 0. -1.
         -2   -1    0    0    0  501 -0.00000000000E+00 -0.00000000000E+00 -0.15927017387E+02  0.15927017387E+02  0.00000000000E+00 0.  1.
          5    1    1    2  502    0  0.23637232794E+02 -0.75780246528E+02  0.27214709888E+03  0.28351874782E+03  0.41800000000E+01 0.  1.
         -5    1    1    2    0  502 -0.32914966800E+02  0.33864880607E+02  0.30638447761E+03  0.31003087862E+03  0.41800000000E+01 0.  1.
        -11    1    1    2    0    0  0.11227691171E+02  0.64338610834E+02  0.26920130352E+03  0.27701057690E+03  0.00000000000E+00 0. -1.
         11    1    1    2    0    0 -0.19499571652E+01 -0.22423244913E+02  0.23548040070E+02  0.32574751518E+02  0.00000000000E+00 0.  1.
</event>
<event>
 7    1  0.2641580E-009  0.1962204E+03  0.7561462E-02  0.1152968E+00
         -1   -1    0    0    0  501 -0.00000000000E+00  0.00000000000E+00  0.58765199541E+02  0.58765199541E+02  0.00000000000E+00 0.  1.
          1   -1    0    0  501    0  0.00000000000E+00 -0.00000000000E+00 -0.95966816785E+03  0.95966816785E+03  0.00000000000E+00 0. -1.
         25    2    1    2    0    0  0.12619771764E+03 -0.13278379718E+03 -0.24617684390E+03  0.33137343296E+03  0.12509161789E+03 0.  0.
          5    1    3    3  502    0  0.11769942055E+03 -0.14704924090E+03 -0.25076029531E+03  0.31364762226E+03  0.41800000000E+01 0. -1.
         -5    1    3    3    0  502  0.84982970850E+01  0.14265443725E+02  0.45834514031E+01  0.17725810694E+02  0.41800000000E+01 0. -1.
        -11    1    1    2    0    0 -0.33359189615E+02  0.61148333177E+02 -0.40778087062E+03  0.41368731262E+03  0.00000000000E+00 0. -1.
         11    1    1    2    0    0 -0.92838528022E+02  0.71635464003E+02 -0.24694525379E+03  0.27337262181E+03  0.00000000000E+00 0.  1.
</event>
<event>
 7    1  0.3612869E-009  0.2933109E+03  0.7561462E-02  0.1088633E+00
         -2   -1    0    0    0  501 -0.00000000000E+00  0.00000000000E+00  0.69990509020E+02  0.69990509020E+02  0.00000000000E+00 0.  1.
          2   -1    0    0  501    0  0.00000000000E+00 -0.00000000000E+00 -0.13020808304E+04  0.13020808304E+04  0.00000000000E+00 0. -1.
         25    2    1    2    0    0 -0.20249410286E+03  0.18966509534E+03 -0.52208571319E+03  0.60431678669E+03  0.12509427114E+03 0.  0.
          5    1    3    3  502    0 -0.76696689471E+02  0.15104225792E+03 -0.33670335685E+03  0.37693868038E+03  0.41800000000E+01 0.  1.
         -5    1    3    3    0  502 -0.12579741338E+03  0.38622837417E+02 -0.18538235635E+03  0.22737810631E+03  0.41800000000E+01 0.  1.
        -11    1    1    2    0    0  0.11675788010E+02 -0.43795218144E+02 -0.18410625124E+03  0.18960342007E+03  0.00000000000E+00 0. -1.
         11    1    1    2    0    0  0.19081831485E+03 -0.14586987720E+03 -0.52589835697E+03  0.57815113268E+03  0.00000000000E+00 0.  1.
</event>
<event>
 7    1  0.2641580E-009  0.1043086E+03  0.7561462E-02  0.1271488E+00
          1   -1    0    0  501    0  0.00000000000E+00  0.00000000000E+00  0.19836140617E+03  0.19836140617E+03  0.00000000000E+00 0. -1.
         -1   -1    0    0    0  501 -0.00000000000E+00 -0.00000000000E+00 -0.67046465824E+02  0.67046465824E+02  0.00000000000E+00 0.  1.
         25    2    1    2    0    0  0.13538100971E+02 -0.35305218871E+02  0.89421265692E+02  0.15834502165E+03  0.12508894621E+03 0.  0.
          5    1    3    3  502    0 -0.16696233183E+02 -0.65702900837E+02  0.10907020884E+02  0.68790049321E+02  0.41800000000E+01 0.  1.
         -5    1    3    3    0  502  0.30234334154E+02  0.30397681966E+02  0.78514244808E+02  0.89554972327E+02  0.41800000000E+01 0.  1.
        -11    1    1    2    0    0  0.27824202563E+02 -0.15703131496E+02  0.70404077369E+01  0.32716080575E+02  0.00000000000E+00 0.  1.
         11    1    1    2    0    0 -0.41362303535E+02  0.51008350367E+02  0.34853266919E+02  0.74346769774E+02  0.00000000000E+00 0. -1.
</event>
<event>
 7    1  0.2641580E-009  0.9603967E+02  0.7561462E-02  0.1288852E+00
         -2   -1    0    0    0  501 -0.00000000000E+00  0.00000000000E+00  0.46911837196E+03  0.46911837196E+03  0.00000000000E+00 0.  1.
          2   -1    0    0  501    0  0.00000000000E+00 -0.00000000000E+00 -0.46342995911E+02  0.46342995911E+02  0.00000000000E+00 0. -1.
         25    2    1    2    0    0 -0.59097460257E+02 -0.47469292544E+02  0.33532827120E+03  0.36583901166E+03  0.12508912602E+03 0.  0.
          5    1    3    3  502    0 -0.31838442642E+02  0.37754348860E+01  0.29072599285E+03  0.29251840225E+03  0.41800000000E+01 0.  1.
         -5    1    3    3    0  502 -0.27259017614E+02 -0.51244727430E+02  0.44602278346E+02  0.73320609410E+02  0.41800000000E+01 0.  1.
        -11    1    1    2    0    0  0.54764694865E+02  0.88986816144E+00  0.52208646208E+01  0.55020188080E+02  0.00000000000E+00 0. -1.
         11    1    1    2    0    0  0.43327653918E+01  0.46579424382E+02  0.82226240236E+02  0.94602168131E+02  0.00000000000E+00 0.  1.
</event>
<event>
 7    1  0.2641580E-009  0.4887721E+03  0.7561462E-02  0.1016752E+00
          1   -1    0    0  501    0  0.00000000000E+00  0.00000000000E+00  0.73791624109E+03  0.73791624109E+03  0.00000000000E+00 0. -1.
         -1   -1    0    0    0  501 -0.00000000000E+00 -0.00000000000E+00 -0.34567996156E+03  0.34567996156E+03  0.00000000000E+00 0.  1.
         25    2    1    2    0    0  0.26000791251E+03  0.41319975357E+03  0.12408476447E+03  0.51901994978E+03  0.12508608467E+03 0.  0.
          5    1    3    3  502    0  0.56016729964E+02  0.66426509470E+02 -0.24074112712E+02  0.90262896580E+02  0.41800000000E+01 0.  1.
         -5    1    3    3    0  502  0.20399118254E+03  0.34677324410E+03  0.14815887719E+03  0.42875705320E+03  0.41800000000E+01 0.  1.
        -11    1    1    2    0    0 -0.21133885278E+03 -0.33776388208E+03  0.17488657230E+03  0.43512511293E+03  0.00000000000E+00 0.  1.
         11    1    1    2    0    0 -0.48669059725E+02 -0.75435871493E+02  0.93264942763E+02  0.12945113994E+03  0.00000000000E+00 0. -1.
</event>
<event>
 7    1  0.2641580E-009  0.6527371E+02  0.7561462E-02  0.1376945E+00
         -2   -1    0    0    0  501 -0.00000000000E+00  0.00000000000E+00  0.26678437668E+02  0.26678437668E+02  0.00000000000E+00 0.  1.
          2   -1    0    0  501    0  0.00000000000E+00 -0.00000000000E+00 -0.62098541328E+03  0.62098541328E+03  0.00000000000E+00 0. -1.
         25    2    1    2    0    0  0.65724749354E+01  0.31422591142E+02 -0.17373710478E+03  0.21647788127E+03  0.12509002694E+03 0.  0.
          5    1    3    3  502    0 -0.49306101975E+01  0.10182922431E+02  0.18827328984E+02  0.22359417319E+02  0.41800000000E+01 0. -1.
         -5    1    3    3    0  502  0.11503085133E+02  0.21239668711E+02 -0.19256443377E+03  0.19411846395E+03  0.41800000000E+01 0. -1.
        -11    1    1    2    0    0  0.17181459806E+02  0.26378604708E+02 -0.17368267853E+03  0.17651262326E+03  0.00000000000E+00 0. -1.
         11    1    1    2    0    0 -0.23753934741E+02 -0.57801195851E+02 -0.24688719229E+03  0.25467334642E+03  0.00000000000E+00 0.  1.
</event>
<event>
 7    1  0.2641580E-009  0.8119044E+02  0.7561462E-02  0.1325707E+00
         -2   -1    0    0    0  501 -0.00000000000E+00  0.00000000000E+00  0.64920330961E+02  0.64920330961E+02  0.00000000000E+00 0.  1.
          2   -1    0    0  501    0  0.00000000000E+00 -0.00000000000E+00 -0.31445438307E+03  0.31445438307E+03  0.00000000000E+00 0. -1.
         25    2    1    2    0    0  0.19069719680E+02 -0.60950818557E+02 -0.14200717440E+03  0.19973031755E+03  0.12508999032E+03 0.  0.
          5    1    3    3  502    0  0.97531684042E+01 -0.99732679741E+01  0.22723977593E+02  0.26989663311E+02  0.41800000000E+01 0.  1.
         -5    1    3    3    0  502  0.93165512762E+01 -0.50977550583E+02 -0.16473115199E+03  0.17274065424E+03  0.41800000000E+01 0.  1.
        -11    1    1    2    0    0  0.24225000914E+02  0.42175724251E+02  0.12884885583E+02  0.50315630394E+02  0.00000000000E+00 0.  1.
         11    1    1    2    0    0 -0.43294720595E+02  0.18775094305E+02 -0.12041176329E+03  0.12932876608E+03  0.00000000000E+00 0. -1.
</event>
<event>
 7    1  0.2641580E-009  0.1369871E+03  0.7561462E-02  0.1217441E+00
          2   -1    0    0  501    0  0.00000000000E+00  0.00000000000E+00  0.94209163432E+03  0.94209163432E+03  0.00000000000E+00 0. -1.
         -2   -1    0    0    0  501 -0.00000000000E+00 -0.00000000000E+00 -0.20558837313E+02  0.20558837313E+02  0.00000000000E+00 0.  1.
         25    2    1    2    0    0 -0.82214934808E+02 -0.22806430977E+02  0.53979346246E+03  0.56062405950E+03  0.12507168013E+03 0.  0.
          5    1    3    3  502    0 -0.24120976856E+00  0.42749352703E+02  0.21557768916E+03  0.21981532658E+03  0.41800000000E+01 0.  1.
         -5    1    3    3    0  502 -0.81973725039E+02 -0.65555783680E+02  0.32421577330E+03  0.34080873291E+03  0.41800000000E+01 0.  1.
        -11    1    1    2    0    0  0.98232864641E+02  0.36605882117E+02  0.32404903451E+03  0.34058400295E+03  0.00000000000E+00 0. -1.
         11    1    1    2    0    0 -0.16017929833E+02 -0.13799451139E+02  0.57690300035E+02  0.61442409182E+02  0.00000000000E+00 0.  1.
</event>
<event>
 7    1  0.2641580E-009  0.9398649E+02  0.7561462E-02  0.1293475E+00
         -2   -1    0    0    0  501 -0.00000000000E+00  0.00000000000E+00  0.28798627575E+02  0.28798627575E+02  0.00000000000E+00 0.  1.
          2   -1    0    0  501    0  0.00000000000E+00 -0.00000000000E+00 -0.46484192422E+03  0.46484192422E+03  0.00000000000E+00 0. -1.
         25    2    1    2    0    0 -0.20364969247E+02  0.37119815611E+02 -0.25270385906E+03  0.28513278492E+03  0.12509537148E+03 0.  0.
          5    1    3    3  502    0  0.45297690607E+01  0.59802766499E+02 -0.46099450393E+02  0.75759629191E+02  0.41800000000E+01 0.  1.
         -5    1    3    3    0  502 -0.24894738308E+02 -0.22682950888E+02 -0.20660440867E+03  0.20937315572E+03  0.41800000000E+01 0.  1.
        -11    1    1    2    0    0  0.57445496475E+01  0.27279648049E+02 -0.27072989433E+02  0.38860337173E+02  0.00000000000E+00 0.  1.
         11    1    1    2    0    0  0.14620419599E+02 -0.64399463660E+02 -0.15626644815E+03  0.16964742971E+03  0.00000000000E+00 0. -1.
</event>
<event>
 7    1  0.2641580E-009  0.1184118E+03  0.7561462E-02  0.1245740E+00
         -3   -1    0    0    0  501 -0.00000000000E+00  0.00000000000E+00  0.20357900592E+03  0.20357900592E+03  0.00000000000E+00 0.  1.
          3   -1    0    0  501    0  0.00000000000E+00 -0.00000000000E+00 -0.79521572436E+02  0.79521572436E+02  0.00000000000E+00 0. -1.
         25    2    1    2    0    0  0.63923243189E+00 -0.66226778276E+02  0.60497937802E+02  0.15392478591E+03  0.12508574843E+03 0.  0.
          5    1    3    3  502    0 -0.22776701849E+02 -0.92793930822E+02  0.68171359837E+02  0.11744913131E+03  0.41800000000E+01 0.  1.
         -5    1    3    3    0  502  0.23415934280E+02  0.26567152546E+02 -0.76734220349E+01  0.36475654598E+02  0.41800000000E+01 0.  1.
        -11    1    1    2    0    0  0.33155191303E+02  0.23247715142E+01  0.48719682615E+00  0.33240165970E+02  0.00000000000E+00 0. -1.
         11    1    1    2    0    0 -0.33794423735E+02  0.63902006762E+02  0.63072298852E+02  0.95935626470E+02  0.00000000000E+00 0.  1.
</event>
<event>
 7    1  0.2641580E-009  0.2497617E+03  0.7561462E-02  0.1113455E+00
         -2   -1    0    0    0  501 -0.00000000000E+00  0.00000000000E+00  0.10465481861E+04  0.10465481861E+04  0.00000000000E+00 0.  1.
          2   -1    0    0  501    0  0.00000000000E+00 -0.00000000000E+00 -0.81934950840E+02  0.81934950840E+02  0.00000000000E+00 0. -1.
         25    2    1    2    0    0 -0.98606196947E+02 -0.20521182588E+03  0.77889377491E+03  0.82107198487E+03  0.12509442909E+03 0.  0.
          5    1    3    3  502    0 -0.11865952712E+02  0.13967948719E+02  0.11577114173E+03  0.11728739951E+03  0.41800000000E+01 0. -1.
         -5    1    3    3    0  502 -0.86740244235E+02 -0.21917977460E+03  0.66312263317E+03  0.70378458536E+03  0.41800000000E+01 0. -1.
        -11    1    1    2    0    0  0.61456703392E+02  0.34946685870E+02  0.53872983435E+02  0.88884732037E+02  0.00000000000E+00 0. -1.
         11    1    1    2    0    0  0.37149493555E+02  0.17026514001E+03  0.13184647689E+03  0.21852642001E+03  0.00000000000E+00 0.  1.
</event>
<event>
 7    1  0.2641580E-009  0.9871476E+02  0.7561462E-02  0.1283022E+00
          3   -1    0    0  501    0  0.00000000000E+00  0.00000000000E+00  0.23725784948E+02  0.23725784948E+02  0.00000000000E+00 0. -1.
         -3   -1    0    0    0  501 -0.00000000000E+00 -0.00000000000E+00 -0.51550831445E+03  0.51550831445E+03  0.00000000000E+00 0.  1.
         25    2    1    2    0    0  0.19584040059E+02 -0.12885852913E+02 -0.25928592143E+03  0.28884270012E+03  0.12510530178E+03 0.  0.
          5    1    3    3  502    0 -0.24898617484E+02  0.33149180269E+02 -0.31610655239E+02  0.52302153204E+02  0.41800000000E+01 0.  1.
         -5    1    3    3    0  502  0.44482657543E+02 -0.46035033182E+02 -0.22767526619E+03  0.23654054692E+03  0.41800000000E+01 0.  1.
        -11    1    1    2    0    0 -0.52705181146E+02  0.22220806426E+02 -0.12373090234E+03  0.13631190906E+03  0.00000000000E+00 0. -1.
         11    1    1    2    0    0  0.33121141087E+02 -0.93349535131E+01 -0.10876570573E+03  0.11407949021E+03  0.00000000000E+00 0.  1.
</event>
<event>
 7    1  0.2641580E-009  0.8539867E+02  0.7561462E-02  0.1314393E+00
          1   -1    0    0  501    0  0.00000000000E+00  0.00000000000E+00  0.45698843150E+03  0.45698843150E+03  0.00000000000E+00 0. -1.
         -1   -1    0    0    0  501 -0.00000000000E+00 -0.00000000000E+00 -0.32825002458E+02  0.32825002458E+02  0.00000000000E+00 0.  1.
         25    2    1    2    0    0  0.80580988458E+01 -0.56259763020E+02  0.29613331098E+03  0.32645499244E+03  0.12509128798E+03 0.  0.
          5    1    3    3  502    0  0.31801745646E+02  0.13618259565E+02  0.21034886339E+03  0.21321567661E+03  0.41800000000E+01 0.  1.
         -5    1    3    3    0  502 -0.23743646800E+02 -0.69878022585E+02  0.85784447582E+02  0.11323931583E+03  0.41800000000E+01 0.  1.
        -11    1    1    2    0    0 -0.16184419196E+02  0.25392100806E+02 -0.13080700707E+01  0.30139762032E+02  0.00000000000E+00 0.  1.
         11    1    1    2    0    0  0.81263203502E+01  0.30867662214E+02  0.12933818814E+03  0.13321867949E+03  0.00000000000E+00 0. -1.
</event>
<event>
 7    1  0.2641580E-009  0.1328167E+03  0.7561462E-02  0.1223335E+00
          2   -1    0    0  501    0  0.00000000000E+00  0.00000000000E+00  0.83658095446E+03  0.83658095446E+03  0.00000000000E+00 0. -1.
         -2   -1    0    0    0  501 -0.00000000000E+00 -0.00000000000E+00 -0.27124659019E+02  0.27124659019E+02  0.00000000000E+00 0.  1.
         25    2    1    2    0    0 -0.10042382524E+03  0.23584003185E+02  0.41585276277E+03  0.44633903387E+03  0.12507542914E+03 0.  0.
          5    1    3    3  502    0  0.62329834414E+01  0.20778182905E+02  0.61228073121E+01  0.22924749438E+02  0.41800000000E+01 0.  1.
         -5    1    3    3    0  502 -0.10665680869E+03  0.28058202802E+01  0.40972995545E+03  0.42341428443E+03  0.41800000000E+01 0.  1.
        -11    1    1    2    0    0  0.11150362967E+03 -0.88501338442E+00  0.28923533121E+03  0.30998535369E+03  0.00000000000E+00 0. -1.
         11    1    1    2    0    0 -0.11079804422E+02 -0.22698989801E+02  0.10436820146E+03  0.10738122592E+03  0.00000000000E+00 0.  1.
</event>
<event>
 7    1  0.2641580E-009  0.1051584E+03  0.7561462E-02  0.1269808E+00
          2   -1    0    0  501    0  0.00000000000E+00  0.00000000000E+00  0.21996892028E+02  0.21996892028E+02  0.00000000000E+00 0.  1.
         -2   -1    0    0    0  501 -0.00000000000E+00 -0.00000000000E+00 -0.70180251494E+03  0.70180251494E+03  0.00000000000E+00 0. -1.
         25    2    1    2    0    0 -0.16498825753E+01 -0.59645768351E+02 -0.41331656639E+03  0.43593211933E+03  0.12508352737E+03 0.  0.
          5    1    3    3  502    0 -0.47682512214E+02 -0.11015424067E+02 -0.66424348850E+02  0.82611307086E+02  0.41800000000E+01 0.  1.
         -5    1    3    3    0  502  0.46032629639E+02 -0.48630344285E+02 -0.34689221754E+03  0.35332081225E+03  0.41800000000E+01 0.  1.
        -11    1    1    2    0    0 -0.30304177004E+02  0.48698353658E+01 -0.16763139124E+03  0.17041813803E+03  0.00000000000E+00 0. -1.
         11    1    1    2    0    0  0.31954059580E+02  0.54775932985E+02 -0.98857665279E+02  0.11744914960E+03  0.00000000000E+00 0.  1.
</event>
<event>
 7    1  0.2641580E-009  0.1222545E+03  0.7561462E-02  0.1239424E+00
         -1   -1    0    0    0  501 -0.00000000000E+00  0.00000000000E+00  0.28065649800E+02  0.28065649800E+02  0.00000000000E+00 0.  1.
          1   -1    0    0  501    0  0.00000000000E+00 -0.00000000000E+00 -0.79450622812E+03  0.79450622812E+03  0.00000000000E+00 0. -1.
         25    2    1    2    0    0  0.69539556750E+02  0.19367417589E+02 -0.21483122004E+03  0.25886682963E+03  0.12509490622E+03 0.  0.
          5    1    3    3  502    0 -0.25206421285E+02  0.21657754913E+02 -0.12055898367E+03  0.12512538897E+03  0.41800000000E+01 0. -1.
         -5    1    3    3    0  502  0.94745978036E+02 -0.22903373244E+01 -0.94272236376E+02  0.13374144066E+03  0.41800000000E+01 0. -1.
        -11    1    1    2    0    0 -0.14630810533E+02 -0.50809898664E+02 -0.25065507978E+03  0.25617118386E+03  0.00000000000E+00 0. -1.
         11    1    1    2    0    0 -0.54908746218E+02  0.31442481075E+02 -0.30095427850E+03  0.30753386443E+03  0.00000000000E+00 0.  1.
</event>
<event>
 7    1  0.2641580E-009  0.1033329E+03  0.7561462E-02  0.1273440E+00
         -2   -1    0    0    0  501 -0.00000000000E+00  0.00000000000E+00  0.23935277939E+02  0.23935277939E+02  0.00000000000E+00 0.  1.
          2   -1    0    0  501    0  0.00000000000E+00 -0.00000000000E+00 -0.51349315473E+03  0.51349315473E+03  0.00000000000E+00 0. -1.
         25    2    1    2    0    0 -0.16662610705E+02  0.21488086252E+02 -0.28696315898E+03  0.31422209568E+03  0.12509312673E+03 0.  0.
          5    1    3    3  502    0 -0.43181055507E+02  0.64241399015E+02 -0.17598975553E+03  0.19230555726E+03  0.41800000000E+01 0.  1.
         -5    1    3    3    0  502  0.26518444802E+02 -0.42753312764E+02 -0.11097340345E+03  0.12191653842E+03  0.41800000000E+01 0.  1.
        -11    1    1    2    0    0 -0.29071543937E+02 -0.26135752988E+01 -0.23708486709E+02  0.37604225624E+02  0.00000000000E+00 0.  1.
         11    1    1    2    0    0  0.45734154643E+02 -0.18874510953E+02 -0.17888623110E+03  0.18560211137E+03  0.00000000000E+00 0. -1.
</event>
<event>
 7    1  0.2641580E-009  0.8806812E+02  0.7561462E-02  0.1307599E+00
          1   -1    0    0  501    0  0.00000000000E+00  0.00000000000E+00  0.11015613341E+04  0.11015613341E+04  0.00000000000E+00 0. -1.
         -1   -1    0    0    0  501 -0.00000000000E+00 -0.00000000000E+00 -0.14886730680E+02  0.14886730680E+02  0.00000000000E+00 0.  1.
         25    2    1    2    0    0  0.42788445790E+02  0.47787604233E+02  0.70734761667E+03  0.72118147316E+03  0.12509020828E+03 0.  0.
          5    1    3    3  502    0  0.11072683765E+02  0.56942021541E+01  0.13456959355E+01  0.13202710384E+02  0.41800000000E+01 0. -1.
         -5    1    3    3    0  502  0.31715762025E+02  0.42093402079E+02  0.70600192073E+03  0.70797876277E+03  0.41800000000E+01 0. -1.
        -11    1    1    2    0    0  0.18802841030E+02  0.13574768438E+02  0.60323841354E+02  0.64628066694E+02  0.00000000000E+00 0.  1.
         11    1    1    2    0    0 -0.61591286820E+02 -0.61362372671E+02  0.31900314537E+03  0.33063852490E+03  0.00000000000E+00 0. -1.
</event>
<event>
 7    1  0.2641580E-009  0.1284745E+03  0.7561462E-02  0.1229737E+00
         -2   -1    0    0    0  501 -0.00000000000E+00  0.00000000000E+00  0.70385457525E+02  0.70385457525E+02  0.00000000000E+00 0.  1.
          2   -1    0    0  501    0  0.00000000000E+00 -0.00000000000E+00 -0.28716139699E+03  0.28716139699E+03  0.00000000000E+00 0. -1.
         25    2    1    2    0    0  0.64092642333E+02 -0.72078988025E+02 -0.12500847078E+03  0.20144052278E+03  0.12509164295E+03 0.  0.
          5    1    3    3  502    0  0.26651522361E+02 -0.10420201801E+03 -0.94872444969E+02  0.14348037293E+03  0.41800000000E+01 0. -1.
         -5    1    3    3    0  502  0.37441119972E+02  0.32123029981E+02 -0.30136025812E+02  0.57960149858E+02  0.41800000000E+01 0. -1.
        -11    1    1    2    0    0 -0.24096373313E+02  0.10298701613E+02  0.12054654613E+02  0.28844638316E+02  0.00000000000E+00 0.  1.
         11    1    1    2    0    0 -0.39996269020E+02  0.61780286412E+02 -0.10382212329E+03  0.12726169341E+03  0.00000000000E+00 0. -1.
</event>
<event>
 7    1  0.2641580E-009  0.1281673E+03  0.7561462E-02  0.1230201E+00
          2   -1    0    0  501    0  0.00000000000E+00  0.00000000000E+00  0.10804209321E+03  0.10804209321E+03  0.00000000000E+00 0.  1.
         -2   -1    0    0    0  501 -0.00000000000E+00 -0.00000000000E+00 -0.17462005098E+03  0.17462005098E+03  0.00000000000E+00 0. -1.
         25    2    1    2    0    0  0.68189371496E+02 -0.24223922469E+02  0.76673178002E+01  0.14471808408E+03  0.12509175549E+03 0.  0.
          5    1    3    3  502    0  0.93279721851E+02  0.18046850105E+02  0.73269734776E+01  0.95383186399E+02  0.41800000000E+01 0. -1.
         -5    1    3    3    0  502 -0.25090350355E+02 -0.42270772574E+02  0.34034432263E+00  0.49334897680E+02  0.41800000000E+01 0. -1.
        -11    1    1    2    0    0 -0.21639407540E+02 -0.32172767846E+02 -0.86894627979E+01  0.39734842560E+02  0.00000000000E+00 0. -1.
         11    1    1    2    0    0 -0.46549963957E+02  0.56396690315E+02 -0.65555812771E+02  0.98209217546E+02  0.00000000000E+00 0.  1.
</event>
<event>
 7    1  0.2641580E-009  0.1278433E+03  0.7561462E-02  0.1230691E+00
         -3   -1    0    0    0  501 -0.00000000000E+00  0.00000000000E+00  0.58243340531E+02  0.58243340531E+02  0.00000000000E+00 0.  1.
          3   -1    0    0  501    0  0.00000000000E+00 -0.00000000000E+00 -0.30236373866E+03  0.30236373866E+03  0.00000000000E+00 0. -1.
         25    2    1    2    0    0 -0.67462897876E+02 -0.18817511570E+02 -0.96714749651E+02  0.17293460919E+03  0.12508914791E+03 0.  0.
          5    1    3    3  502    0  0.12538609286E+02 -0.52070945541E+02 -0.20602919377E+02  0.57537403307E+02  0.41800000000E+01 0.  1.
         -5    1    3    3    0  502 -0.80001507162E+02  0.33253433971E+02 -0.76111830274E+02  0.11539720589E+03  0.41800000000E+01 0.  1.
        -11    1    1    2    0    0  0.11007683474E+02  0.49680683325E+02 -0.77011363321E+02  0.92304330731E+02  0.00000000000E+00 0.  1.
         11    1    1    2    0    0  0.56455214402E+02 -0.30863171755E+02 -0.70394285152E+02  0.95368139261E+02  0.00000000000E+00 0. -1.
</event>
<event>
 7    1  0.2641580E-009  0.1690158E+03  0.7561462E-02  0.1178878E+00
         -1   -1    0    0    0  501 -0.00000000000E+00  0.00000000000E+00  0.24321062141E+03  0.24321062141E+03  0.00000000000E+00 0.  1.
          1   -1    0    0  501    0  0.00000000000E+00 -0.00000000000E+00 -0.16249450244E+03  0.16249450244E+03  0.00000000000E+00 0. -1.
         25    2    1    2    0    0  0.59815060369E+02  0.12016165093E+03 -0.56801809921E+02  0.19206938493E+03  0.12509012437E+03 0.  0.
          5    1    3    3  502    0 -0.25393425530E+02  0.75344170454E+02  0.11369507860E+01  0.79626221426E+02  0.41800000000E+01 0.  1.
         -5    1    3    3    0  502  0.85208485899E+02  0.44817480476E+02 -0.57938760707E+02  0.11244316350E+03  0.41800000000E+01 0.  1.
        -11    1    1    2    0    0  0.20339666620E+02 -0.55345390329E+02  0.64006269384E+02  0.87026529228E+02  0.00000000000E+00 0.  1.
         11    1    1    2    0    0 -0.80154726989E+02 -0.64816260600E+02  0.73511659510E+02  0.12660920970E+03  0.00000000000E+00 0. -1.
</event>
<event>
 7    1  0.2641580E-009  0.8353183E+02  0.7561462E-02  0.1319317E+00
         -1   -1    0    0    0  501 -0.00000000000E+00  0.00000000000E+00  0.13860587430E+03  0.13860587430E+03  0.00000000000E+00 0.  1.
          1   -1    0    0  501    0  0.00000000000E+00 -0.00000000000E+00 -0.91430010695E+02  0.91430010695E+02  0.00000000000E+00 0. -1.
         25    2    1    2    0    0  0.27185516665E+02  0.76936501187E+01  0.41121348990E+02  0.13467413947E+03  0.12509162215E+03 0.  0.
          5    1    3    3  502    0 -0.19788157733E+02  0.39734035011E+02 -0.21914176175E+02  0.49679656220E+02  0.41800000000E+01 0.  1.
         -5    1    3    3    0  502  0.46973674398E+02 -0.32040384892E+02  0.63035525165E+02  0.84994483252E+02  0.41800000000E+01 0.  1.
        -11    1    1    2    0    0  0.34414950876E+01  0.22319533610E+02  0.36394986522E+02  0.42832236842E+02  0.00000000000E+00 0.  1.
         11    1    1    2    0    0 -0.30627011752E+02 -0.30013183729E+02 -0.30340471908E+02  0.52529508678E+02  0.00000000000E+00 0. -1.
</event>
<event>
 7    1  0.2641580E-009  0.7687280E+02  0.7561462E-02  0.1338168E+00
         -2   -1    0    0    0  501 -0.00000000000E+00  0.00000000000E+00  0.17151920191E+03  0.17151920191E+03  0.00000000000E+00 0.  1.
          2   -1    0    0  501    0  0.00000000000E+00 -0.00000000000E+00 -0.92167336109E+02  0.92167336109E+02  0.00000000000E+00 0. -1.
         25    2    1    2    0    0  0.59734641584E+01  0.42952783244E+02  0.92735946743E+02  0.16163631410E+03  0.12508284597E+03 0.  0.
          5    1    3    3  502    0 -0.29902149775E+02  0.33872969556E+02 -0.14883886465E+02  0.47754780955E+02  0.41800000000E+01 0.  1.
         -5    1    3    3    0  502  0.35875613934E+02  0.90798136878E+01  0.10761983321E+03  0.11388153314E+03  0.41800000000E+01 0.  1.
        -11    1    1    2    0    0 -0.23720906226E+02  0.98431725171E+00  0.29688295096E+02  0.38013749333E+02  0.00000000000E+00 0.  1.
         11    1    1    2    0    0  0.17747442067E+02 -0.43937100496E+02 -0.43072376038E+02  0.64036474587E+02  0.00000000000E+00 0. -1.
</event>
<event>
 7    1  0.2641580E-009  0.9463369E+02  0.7561462E-02  0.1292003E+00
          1   -1    0    0  501    0  0.00000000000E+00  0.00000000000E+00  0.20216675826E+03  0.20216675826E+03  0.00000000000E+00 0. -1.
         -1   -1    0    0    0  501 -0.00000000000E+00 -0.00000000000E+00 -0.75134207065E+02  0.75134207065E+02  0.00000000000E+00 0.  1.
         25    2    1    2    0    0  0.93841945246E+01 -0.51156878447E+02  0.40058531631E+02  0.14127026357E+03  0.12509001596E+03 0.  0.
          5    1    3    3  502    0  0.64652219752E+02 -0.45527644357E+02  0.17073886319E+02  0.81004110473E+02  0.41800000000E+01 0.  1.
         -5    1    3    3    0  502 -0.55268025227E+02 -0.56292340900E+01  0.22984645312E+02  0.60266153097E+02  0.41800000000E+01 0.  1.
        -11    1    1    2    0    0  0.22067356322E+01  0.31315987558E+02  0.10322047297E+03  0.10788895587E+03  0.00000000000E+00 0. -1.
         11    1    1    2    0    0 -0.11590930157E+02  0.19840890889E+02 -0.16246453405E+02  0.28141745884E+02  0.00000000000E+00 0.  1.
</event>
<event>
 7    1  0.2641580E-009  0.1147696E+03  0.7561462E-02  0.1251984E+00
          2   -1    0    0  501    0  0.00000000000E+00  0.00000000000E+00  0.19982379475E+03  0.19982379475E+03  0.00000000000E+00 0. -1.
         -2   -1    0    0    0  501 -0.00000000000E+00 -0.00000000000E+00 -0.10388151131E+03  0.10388151131E+03  0.00000000000E+00 0.  1.
         25    2    1    2    0    0 -0.83990080164E+02  0.32843485963E+02  0.26020247269E+02  0.15638814432E+03  0.12508864968E+03 0.  0.
          5    1    3    3  502    0 -0.57145080326E+01  0.53660669620E+02  0.48015975763E+02  0.72354194036E+02  0.41800000000E+01 0. -1.
         -5    1    3    3    0  502 -0.78275572131E+02 -0.20817183657E+02 -0.21995728494E+02  0.84033950281E+02  0.41800000000E+01 0. -1.
        -11    1    1    2    0    0  0.21208161256E+02 -0.22072360912E+02 -0.20405622651E+02  0.36788104815E+02  0.00000000000E+00 0.  1.
         11    1    1    2    0    0  0.62781918908E+02 -0.10771125052E+02  0.90327658819E+02  0.11052905692E+03  0.00000000000E+00 0. -1.
</event>
<event>
 7    1  0.2641580E-009  0.8340628E+02  0.7561462E-02  0.1319654E+00
         -2   -1    0    0    0  501 -0.00000000000E+00  0.00000000000E+00  0.52789996962E+02  0.52789996962E+02  0.00000000000E+00 0. -1.
          2   -1    0    0  501    0  0.00000000000E+00 -0.00000000000E+00 -0.23397893945E+03  0.23397893945E+03  0.00000000000E+00 0.  1.
         25    2    1    2    0    0 -0.13653524596E+02  0.96059193067E+01 -0.12568366617E+03  0.17810061873E+03  0.12507899117E+03 0.  0.
          5    1    3    3  502    0  0.38745636045E+01 -0.29653137732E+02 -0.13112988412E+03  0.13456165773E+03  0.41800000000E+01 0. -1.
         -5    1    3    3    0  502 -0.17528088200E+02  0.39259057039E+02  0.54462179500E+01  0.43538961006E+02  0.41800000000E+01 0. -1.
        -11    1    1    2    0    0  0.37502529103E+02 -0.39970181097E+02 -0.32073941949E+02  0.63504274015E+02  0.00000000000E+00 0. -1.
         11    1    1    2    0    0 -0.23849004507E+02  0.30364261790E+02 -0.23431334372E+02  0.45164043668E+02  0.00000000000E+00 0.  1.
</event>
<event>
 7    1  0.2641580E-009  0.1573623E+03  0.7561462E-02  0.1191707E+00
         -2   -1    0    0    0  501 -0.00000000000E+00  0.00000000000E+00  0.75026698659E+02  0.75026698659E+02  0.00000000000E+00 0.  1.
          2   -1    0    0  501    0  0.00000000000E+00 -0.00000000000E+00 -0.35627693543E+03  0.35627693543E+03  0.00000000000E+00 0. -1.
         25    2    1    2    0    0  0.12090601275E+03 -0.54145994929E+01 -0.11573444300E+03  0.20901747229E+03  0.12508501357E+03 0.  0.
          5    1    3    3  502    0  0.13016937702E+02  0.45518815426E+02 -0.79690075997E+01  0.48191085348E+02  0.41800000000E+01 0.  1.
         -5    1    3    3    0  502  0.10788907505E+03 -0.50933414919E+02 -0.10776543540E+03  0.16082638694E+03  0.41800000000E+01 0.  1.
        -11    1    1    2    0    0 -0.71001319468E+02  0.45049504811E+02 -0.10362970825E+03  0.13345321908E+03  0.00000000000E+00 0.  1.
         11    1    1    2    0    0 -0.49904693285E+02 -0.39634905319E+02 -0.61886085522E+02  0.88832942723E+02  0.00000000000E+00 0. -1.
</event>
<event>
 7    1  0.2641580E-009  0.1985520E+03  0.7561462E-02  0.1150966E+00
         -1   -1    0    0    0  501 -0.00000000000E+00  0.00000000000E+00  0.32708772771E+03  0.32708772771E+03  0.00000000000E+00 0.  1.
          1   -1    0    0  501    0  0.00000000000E+00 -0.00000000000E+00 -0.15033380475E+03  0.15033380475E+03  0.00000000000E+00 0. -1.
         25    2    1    2    0    0 -0.23045894554E+02 -0.18870189545E+03  0.12967466732E+03  0.26191852850E+03  0.12508508156E+03 0.  0.
          5    1    3    3  502    0 -0.20761827506E+01 -0.16567278619E+03  0.45205072671E+02  0.17179276356E+03  0.41800000000E+01 0.  1.
         -5    1    3    3    0  502 -0.20969711803E+02 -0.23029109261E+02  0.84469594647E+02  0.90125764941E+02  0.41800000000E+01 0.  1.
        -11    1    1    2    0    0 -0.21435016398E+02  0.68306162078E+02 -0.14660115927E+02  0.73076061093E+02  0.00000000000E+00 0. -1.
         11    1    1    2    0    0  0.44480910952E+02  0.12039573337E+03  0.61739371564E+02  0.14242694286E+03  0.00000000000E+00 0.  1.
</event>
<event>
 7    1  0.2641580E-009  0.1234143E+03  0.7561462E-02  0.1237569E+00
          1   -1    0    0  501    0  0.00000000000E+00  0.00000000000E+00  0.29299015441E+03  0.29299015441E+03  0.00000000000E+00 0. -1.
         -1   -1    0    0    0  501 -0.00000000000E+00 -0.00000000000E+00 -0.69504814588E+02  0.69504814588E+02  0.00000000000E+00 0.  1.
         25    2    1    2    0    0 -0.48024541166E+02  0.75377271210E+02  0.87901378025E+02  0.17709327758E+03  0.12508911678E+03 0.  0.
          5    1    3    3  502    0  0.76594562807E+01  0.67885766662E+02 -0.48012948834E+01  0.68612458186E+02  0.41800000000E+01 0.  1.
         -5    1    3    3    0  502 -0.55683997446E+02  0.74915045481E+01  0.92702672908E+02  0.10848081939E+03  0.41800000000E+01 0.  1.
        -11    1    1    2    0    0  0.12580493625E+02 -0.84510235454E+02  0.70673281405E+02  0.11088264707E+03  0.00000000000E+00 0. -1.
         11    1    1    2    0    0  0.35444047540E+02  0.91329642434E+01  0.64910680389E+02  0.74519044347E+02  0.00000000000E+00 0.  1.
</event>
<event>
 7    1  0.2641580E-009  0.1170323E+03  0.7561462E-02  0.1248075E+00
          1   -1    0    0  501    0  0.00000000000E+00  0.00000000000E+00  0.53536019637E+03  0.53536019637E+03  0.00000000000E+00 0. -1.
         -1   -1    0    0    0  501 -0.00000000000E+00 -0.00000000000E+00 -0.28428746382E+02  0.28428746382E+02  0.00000000000E+00 0.  1.
         25    2    1    2    0    0 -0.48378480238E+02  0.13676445126E+02  0.22861604542E+03  0.26542262839E+03  0.12512534890E+03 0.  0.
          5    1    3    3  502    0 -0.74575029696E+02 -0.32535889778E+02  0.14296719905E+03  0.16455124303E+03  0.41800000000E+01 0. -1.
         -5    1    3    3    0  502  0.26196549458E+02  0.46212334904E+02  0.85648846372E+02  0.10087138537E+03  0.41800000000E+01 0. -1.
        -11    1    1    2    0    0  0.62435989338E+01 -0.45863362151E+02  0.74004476578E+02  0.87287416441E+02  0.00000000000E+00 0.  1.
         11    1    1    2    0    0  0.42134881304E+02  0.32186917024E+02  0.20431092799E+03  0.21107889792E+03  0.00000000000E+00 0. -1.
</event>
<event>
 7    1  0.2641580E-009  0.1646771E+03  0.7561462E-02  0.1183515E+00
         -2   -1    0    0    0  501 -0.00000000000E+00  0.00000000000E+00  0.16861167773E+03  0.16861167773E+03  0.00000000000E+00 0.  1.
          2   -1    0    0  501    0  0.00000000000E+00 -0.00000000000E+00 -0.31475011545E+03  0.31475011545E+03  0.00000000000E+00 0. -1.
         25    2    1    2    0    0 -0.14311693592E+03  0.27355976174E+01 -0.22562434435E+03  0.29503366273E+03  0.12509427062E+03 0.  0.
          5    1    3    3  502    0 -0.25078687623E+02  0.46281089488E+02 -0.25573622775E+02  0.58671649022E+02  0.41800000000E+01 0. -1.
         -5    1    3    3    0  502 -0.11803824830E+03 -0.43545491871E+02 -0.20005072157E+03  0.23636201371E+03  0.41800000000E+01 0. -1.
        -11    1    1    2    0    0  0.39266158463E+02  0.20429209655E+02  0.68232425679E+02  0.81331714120E+02  0.00000000000E+00 0.  1.
         11    1    1    2    0    0  0.10385077746E+03 -0.23164807273E+02  0.11253480953E+02  0.10699641633E+03  0.00000000000E+00 0. -1.
</event>
<event>
 7    1  0.2641580E-009  0.1506711E+03  0.7561462E-02  0.1199651E+00
         -2   -1    0    0    0  501 -0.00000000000E+00  0.00000000000E+00  0.79601873097E+02  0.79601873097E+02  0.00000000000E+00 0.  1.
          2   -1    0    0  501    0  0.00000000000E+00 -0.00000000000E+00 -0.30812608590E+03  0.30812608590E+03  0.00000000000E+00 0. -1.
         25    2    1    2    0    0  0.11122257213E+03 -0.18387794950E+02 -0.12365029665E+03  0.20891390431E+03  0.12508817690E+03 0.  0.
          5    1    3    3  502    0  0.77394384044E+02 -0.63480693057E+02 -0.39825568706E+02  0.10781111907E+03  0.41800000000E+01 0.  1.
         -5    1    3    3    0  502  0.33828188090E+02  0.45092898108E+02 -0.83824727942E+02  0.10110278524E+03  0.41800000000E+01 0.  1.
        -11    1    1    2    0    0 -0.51461724794E+02  0.54378692881E+02 -0.58977906613E+02  0.95308681801E+02  0.00000000000E+00 0.  1.
         11    1    1    2    0    0 -0.59760847340E+02 -0.35990897931E+02 -0.45896009545E+02  0.83505372886E+02  0.00000000000E+00 0. -1.
</event>
<event>
 7    1  0.2641580E-009  0.2127685E+03  0.7561462E-02  0.1139392E+00
          2   -1    0    0  501    0  0.00000000000E+00  0.00000000000E+00  0.19924948695E+04  0.19924948695E+04  0.00000000000E+00 0. -1.
         -2   -1    0    0    0  501 -0.00000000000E+00 -0.00000000000E+00 -0.31023408280E+02  0.31023408280E+02  0.00000000000E+00 0.  1.
         25    2    1    2    0    0 -0.26450282405E+02 -0.19746215441E+03  0.14181754440E+04  0.14375546874E+04  0.12510383524E+03 0.  0.
          5    1    3    3  502    0  0.33826128256E+02 -0.75236723737E+02  0.81431008353E+03  0.81848833595E+03  0.41800000000E+01 0. -1.
         -5    1    3    3    0  502 -0.60276410661E+02 -0.12222543067E+03  0.60386536046E+03  0.61906635149E+03  0.41800000000E+01 0. -1.
        -11    1    1    2    0    0 -0.17121088657E+02  0.59820190910E+02  0.26776158187E+03  0.27489607426E+03  0.00000000000E+00 0. -1.
         11    1    1    2    0    0  0.43571371063E+02  0.13764196350E+03  0.27553443540E+03  0.31106751612E+03  0.00000000000E+00 0.  1.
</event>
<event>
 7    1  0.2641580E-009  0.1357758E+03  0.7561462E-02  0.1219129E+00
          3   -1    0    0  501    0  0.00000000000E+00  0.00000000000E+00  0.43637146714E+03  0.43637146714E+03  0.00000000000E+00 0. -1.
         -3   -1    0    0    0  501 -0.00000000000E+00 -0.00000000000E+00 -0.84811633482E+02  0.84811633482E+02  0.00000000000E+00 0.  1.
         25    2    1    2    0    0  0.60048199078E+02 -0.11079596739E+03  0.55500953331E+02  0.18603372834E+03  0.12508660862E+03 0.  0.
          5    1    3    3  502    0  0.14115039829E+02 -0.20870805447E+02  0.78359986413E+02  0.82417138631E+02  0.41800000000E+01 0. -1.
         -5    1    3    3    0  502  0.45933159249E+02 -0.89925161942E+02 -0.22859033083E+02  0.10361658971E+03  0.41800000000E+01 0. -1.
        -11    1    1    2    0    0 -0.52340989761E+02  0.23606294870E+02  0.18522546252E+03  0.19392088163E+03  0.00000000000E+00 0. -1.
         11    1    1    2    0    0 -0.77072093174E+01  0.87189672519E+02  0.11083341780E+03  0.14122849065E+03  0.00000000000E+00 0.  1.
</event>
<event>
 7    1  0.2641580E-009  0.1186931E+03  0.7561462E-02  0.1245269E+00
          1   -1    0    0  501    0  0.00000000000E+00  0.00000000000E+00  0.89236280111E+03  0.89236280111E+03  0.00000000000E+00 0. -1.
         -1   -1    0    0    0  501 -0.00000000000E+00 -0.00000000000E+00 -0.21176263173E+02  0.21176263173E+02  0.00000000000E+00 0.  1.
         25    2    1    2    0    0 -0.41663107186E+02 -0.57195456510E+02  0.62930563286E+03  0.64550797414E+03  0.12509128819E+03 0.  0.
          5    1    3    3  502    0  0.39684176283E+02 -0.25488291151E+02  0.12468039104E+03  0.13336850881E+03  0.41800000000E+01 0.  1.
         -5    1    3    3    0  502 -0.81347283469E+02 -0.31707165360E+02  0.50462524182E+03  0.51213946533E+03  0.41800000000E+01 0.  1.
        -11    1    1    2    0    0  0.12279493578E+02  0.69642974267E+02  0.99205171855E+02  0.12183019310E+03  0.00000000000E+00 0. -1.
         11    1    1    2    0    0  0.29383613608E+02 -0.12447517757E+02  0.14267573322E+03  0.14620089705E+03  0.00000000000E+00 0.  1.
</event>
<event>
 7    1  0.2641580E-009  0.1126743E+03  0.7561462E-02  0.1255696E+00
          1   -1    0    0  501    0  0.00000000000E+00  0.00000000000E+00  0.12573191610E+03  0.12573191610E+03  0.00000000000E+00 0. -1.
         -1   -1    0    0    0  501 -0.00000000000E+00 -0.00000000000E+00 -0.12671222832E+03  0.12671222832E+03  0.00000000000E+00 0.  1.
         25    2    1    2    0    0 -0.51281472434E+02  0.23861994008E+02 -0.29256649207E+02  0.14036611726E+03  0.12509001231E+03 0.  0.
          5    1    3    3  502    0  0.19261655233E+01  0.65480084361E+02 -0.31154036648E+02  0.72659465736E+02  0.41800000000E+01 0.  1.
         -5    1    3    3    0  502 -0.53207637957E+02 -0.41618090353E+02  0.18973874412E+01  0.67706651524E+02  0.41800000000E+01 0.  1.
        -11    1    1    2    0    0  0.36948940381E+02  0.22662199929E+02  0.43163293643E+02  0.61170821631E+02  0.00000000000E+00 0. -1.
         11    1    1    2    0    0  0.14332532052E+02 -0.46524193937E+02 -0.14886956661E+02  0.50907205533E+02  0.00000000000E+00 0.  1.
</event>
<event>
 7    1  0.2641580E-009  0.1137444E+03  0.7561462E-02  0.1253789E+00
          1   -1    0    0  501    0  0.00000000000E+00  0.00000000000E+00  0.91587317171E+02  0.91587317171E+02  0.00000000000E+00 0. -1.
         -1   -1    0    0    0  501 -0.00000000000E+00 -0.00000000000E+00 -0.27973664181E+03  0.27973664181E+03  0.00000000000E+00 0.  1.
         25    2    1    2    0    0 -0.89270926982E+02  0.32327416783E+02 -0.17909017107E+03  0.23819138213E+03  0.12508990713E+03 0.  0.
          5    1    3    3  502    0  0.90698775026E+01  0.18255480129E+02  0.11095875783E+02  0.23582113816E+02  0.41800000000E+01 0.  1.
         -5    1    3    3    0  502 -0.98340804485E+02  0.14071936654E+02 -0.19018604685E+03  0.21460926831E+03  0.41800000000E+01 0.  1.
        -11    1    1    2    0    0  0.40900121750E+02 -0.41220258443E+02 -0.43955418405E+02  0.72828623991E+02  0.00000000000E+00 0.  1.
         11    1    1    2    0    0  0.48370805233E+02  0.88928416602E+01  0.34896264834E+02  0.60303952864E+02  0.00000000000E+00 0. -1.
</event>
<event>
 7    1  0.3463899E-009  0.2427387E+03  0.7561462E-02  0.1117982E+00
         -2   -1    0    0    0  501 -0.00000000000E+00  0.00000000000E+00  0.27479803266E+03  0.27479803266E+03  0.00000000000E+00 0.  1.
          2   -1    0    0  501    0  0.00000000000E+00 -0.00000000000E+00 -0.23566926332E+03  0.23566926332E+03  0.00000000000E+00 0. -1.
         25    2    1    2    0    0 -0.12344238601E+03 -0.18289425829E+03  0.84628961310E+02  0.26739147033E+03  0.12509118646E+03 0.  0.
          5    1    3    3  502    0  0.75054713158E+01  0.11069967124E+02  0.20263939587E+02  0.24636881283E+02  0.41800000000E+01 0.  1.
         -5    1    3    3    0  502 -0.13094785732E+03 -0.19396422542E+03  0.64365021723E+02  0.24275458904E+03  0.41800000000E+01 0.  1.
        -11    1    1    2    0    0  0.37152840996E+02  0.13219684620E+03 -0.39167812872E+02  0.14279515855E+03  0.00000000000E+00 0. -1.
         11    1    1    2    0    0  0.86289545011E+02  0.50697412095E+02 -0.63323791017E+01  0.10028066711E+03  0.00000000000E+00 0.  1.
</event>
<event>
 7    1  0.2641580E-009  0.1928363E+03  0.7561462E-02  0.1155928E+00
          1   -1    0    0  501    0  0.00000000000E+00  0.00000000000E+00  0.35189794423E+03  0.35189794423E+03  0.00000000000E+00 0. -1.
         -1   -1    0    0    0  501 -0.00000000000E+00 -0.00000000000E+00 -0.12506849035E+03  0.12506849035E+03  0.00000000000E+00 0.  1.
         25    2    1    2    0    0  0.63733603485E+02 -0.16104556816E+03  0.16979348635E+03  0.27289660261E+03  0.12508029609E+03 0.  0.
          5    1    3    3  502    0  0.98009695170E+02 -0.14134890830E+03  0.12301188142E+03  0.21150605097E+03  0.41800000000E+01 0.  1.
         -5    1    3    3    0  502 -0.34276091685E+02 -0.19696659857E+02  0.46781604933E+02  0.61390551641E+02  0.41800000000E+01 0.  1.
        -11    1    1    2    0    0 -0.92169048533E+01  0.40954054686E+02  0.58708771665E+02  0.72172749710E+02  0.00000000000E+00 0.  1.
         11    1    1    2    0    0 -0.54516698632E+02  0.12009151347E+03 -0.16728041356E+01  0.13189708227E+03  0.00000000000E+00 0. -1.
</event>
<event>
 7    1  0.2641580E-009  0.8789159E+02  0.7561462E-02  0.1308039E+00
         -1   -1    0    0    0  501 -0.00000000000E+00  0.00000000000E+00  0.77475796896E+02  0.77475796896E+02  0.00000000000E+00 0.  1.
          1   -1    0    0  501    0  0.00000000000E+00 -0.00000000000E+00 -0.15755932956E+03  0.15755932956E+03  0.00000000000E+00 0. -1.
         25    2    1    2    0    0  0.19085020081E+02  0.35806685961E+02 -0.30232829862E+02  0.13493624497E+03  0.12508960570E+03 0.  0.
          5    1    3    3  502    0 -0.21122461127E+02  0.71260227763E+02 -0.32254625844E+02  0.81129598256E+02  0.41800000000E+01 0.  1.
         -5    1    3    3    0  502  0.40207481207E+02 -0.35453541801E+02  0.20217959824E+01  0.53806646711E+02  0.41800000000E+01 0.  1.
        -11    1    1    2    0    0 -0.15880816283E+02 -0.50721366907E+01 -0.63983171913E+02  0.66119385845E+02  0.00000000000E+00 0. -1.
         11    1    1    2    0    0 -0.32042037972E+01 -0.30734549271E+02  0.14132469113E+02  0.33979495642E+02  0.00000000000E+00 0.  1.
</event>
<event>
 7    1  0.2641580E-009  0.1378383E+03  0.7561462E-02  0.1216268E+00
          1   -1    0    0  501    0  0.00000000000E+00  0.00000000000E+00  0.80166228530E+03  0.80166228530E+03  0.00000000000E+00 0. -1.
         -1   -1    0    0    0  501 -0.00000000000E+00 -0.00000000000E+00 -0.33982206996E+02  0.33982206996E+02  0.00000000000E+00 0.  1.
         25    2    1    2    0    0  0.36604823072E+02 -0.85847540059E+02  0.61674012316E+03  0.63618003588E+03  0.12508775053E+03 0.  0.
          5    1    3    3  502    0 -0.41519715011E+02 -0.91603512426E+01  0.24249307570E+03  0.24622786791E+03  0.41800000000E+01 0. -1.
         -5    1    3    3    0  502  0.78124538083E+02 -0.76687188816E+02  0.37424704746E+03  0.38995216797E+03  0.41800000000E+01 0. -1.
        -11    1    1    2    0    0 -0.12634413285E+02  0.96389804219E+02  0.87346629293E+02  0.13069068982E+03  0.00000000000E+00 0.  1.
         11    1    1    2    0    0 -0.23970409787E+02 -0.10542264160E+02  0.63593325848E+02  0.68773766593E+02  0.00000000000E+00 0. -1.
</event>
<event>
 7    1  0.2641580E-009  0.1236428E+03  0.7561462E-02  0.1237206E+00
          2   -1    0    0  501    0  0.00000000000E+00  0.00000000000E+00  0.36890880341E+02  0.36890880341E+02  0.00000000000E+00 0. -1.
         -2   -1    0    0    0  501 -0.00000000000E+00 -0.00000000000E+00 -0.57038247295E+03  0.57038247295E+03  0.00000000000E+00 0.  1.
         25    2    1    2    0    0 -0.76178544598E+02 -0.41953354611E+02 -0.38045404516E+03  0.40982460428E+03  0.12509065184E+03 0.  0.
          5    1    3    3  502    0 -0.55961740981E+02  0.18195566848E+02 -0.30722203311E+03  0.31283485282E+03  0.41800000000E+01 0. -1.
         -5    1    3    3    0  502 -0.20216803617E+02 -0.60148921459E+02 -0.73232012048E+02  0.96989751467E+02  0.41800000000E+01 0. -1.
        -11    1    1    2    0    0  0.36790875396E+02  0.68113792236E+02 -0.98038622025E+02  0.12491848788E+03  0.00000000000E+00 0.  1.
         11    1    1    2    0    0  0.39387669202E+02 -0.26160437625E+02 -0.54998925425E+02  0.72530261131E+02  0.00000000000E+00 0. -1.
</event>
<event>
 7    1  0.2641580E-009  0.1259149E+03  0.7561462E-02  0.1233646E+00
         -1   -1    0    0    0  501 -0.00000000000E+00  0.00000000000E+00  0.30082394800E+03  0.30082394800E+03  0.00000000000E+00 0.  1.
          1   -1    0    0  501    0  0.00000000000E+00 -0.00000000000E+00 -0.78870555946E+02  0.78870555946E+02  0.00000000000E+00 0. -1.
         25    2    1    2    0    0  0.19296217964E+02  0.10752117148E+03  0.12001409266E+03  0.20489884548E+03  0.12508800141E+03 0.  0.
          5    1    3    3  502    0  0.13957625625E+02  0.38220016976E+02 -0.22209884797E+02  0.46543918974E+02  0.41800000000E+01 0.  1.
         -5    1    3    3    0  502  0.53385923390E+01  0.69301154506E+02  0.14222397746E+03  0.15835492651E+03  0.41800000000E+01 0.  1.
        -11    1    1    2    0    0  0.26782119442E+02 -0.86678224383E+02  0.73612151956E+02  0.11682955713E+03  0.00000000000E+00 0. -1.
         11    1    1    2    0    0 -0.46078337406E+02 -0.20842947099E+02  0.28327147429E+02  0.57966101329E+02  0.00000000000E+00 0.  1.
</event>
<event>
 7    1  0.2641580E-009  0.8115965E+02  0.7561462E-02  0.1325792E+00
          2   -1    0    0  501    0  0.00000000000E+00  0.00000000000E+00  0.14325687933E+04  0.14325687933E+04  0.00000000000E+00 0.  1.
         -2   -1    0    0    0  501 -0.00000000000E+00 -0.00000000000E+00 -0.19201089207E+02  0.19201089207E+02  0.00000000000E+00 0. -1.
         25    2    1    2    0    0  0.11883421517E+01 -0.33965610668E+01  0.13167430574E+04  0.13226761063E+04  0.12508738553E+03 0.  0.
          5    1    3    3  502    0  0.18917528348E+02  0.54098180511E+02  0.42078787112E+03  0.42469329038E+03  0.41800000000E+01 0. -1.
         -5    1    3    3    0  502 -0.17729186196E+02 -0.57494741578E+02  0.89595518631E+03  0.89798281588E+03  0.41800000000E+01 0. -1.
        -11    1    1    2    0    0 -0.63759123212E+01 -0.19786829877E+02 -0.76466237694E+01  0.22150434523E+02  0.00000000000E+00 0. -1.
         11    1    1    2    0    0  0.51875701695E+01  0.23183390944E+02  0.10427127044E+03  0.10694334172E+03  0.00000000000E+00 0.  1.
</event>
<event>
 7    1  0.2641580E-009  0.9468106E+02  0.7561462E-02  0.1291896E+00
          1   -1    0    0  501    0  0.00000000000E+00  0.00000000000E+00  0.10058996421E+03  0.10058996421E+03  0.00000000000E+00 0. -1.
         -1   -1    0    0    0  501 -0.00000000000E+00 -0.00000000000E+00 -0.17364683914E+03  0.17364683914E+03  0.00000000000E+00 0.  1.
         25    2    1    2    0    0 -0.59951857777E+02 -0.22664715094E+02 -0.84381246884E+02  0.16393896404E+03  0.12509146472E+03 0.  0.
          5    1    3    3  502    0  0.40315706611E+01 -0.22621590150E+02  0.26827559672E+02  0.35569372511E+02  0.41800000000E+01 0.  1.
         -5    1    3    3    0  502 -0.63983428439E+02 -0.43124944330E-01 -0.11120880656E+03  0.12836959153E+03  0.41800000000E+01 0.  1.
        -11    1    1    2    0    0  0.77589837564E+02  0.29447425182E+02 -0.78699231078E+01  0.83362278236E+02  0.00000000000E+00 0.  1.
         11    1    1    2    0    0 -0.17637979786E+02 -0.67827100877E+01  0.19194295065E+02  0.26935561069E+02  0.00000000000E+00 0. -1.
</event>
<event>
 7    1  0.2641580E-009  0.1220957E+03  0.7561462E-02  0.1239679E+00
         -4   -1    0    0    0  501 -0.00000000000E+00  0.00000000000E+00  0.11231370658E+04  0.11231370658E+04  0.00000000000E+00 0.  1.
          4   -1    0    0  501    0  0.00000000000E+00 -0.00000000000E+00 -0.13508897000E+02  0.13508897000E+02  0.00000000000E+00 0. -1.
         25    2    1    2    0    0 -0.54018895104E+02  0.12978585487E+02  0.58567409711E+03  0.60145744739E+03  0.12510167178E+03 0.  0.
          5    1    3    3  502    0 -0.52461278289E+01  0.64059778663E+02  0.23193129230E+03  0.24070889856E+03  0.41800000000E+01 0.  1.
         -5    1    3    3    0  502 -0.48772767275E+02 -0.51081193176E+02  0.35374280481E+03  0.36074854882E+03  0.41800000000E+01 0.  1.
        -11    1    1    2    0    0  0.69752533959E+02  0.19939602966E+02  0.35622246341E+03  0.36353465749E+03  0.00000000000E+00 0.  1.
         11    1    1    2    0    0 -0.15733638855E+02 -0.32918188453E+02  0.16773160826E+03  0.17165385790E+03  0.00000000000E+00 0. -1.
</event>
<event>
 7    1  0.2641580E-009  0.1158067E+03  0.7561462E-02  0.1250180E+00
         -1   -1    0    0    0  501 -0.00000000000E+00  0.00000000000E+00  0.45716981309E+02  0.45716981309E+02  0.00000000000E+00 0. -1.
          1   -1    0    0  501    0  0.00000000000E+00 -0.00000000000E+00 -0.44897704103E+03  0.44897704103E+03  0.00000000000E+00 0.  1.
         25    2    1    2    0    0 -0.33218521484E+02 -0.57175755152E+02 -0.33467425856E+03  0.36335535793E+03  0.12509084557E+03 0.  0.
          5    1    3    3  502    0 -0.12892665007E+02 -0.87114505582E+02 -0.14106408867E+03  0.16634815119E+03  0.41800000000E+01 0.  1.
         -5    1    3    3    0  502 -0.20325856477E+02  0.29938750430E+02 -0.19361016990E+03  0.19700720674E+03  0.41800000000E+01 0.  1.
        -11    1    1    2    0    0 -0.65878129975E+01 -0.19526197442E+02 -0.30717360576E+02  0.36989564845E+02  0.00000000000E+00 0.  1.
         11    1    1    2    0    0  0.39806334481E+02  0.76701952595E+02 -0.37868440582E+02  0.94349099565E+02  0.00000000000E+00 0. -1.
</event>
<event>
 7    1  0.2641580E-009  0.1808958E+03  0.7561462E-02  0.1166939E+00
          2   -1    0    0  501    0  0.00000000000E+00  0.00000000000E+00  0.45788334337E+03  0.45788334337E+03  0.00000000000E+00 0. -1.
         -2   -1    0    0    0  501 -0.00000000000E+00 -0.00000000000E+00 -0.95653253813E+02  0.95653253813E+02  0.00000000000E+00 0.  1.
         25    2    1    2    0    0  0.12488754570E+03  0.80846882844E+02  0.60102792011E+02  0.20345489397E+03  0.12509368785E+03 0.  0.
          5    1    3    3  502    0 -0.21549061861E+02  0.76928198168E+01  0.28329804745E+02  0.36655037590E+02  0.41800000000E+01 0.  1.
         -5    1    3    3    0  502  0.14643660756E+03  0.73154063027E+02  0.31772987266E+02  0.16679985639E+03  0.41800000000E+01 0.  1.
        -11    1    1    2    0    0 -0.13702627559E+03 -0.85804120900E+02  0.26201244687E+03  0.30787833584E+03  0.00000000000E+00 0.  1.
         11    1    1    2    0    0  0.12138729890E+02  0.49572380567E+01  0.40114850669E+02  0.42203367362E+02  0.00000000000E+00 0. -1.
</event>
<event>
 7    1  0.2641580E-009  0.1092211E+03  0.7561462E-02  0.1262019E+00
          4   -1    0    0  501    0  0.00000000000E+00  0.00000000000E+00  0.42910265912E+03  0.42910265912E+03  0.00000000000E+00 0. -1.
         -4   -1    0    0    0  501 -0.00000000000E+00 -0.00000000000E+00 -0.39959378883E+02  0.39959378883E+02  0.00000000000E+00 0.  1.
         25    2    1    2    0    0  0.41886718103E+02  0.51152195357E+02  0.17237108576E+03  0.22300902039E+03  0.12510071034E+03 0.  0.
          5    1    3    3  502    0 -0.23294055081E+02 -0.26721623500E+02  0.23446210189E+02  0.42706619356E+02  0.41800000000E+01 0. -1.
         -5    1    3    3    0  502  0.65180773184E+02  0.77873818857E+02  0.14892487557E+03  0.18030240104E+03  0.41800000000E+01 0. -1.
        -11    1    1    2    0    0 -0.45417948073E+02 -0.19779312454E+02  0.20723404476E+03  0.21307266487E+03  0.00000000000E+00 0. -1.
         11    1    1    2    0    0  0.35312299704E+01 -0.31372882903E+02  0.95381497195E+01  0.32980352739E+02  0.00000000000E+00 0.  1.
</event>
<event>
 6    1  0.2641580E-009  0.1044654E+03  0.7561462E-02  0.1271176E+00
          1   -1    0    0  501    0  0.00000000000E+00  0.00000000000E+00  0.27775018300E+03  0.27775018300E+03  0.00000000000E+00 0. -1.
         -1   -1    0    0    0  501 -0.00000000000E+00 -0.00000000000E+00 -0.52954102374E+02  0.52954102374E+02  0.00000000000E+00 0.  1.
          5    1    1    2  502    0 -0.18902060716E+02  0.72104156673E+02  0.74790024965E+02  0.10567552954E+03  0.41800000000E+01 0. -1.
         -5    1    1    2    0  502  0.21276696295E+01 -0.43864010198E+02  0.12187716966E+03  0.12961518142E+03  0.41800000000E+01 0. -1.
        -11    1    1    2    0    0  0.50406380436E+02 -0.83718585460E+01  0.22933020368E+02  0.56007272987E+02  0.00000000000E+00 0.  1.
         11    1    1    2    0    0 -0.33631989350E+02 -0.19868287929E+02  0.51958656281E+01  0.39406301431E+02  0.00000000000E+00 0. -1.
</event>
<event>
 7    1  0.2641580E-009  0.9777901E+02  0.7561462E-02  0.1285037E+00
         -1   -1    0    0    0  501 -0.00000000000E+00  0.00000000000E+00  0.93998278785E+02  0.93998278785E+02  0.00000000000E+00 0.  1.
          1   -1    0    0  501    0  0.00000000000E+00 -0.00000000000E+00 -0.13635421848E+03  0.13635421848E+03  0.00000000000E+00 0. -1.
         25    2    1    2    0    0 -0.21382778750E+02 -0.15897474388E+02 -0.23602174148E+02  0.13005554970E+03  0.12508968968E+03 0.  0.
          5    1    3    3  502    0  0.23400781887E+02  0.44740095599E+02 -0.20011839860E+02  0.54472184478E+02  0.41800000000E+01 0. -1.
         -5    1    3    3    0  502 -0.44783560637E+02 -0.60637569987E+02 -0.35903342876E+01  0.75583365217E+02  0.41800000000E+01 0. -1.
        -11    1    1    2    0    0  0.26523634341E+02  0.38202372526E+02 -0.45520855350E+02  0.65077436313E+02  0.00000000000E+00 0. -1.
         11    1    1    2    0    0 -0.51408555918E+01 -0.22304898138E+02  0.26767089799E+02  0.35219511261E+02  0.00000000000E+00 0.  1.
</event>
<event>
 7    1  0.2641580E-009  0.1086224E+03  0.7561462E-02  0.1263142E+00
          3   -1    0    0  501    0  0.00000000000E+00  0.00000000000E+00  0.12048890640E+03  0.12048890640E+03  0.00000000000E+00 0.  1.
         -3   -1    0    0    0  501 -0.00000000000E+00 -0.00000000000E+00 -0.16106257078E+03  0.16106257078E+03  0.00000000000E+00 0. -1.
         25    2    1    2    0    0 -0.79500197674E+02 -0.30054373383E+02 -0.16245456651E+02  0.15210277523E+03  0.12509113710E+03 0.  0.
          5    1    3    3  502    0 -0.12045455030E+02  0.31535494210E+02  0.33725832233E+02  0.47900778091E+02  0.41800000000E+01 0.  1.
         -5    1    3    3    0  502 -0.67454742645E+02 -0.61589867592E+02 -0.49971288884E+02  0.10420199714E+03  0.41800000000E+01 0.  1.
        -11    1    1    2    0    0  0.56824358320E+02  0.35855676455E+01  0.30414978791E+02  0.64551800352E+02  0.00000000000E+00 0.  1.
         11    1    1    2    0    0  0.22675839354E+02  0.26468805737E+02 -0.54743186512E+02  0.64896901599E+02  0.00000000000E+00 0. -1.
</event>
<event>
 7    1  0.2641580E-009  0.1067127E+03  0.7561462E-02  0.1266781E+00
         -3   -1    0    0    0  501 -0.00000000000E+00  0.00000000000E+00  0.11896387859E+03  0.11896387859E+03  0.00000000000E+00 0.  1.
          3   -1    0    0  501    0  0.00000000000E+00 -0.00000000000E+00 -0.11912919394E+03  0.11912919394E+03  0.00000000000E+00 0. -1.
         25    2    1    2    0    0 -0.24485427740E+02  0.36135276111E+02  0.18906089046E+02  0.13382999342E+03  0.12509089729E+03 0.  0.
          5    1    3    3  502    0 -0.24805175598E+02 -0.42193654241E+02 -0.10185821877E+02  0.50167963502E+02  0.41800000000E+01 0.  1.
         -5    1    3    3    0  502  0.31974785757E+00  0.78328930353E+02  0.29091910923E+02  0.83662029918E+02  0.41800000000E+01 0.  1.
        -11    1    1    2    0    0  0.43662007294E+02  0.14288437552E+01  0.18819170905E+02  0.47566518361E+02  0.00000000000E+00 0.  1.
         11    1    1    2    0    0 -0.19176579554E+02 -0.37564119867E+02 -0.37890575296E+02  0.56696560751E+02  0.00000000000E+00 0. -1.
</event>
<event>
 7    1  0.2641580E-009  0.1339655E+03  0.7561462E-02  0.1221688E+00
         -2   -1    0    0    0  501 -0.00000000000E+00  0.00000000000E+00  0.36064389557E+02  0.36064389557E+02  0.00000000000E+00 0.  1.
          2   -1    0    0  501    0  0.00000000000E+00 -0.00000000000E+00 -0.67449851908E+03  0.67449851908E+03  0.00000000000E+00 0. -1.
         25    2    1    2    0    0 -0.83428864795E+02 -0.57340456858E+02 -0.23437332188E+03  0.28430148700E+03  0.12509267775E+03 0.  0.
          5    1    3    3  502    0 -0.98288229317E+02 -0.33812090724E+02 -0.91056868728E+02  0.13824854156E+03  0.41800000000E+01 0. -1.
         -5    1    3    3    0  502  0.14859364522E+02 -0.23528366133E+02 -0.14331645315E+03  0.14605294544E+03  0.41800000000E+01 0. -1.
        -11    1    1    2    0    0 -0.50627684851E+01  0.46313551936E+02 -0.13689792523E+03  0.14460850131E+03  0.00000000000E+00 0. -1.
         11    1    1    2    0    0  0.88491633280E+02  0.11026904922E+02 -0.26716288241E+03  0.28165292033E+03  0.00000000000E+00 0.  1.
</event>
<event>
 7    1  0.2641580E-009  0.1511769E+03  0.7561462E-02  0.1199034E+00
          4   -1    0    0  501    0  0.00000000000E+00  0.00000000000E+00  0.39612097677E+02  0.39612097677E+02  0.00000000000E+00 0. -1.
         -4   -1    0    0    0  501 -0.00000000000E+00 -0.00000000000E+00 -0.82831756706E+03  0.82831756706E+03  0.00000000000E+00 0.  1.
         25    2    1    2    0    0 -0.13095036656E+03 -0.54940318116E+02 -0.48156216606E+03  0.51741123959E+03  0.12508330831E+03 0.  0.
          5    1    3    3  502    0 -0.36109528587E+02 -0.44392754273E+02 -0.52252723758E+02  0.77604344123E+02  0.41800000000E+01 0. -1.
         -5    1    3    3    0  502 -0.94840837972E+02 -0.10547563843E+02 -0.42930944231E+03  0.43980689547E+03  0.41800000000E+01 0. -1.
        -11    1    1    2    0    0  0.60800582156E+02  0.73017620790E+00 -0.21167140981E+03  0.22023176356E+03  0.00000000000E+00 0.  1.
         11    1    1    2    0    0  0.70149784403E+02  0.54210141908E+02 -0.95471893511E+02  0.13028666159E+03  0.00000000000E+00 0. -1.
</event>
<event>
 7    1  0.2641580E-009  0.9978962E+02  0.7561462E-02  0.1280739E+00
         -2   -1    0    0    0  501 -0.00000000000E+00  0.00000000000E+00  0.32030124411E+02  0.32030124411E+02  0.00000000000E+00 0. -1.
          2   -1    0    0  501    0  0.00000000000E+00 -0.00000000000E+00 -0.69988702788E+03  0.69988702788E+03  0.00000000000E+00 0.  1.
         25    2    1    2    0    0 -0.52043151630E+02 -0.56158566385E+02 -0.19528781440E+03  0.24423182898E+03  0.12509828785E+03 0.  0.
          5    1    3    3  502    0 -0.58739958846E+01 -0.36182815585E+02  0.54052082394E+01  0.37287915568E+02  0.41800000000E+01 0. -1.
         -5    1    3    3    0  502 -0.46169155746E+02 -0.19975750801E+02 -0.20069302264E+03  0.20694391341E+03  0.41800000000E+01 0. -1.
        -11    1    1    2    0    0 -0.10157144381E+02 -0.14733612438E+02 -0.28055291792E+02  0.33276813474E+02  0.00000000000E+00 0. -1.
         11    1    1    2    0    0  0.62200296011E+02  0.70892178823E+02 -0.44451379728E+03  0.45440850984E+03  0.00000000000E+00 0.  1.
</event>
<event>
 7    1  0.2641580E-009  0.1315342E+03  0.7561462E-02  0.1225197E+00
         -2   -1    0    0    0  501 -0.00000000000E+00  0.00000000000E+00  0.23040353931E+03  0.23040353931E+03  0.00000000000E+00 0. -1.
          2   -1    0    0  501    0  0.00000000000E+00 -0.00000000000E+00 -0.83907329379E+02  0.83907329379E+02  0.00000000000E+00 0.  1.
         25    2    1    2    0    0 -0.50512999575E+02  0.63981935172E+02  0.12254378430E+03  0.19315928430E+03  0.12509308090E+03 0.  0.
          5    1    3    3  502    0 -0.71771296929E+02  0.88747944799E+02  0.80321565796E+02  0.13962930602E+03  0.41800000000E+01 0. -1.
         -5    1    3    3    0  502  0.21258297355E+02 -0.24766009627E+02  0.42222218505E+02  0.53529978280E+02  0.41800000000E+01 0. -1.
        -11    1    1    2    0    0  0.65425286169E+02 -0.18360516864E+02  0.26855597766E+02  0.73067090959E+02  0.00000000000E+00 0. -1.
         11    1    1    2    0    0 -0.14912286595E+02 -0.45621418308E+02 -0.29031721323E+01  0.48084493429E+02  0.00000000000E+00 0.  1.
</event>
<event>
 7    1  0.2641580E-009  0.8971865E+02  0.7561462E-02  0.1303534E+00
         -1   -1    0    0    0  501 -0.00000000000E+00  0.00000000000E+00  0.34066313276E+02  0.34066313276E+02  0.00000000000E+00 0.  1.
          1   -1    0    0  501    0  0.00000000000E+00 -0.00000000000E+00 -0.46197106192E+03  0.46197106192E+03  0.00000000000E+00 0. -1.
         25    2    1    2    0    0 -0.51145384385E+02 -0.35500808404E+02 -0.18988443729E+03  0.23574634148E+03  0.12507629774E+03 0.  0.
          5    1    3    3  502    0 -0.15789031443E+02 -0.36961661758E+02  0.21184647413E+01  0.40465024980E+02  0.41800000000E+01 0. -1.
         -5    1    3    3    0  502 -0.35356352943E+02  0.14608533538E+01 -0.19200290203E+03  0.19528131650E+03  0.41800000000E+01 0. -1.
        -11    1    1    2    0    0  0.35212515085E+02 -0.23465093214E+02 -0.73672437774E+02  0.84959754623E+02  0.00000000000E+00 0.  1.
         11    1    1    2    0    0  0.15932869301E+02  0.58965901618E+02 -0.16434787358E+03  0.17533127909E+03  0.00000000000E+00 0. -1.
</event>
<event>
 7    1  0.2641580E-009  0.8310548E+02  0.7561462E-02  0.1320463E+00
         -1   -1    0    0    0  501 -0.00000000000E+00  0.00000000000E+00  0.19868016847E+03  0.19868016847E+03  0.00000000000E+00 0.  1.
          1   -1    0    0  501    0  0.00000000000E+00 -0.00000000000E+00 -0.75053286369E+02  0.75053286369E+02  0.00000000000E+00 0. -1.
         25    2    1    2    0    0  0.72487775564E+01  0.30636020942E+02  0.11970040535E+03  0.17597429244E+03  0.12509058319E+03 0.  0.
          5    1    3    3  502    0  0.43323524227E+02 -0.74755923387E+01 -0.11272674451E+01  0.44176411853E+02  0.41800000000E+01 0.  1.
         -5    1    3    3    0  502 -0.36074746671E+02  0.38111613281E+02  0.12082767279E+03  0.13179788058E+03  0.41800000000E+01 0.  1.
        -11    1    1    2    0    0  0.64193373372E+01 -0.47367581521E+02 -0.30797436564E+02  0.56862797767E+02  0.00000000000E+00 0. -1.
         11    1    1    2    0    0 -0.13668114894E+02  0.16731560579E+02  0.34723913316E+02  0.40896364632E+02  0.00000000000E+00 0.  1.
</event>
<event>
 7    1  0.2641580E-009  0.1219374E+03  0.7561462E-02  0.1239935E+00
          2   -1    0    0  501    0  0.00000000000E+00  0.00000000000E+00  0.11049753363E+03  0.11049753363E+03  0.00000000000E+00 0. -1.
         -2   -1    0    0    0  501 -0.00000000000E+00 -0.00000000000E+00 -0.13622394731E+03  0.13622394731E+03  0.00000000000E+00 0.  1.
         25    2    1    2    0    0 -0.20537062902E+02 -0.52559487277E+02 -0.20753274933E+02  0.13878815362E+03  0.12508869857E+03 0.  0.
          5    1    3    3  502    0  0.54102105458E+01 -0.90651950478E+02 -0.15316633537E+02  0.92190662036E+02  0.41800000000E+01 0. -1.
         -5    1    3    3    0  502 -0.25947273448E+02  0.38092463201E+02 -0.54366413955E+01  0.46597491582E+02  0.41800000000E+01 0. -1.
        -11    1    1    2    0    0 -0.32798844063E+02  0.40298712509E+02 -0.10222391086E+02  0.52955147826E+02  0.00000000000E+00 0.  1.
         11    1    1    2    0    0  0.53335906965E+02  0.12260774768E+02  0.52492523386E+01  0.54978179488E+02  0.00000000000E+00 0. -1.
</event>
<event>
 7    1  0.2641580E-009  0.9918036E+02  0.7561462E-02  0.1282029E+00
         -1   -1    0    0    0  501 -0.00000000000E+00  0.00000000000E+00  0.29670323848E+02  0.29670323848E+02  0.00000000000E+00 0.  1.
          1   -1    0    0  501    0  0.00000000000E+00 -0.00000000000E+00 -0.73052718855E+03  0.73052718855E+03  0.00000000000E+00 0. -1.
         25    2    1    2    0    0 -0.11631284078E+02  0.96155281194E+02 -0.36186649970E+03  0.39494473524E+03  0.12511137204E+03 0.  0.
          5    1    3    3  502    0  0.11452787330E+01  0.73613081700E+02 -0.36124153166E+03  0.36869108215E+03  0.41800000000E+01 0.  1.
         -5    1    3    3    0  502 -0.12776562811E+02  0.22542199493E+02 -0.62496803886E+00  0.26253653085E+02  0.41800000000E+01 0.  1.
        -11    1    1    2    0    0  0.16130586712E+02 -0.70000515929E+02 -0.32923027037E+03  0.33697602138E+03  0.00000000000E+00 0. -1.
         11    1    1    2    0    0 -0.44993026345E+01 -0.26154765265E+02 -0.97600946308E+01  0.28276755780E+02  0.00000000000E+00 0.  1.
</event>
<event>
 7    1  0.2641580E-009  0.6343711E+02  0.7561462E-02  0.1383949E+00
         -2   -1    0    0    0  501 -0.00000000000E+00  0.00000000000E+00  0.64938966842E+02  0.64938966842E+02  0.00000000000E+00 0.  1.
          2   -1    0    0  501    0  0.00000000000E+00 -0.00000000000E+00 -0.18439446116E+03  0.18439446116E+03  0.00000000000E+00 0. -1.
         25    2    1    2    0    0 -0.72546117758E+01 -0.20357675400E+01 -0.88431347822E+02  0.15337632045E+03  0.12508964248E+03 0.  0.
          5    1    3    3  502    0  0.19445661574E+02 -0.22897972651E+02  0.22206485961E+02  0.37590574940E+02  0.41800000000E+01 0. -1.
         -5    1    3    3    0  502 -0.26700273350E+02  0.20862205111E+02 -0.11063783378E+03  0.11578574551E+03  0.41800000000E+01 0. -1.
        -11    1    1    2    0    0  0.32548462150E+02 -0.10463930601E+02  0.18564362722E+02  0.38904135966E+02  0.00000000000E+00 0.  1.
         11    1    1    2    0    0 -0.25293850374E+02  0.12499698141E+02 -0.49588509220E+02  0.57052971588E+02  0.00000000000E+00 0. -1.
</event>
<event>
 7    1  0.2641580E-009  0.9077317E+02  0.7561462E-02  0.1300990E+00
         -2   -1    0    0    0  501 -0.00000000000E+00  0.00000000000E+00  0.28639037589E+02  0.28639037589E+02  0.00000000000E+00 0.  1.
          2   -1    0    0  501    0  0.00000000000E+00 -0.00000000000E+00 -0.45389025555E+03  0.45389025555E+03  0.00000000000E+00 0. -1.
         25    2    1    2    0    0  0.12028800873E+02  0.33682993356E+02 -0.23259769389E+03  0.26650872370E+03  0.12508387792E+03 0.  0.
          5    1    3    3  502    0  0.68666262429E+02  0.17415630283E+02 -0.12296125599E+03  0.14196937222E+03  0.41800000000E+01 0. -1.
         -5    1    3    3    0  502 -0.56637461556E+02  0.16267363073E+02 -0.10963643790E+03  0.12453935148E+03  0.41800000000E+01 0. -1.
        -11    1    1    2    0    0 -0.25494142354E+02 -0.22534687838E+02 -0.19538622084E+03  0.19832684827E+03  0.00000000000E+00 0. -1.
         11    1    1    2    0    0  0.13465341481E+02 -0.11148305518E+02  0.27326967655E+01  0.17693721167E+02  0.00000000000E+00 0.  1.
</event>
<event>
 7    1  0.2641580E-009  0.1007375E+03  0.7561462E-02  0.1278753E+00
          2   -1    0    0  501    0  0.00000000000E+00  0.00000000000E+00  0.20933405274E+03  0.20933405274E+03  0.00000000000E+00 0. -1.
         -2   -1    0    0    0  501 -0.00000000000E+00 -0.00000000000E+00 -0.12112763986E+03  0.12112763986E+03  0.00000000000E+00 0.  1.
         25    2    1    2    0    0 -0.38687663125E+02  0.21532976235E+02 -0.64232482934E+02  0.14742652451E+03  0.12509342077E+03 0.  0.
          5    1    3    3  502    0 -0.68007004322E+02  0.12969027108E+02  0.70960481018E+01  0.69720689897E+02  0.41800000000E+01 0. -1.
         -5    1    3    3    0  502  0.29319341197E+02  0.85639491272E+01 -0.71328531036E+02  0.77705834611E+02  0.41800000000E+01 0. -1.
        -11    1    1    2    0    0 -0.80957418443E+00  0.33520863604E+02  0.48547466367E+02  0.59001357593E+02  0.00000000000E+00 0.  1.
         11    1    1    2    0    0  0.39497237309E+02 -0.55053839839E+02  0.10389142944E+03  0.12403381050E+03  0.00000000000E+00 0. -1.
</event>
<event>
 7    1  0.2641580E-009  0.1850655E+03  0.7561462E-02  0.1162989E+00
         -2   -1    0    0    0  501 -0.00000000000E+00  0.00000000000E+00  0.17092053076E+03  0.17092053076E+03  0.00000000000E+00 0.  1.
          2   -1    0    0  501    0  0.00000000000E+00 -0.00000000000E+00 -0.25430151683E+03  0.25430151683E+03  0.00000000000E+00 0. -1.
         25    2    1    2    0    0 -0.17302415178E+03 -0.20334331325E+02 -0.62562393117E+01  0.21456373465E+03  0.12509042156E+03 0.  0.
          5    1    3    3  502    0 -0.14009375844E+03  0.16440097277E+02 -0.48744963531E+02  0.14929863302E+03  0.41800000000E+01 0.  1.
         -5    1    3    3    0  502 -0.32930393346E+02 -0.36774428602E+02  0.42488724220E+02  0.65265101629E+02  0.41800000000E+01 0.  1.
        -11    1    1    2    0    0  0.27927857562E+02 -0.12675505208E+02  0.16524455479E+02  0.34838072409E+02  0.00000000000E+00 0.  1.
         11    1    1    2    0    0  0.14509629422E+03  0.33009836532E+02 -0.93649202233E+02  0.17582024054E+03  0.00000000000E+00 0. -1.
</event>
<event>
 7    1  0.2641580E-009  0.9338598E+02  0.7561462E-02  0.1294853E+00
         -1   -1    0    0    0  501 -0.00000000000E+00  0.00000000000E+00  0.13673586723E+02  0.13673586723E+02  0.00000000000E+00 0.  1.
          1   -1    0    0  501    0  0.00000000000E+00 -0.00000000000E+00 -0.10369162599E+04  0.10369162599E+04  0.00000000000E+00 0. -1.
         25    2    1    2    0    0  0.25896906896E+02 -0.17421088248E+02 -0.77022655401E+03  0.78094204340E+03  0.12508951411E+03 0.  0.
          5    1    3    3  502    0  0.53910882403E+02  0.11813714854E+02 -0.67646882550E+03  0.67872932114E+03  0.41800000000E+01 0. -1.
         -5    1    3    3    0  502 -0.28013975507E+02 -0.29234803102E+02 -0.93757728514E+02  0.10221272226E+03  0.41800000000E+01 0. -1.
        -11    1    1    2    0    0  0.83369742657E+01 -0.30616075354E+02 -0.60767897956E+02  0.68553531142E+02  0.00000000000E+00 0.  1.
         11    1    1    2    0    0 -0.34233881162E+02  0.48037163603E+02 -0.19224822123E+03  0.20109427210E+03  0.00000000000E+00 0. -1.
</event>
<event>
 7    1  0.2641580E-009  0.7064418E+02  0.7561462E-02  0.1357916E+00
          3   -1    0    0  501    0  0.00000000000E+00  0.00000000000E+00  0.13864187024E+03  0.13864187024E+03  0.00000000000E+00 0. -1.
         -3   -1    0    0    0  501 -0.00000000000E+00 -0.00000000000E+00 -0.15016085481E+03  0.15016085481E+03  0.00000000000E+00 0.  1.
         25    2    1    2    0    0 -0.74918085782E+01 -0.22864625236E+02  0.85121477057E+02  0.15320531186E+03  0.12508910201E+03 0.  0.
          5    1    3    3  502    0  0.13022249671E+02  0.57737474152E+01 -0.29605431269E+02  0.33119014272E+02  0.41800000000E+01 0.  1.
         -5    1    3    3    0  502 -0.20514058250E+02 -0.28638372651E+02  0.11472690833E+03  0.12008629759E+03  0.41800000000E+01 0.  1.
        -11    1    1    2    0    0  0.47706185199E+02  0.14839529879E+02 -0.72388064056E+02  0.87955236177E+02  0.00000000000E+00 0.  1.
         11    1    1    2    0    0 -0.40214376620E+02  0.80250953568E+01 -0.24252397567E+02  0.47642177009E+02  0.00000000000E+00 0. -1.
</event>
<event>
 7    1  0.2641580E-009  0.2983643E+03  0.7561462E-02  0.1086061E+00
          4   -1    0    0  501    0  0.00000000000E+00  0.00000000000E+00  0.27576120470E+03  0.27576120470E+03  0.00000000000E+00 0. -1.
         -4   -1    0    0    0  501 -0.00000000000E+00 -0.00000000000E+00 -0.38146519883E+03  0.38146519883E+03  0.00000000000E+00 0.  1.
         25    2    1    2    0    0  0.22245003364E+03  0.18333559935E+03 -0.15599558042E+03  0.35082447474E+03  0.12508889444E+03 0.  0.
          5    1    3    3  502    0  0.37024221620E+02  0.94716762478E+02 -0.87300885672E+02  0.13409315836E+03  0.41800000000E+01 0. -1.
         -5    1    3    3    0  502  0.18542581202E+03  0.88618836871E+02 -0.68694694749E+02  0.21673131638E+03  0.41800000000E+01 0. -1.
        -11    1    1    2    0    0 -0.10875531824E+03 -0.10613960019E+03 -0.17851169967E+02  0.15300979787E+03  0.00000000000E+00 0.  1.
         11    1    1    2    0    0 -0.11369471540E+03 -0.77195999163E+02  0.68142756260E+02  0.15339213092E+03  0.00000000000E+00 0. -1.
</event>
<event>
 7    1  0.2641580E-009  0.1567157E+03  0.7561462E-02  0.1192455E+00
         -1   -1    0    0    0  501 -0.00000000000E+00  0.00000000000E+00  0.14087508706E+03  0.14087508706E+03  0.00000000000E+00 0.  1.
          1   -1    0    0  501    0  0.00000000000E+00 -0.00000000000E+00 -0.23467454966E+03  0.23467454966E+03  0.00000000000E+00 0. -1.
         25    2    1    2    0    0  0.14448415438E+03  0.65129212557E+00 -0.30424064485E+02  0.19351761323E+03  0.12508935959E+03 0.  0.
          5    1    3    3  502    0  0.13828695205E+03  0.19740891974E+02 -0.64368393701E+02  0.15386275193E+03  0.41800000000E+01 0.  1.
         -5    1    3    3    0  502  0.61972023254E+01 -0.19089599848E+02  0.33944329215E+02  0.39654861303E+02  0.41800000000E+01 0.  1.
        -11    1    1    2    0    0 -0.88246351119E+02 -0.25263334964E+02 -0.76224582507E+02  0.11931404594E+03  0.00000000000E+00 0. -1.
         11    1    1    2    0    0 -0.56237803258E+02  0.24612042838E+02  0.12849184390E+02  0.62717977546E+02  0.00000000000E+00 0.  1.
</event>
<event>
 7    1  0.2641580E-009  0.1362680E+03  0.7561462E-02  0.1218441E+00
         -1   -1    0    0    0  501 -0.00000000000E+00  0.00000000000E+00  0.10118352112E+03  0.10118352112E+03  0.00000000000E+00 0.  1.
          1   -1    0    0  501    0  0.00000000000E+00 -0.00000000000E+00 -0.23740800955E+03  0.23740800955E+03  0.00000000000E+00 0. -1.
         25    2    1    2    0    0 -0.10587672819E+03 -0.14751424626E+02 -0.10176548128E+03  0.19347211218E+03  0.12509100252E+03 0.  0.
          5    1    3    3  502    0 -0.12505889847E+03  0.17691846891E+02 -0.82700752012E+02  0.15102852815E+03  0.41800000000E+01 0. -1.
         -5    1    3    3    0  502  0.19182170281E+02 -0.32443271517E+02 -0.19064729265E+02  0.42443584030E+02  0.41800000000E+01 0. -1.
        -11    1    1    2    0    0  0.82135955515E+02  0.41475501461E+01 -0.65132510646E+02  0.10490834716E+03  0.00000000000E+00 0. -1.
         11    1    1    2    0    0  0.23740772672E+02  0.10603874480E+02  0.30673503493E+02  0.40211071331E+02  0.00000000000E+00 0.  1.
</event>
<event>
 7    1  0.2641580E-009  0.2724437E+03  0.7561462E-02  0.1099889E+00
          1   -1    0    0  501    0  0.00000000000E+00  0.00000000000E+00  0.68399943582E+03  0.68399943582E+03  0.00000000000E+00 0. -1.
         -1   -1    0    0    0  501 -0.00000000000E+00 -0.00000000000E+00 -0.12380312789E+03  0.12380312789E+03  0.00000000000E+00 0.  1.
         25    2    1    2    0    0 -0.17569829215E+02  0.26799626390E+03  0.25602711804E+03  0.39157129389E+03  0.12508995429E+03 0.  0.
          5    1    3    3  502    0 -0.92491278185E+01  0.16591604223E+03  0.23349487351E+03  0.28661997103E+03  0.41800000000E+01 0.  1.
         -5    1    3    3    0  502 -0.83207013961E+01  0.10208022166E+03  0.22532244527E+02  0.10495132286E+03  0.41800000000E+01 0.  1.
        -11    1    1    2    0    0  0.42009269558E+02 -0.15916404337E+03  0.13160289444E+03  0.21075410614E+03  0.00000000000E+00 0.  1.
         11    1    1    2    0    0 -0.24439440344E+02 -0.10883222053E+03  0.17256629546E+03  0.20547716369E+03  0.00000000000E+00 0. -1.
</event>
<event>
 7    1  0.2641580E-009  0.4948977E+02  0.7561462E-02  0.1448113E+00
         -2   -1    0    0    0  501 -0.00000000000E+00  0.00000000000E+00  0.11496698398E+03  0.11496698398E+03  0.00000000000E+00 0.  1.
          2   -1    0    0  501    0  0.00000000000E+00 -0.00000000000E+00 -0.10531770301E+03  0.10531770301E+03  0.00000000000E+00 0. -1.
         25    2    1    2    0    0  0.30500331603E+01 -0.23860327711E+02 -0.93253815290E+01  0.12772496912E+03  0.12509231414E+03 0.  0.
          5    1    3    3  502    0 -0.23174290063E+02 -0.31456945037E+02  0.49225774189E+02  0.62986001266E+02  0.41800000000E+01 0.  1.
         -5    1    3    3    0  502  0.26224323224E+02  0.75966173255E+01 -0.58551155718E+02  0.64738967858E+02  0.41800000000E+01 0.  1.
        -11    1    1    2    0    0  0.72703120341E+01  0.19589866996E+02  0.52881807132E+02  0.56860406713E+02  0.00000000000E+00 0.  1.
         11    1    1    2    0    0 -0.10320345194E+02  0.42704607151E+01 -0.33907144635E+02  0.35699311155E+02  0.00000000000E+00 0. -1.
</event>
<event>
 7    1  0.2641580E-009  0.1796756E+03  0.7561462E-02  0.1168117E+00
         -2   -1    0    0    0  501 -0.00000000000E+00  0.00000000000E+00  0.12740173096E+03  0.12740173096E+03  0.00000000000E+00 0.  1.
          2   -1    0    0  501    0  0.00000000000E+00 -0.00000000000E+00 -0.35868503085E+03  0.35868503085E+03  0.00000000000E+00 0. -1.
         25    2    1    2    0    0 -0.71349324417E+02 -0.16081806677E+03 -0.18052850980E+03  0.28141022902E+03  0.12509195599E+03 0.  0.
          5    1    3    3  502    0 -0.57385781465E+02 -0.66352521072E+02 -0.13347262363E+02  0.88833590378E+02  0.41800000000E+01 0.  1.
         -5    1    3    3    0  502 -0.13963542952E+02 -0.94465545695E+02 -0.16718124744E+03  0.19257663864E+03  0.41800000000E+01 0.  1.
        -11    1    1    2    0    0  0.26613626125E+02  0.58054792332E+02  0.25873815218E+02  0.68906446158E+02  0.00000000000E+00 0.  1.
         11    1    1    2    0    0  0.44735698291E+02  0.10276327444E+03 -0.76628605298E+02  0.13577008663E+03  0.00000000000E+00 0. -1.
</event>
<event>
 7    1  0.2641580E-009  0.8768148E+02  0.7561462E-02  0.1308565E+00
         -1   -1    0    0    0  501 -0.00000000000E+00  0.00000000000E+00  0.33026734135E+03  0.33026734135E+03  0.00000000000E+00 0.  1.
          1   -1    0    0  501    0  0.00000000000E+00 -0.00000000000E+00 -0.38492869750E+02  0.38492869750E+02  0.00000000000E+00 0. -1.
         25    2    1    2    0    0 -0.92470324844E+01 -0.24123738519E+02  0.19634954677E+03  0.23423867864E+03  0.12508857537E+03 0.  0.
          5    1    3    3  502    0 -0.51875022697E+02 -0.31341427299E+02  0.17615636461E+03  0.18633797315E+03  0.41800000000E+01 0. -1.
         -5    1    3    3    0  502  0.42627990213E+02  0.72176887795E+01  0.20193182151E+02  0.47900705489E+02  0.41800000000E+01 0. -1.
        -11    1    1    2    0    0  0.33171901243E+02 -0.49321490263E+01  0.17663214655E+01  0.33583046580E+02  0.00000000000E+00 0. -1.
         11    1    1    2    0    0 -0.23924868759E+02  0.29055887546E+02  0.93658603367E+02  0.10093848588E+03  0.00000000000E+00 0.  1.
</event>
<event>
 7    1  0.2914645E-009  0.1522212E+03  0.7561462E-02  0.1197770E+00
          2   -1    0    0  501    0  0.00000000000E+00  0.00000000000E+00  0.33647807000E+03  0.33647807000E+03  0.00000000000E+00 0. -1.
         -2   -1    0    0    0  501 -0.00000000000E+00 -0.00000000000E+00 -0.77820457802E+02  0.77820457802E+02  0.00000000000E+00 0.  1.
         25    2    1    2    0    0  0.11115584544E+03  0.38645000246E+02  0.10909327012E+03  0.20346656442E+03  0.12509293838E+03 0.  0.
          5    1    3    3  502    0  0.13745511285E+03  0.20222531785E+02  0.93563750539E+02  0.16755448861E+03  0.41800000000E+01 0.  1.
         -5    1    3    3    0  502 -0.26299267410E+02  0.18422468461E+02  0.15529519584E+02  0.35912075810E+02  0.41800000000E+01 0.  1.
        -11    1    1    2    0    0 -0.64375065177E+02 -0.53793036756E+02  0.44806397915E+02  0.95107587048E+02  0.00000000000E+00 0.  1.
         11    1    1    2    0    0 -0.46780780261E+02  0.15148036509E+02  0.10475794416E+03  0.11572437633E+03  0.00000000000E+00 0. -1.
</event>
<event>
 7    1  0.2641580E-009  0.1065334E+03  0.7561462E-02  0.1267128E+00
         -2   -1    0    0    0  501 -0.00000000000E+00  0.00000000000E+00  0.26319463770E+02  0.26319463770E+02  0.00000000000E+00 0.  1.
          2   -1    0    0  501    0  0.00000000000E+00 -0.00000000000E+00 -0.47571231355E+03  0.47571231355E+03  0.00000000000E+00 0. -1.
         25    2    1    2    0    0  0.19602366078E+02  0.18092130099E+02 -0.28407381395E+03  0.31153685696E+03  0.12508278675E+03 0.  0.
          5    1    3    3  502    0  0.17514503891E+02  0.66960164777E+02 -0.10479068244E+03  0.12565421218E+03  0.41800000000E+01 0. -1.
         -5    1    3    3    0  502  0.20878621870E+01 -0.48868034679E+02 -0.17928313152E+03  0.18588264477E+03  0.41800000000E+01 0. -1.
        -11    1    1    2    0    0  0.36616501986E+02 -0.87453483577E+01 -0.67082312090E+02  0.76923897008E+02  0.00000000000E+00 0. -1.
         11    1    1    2    0    0 -0.56218868064E+02 -0.93467817408E+01 -0.98236723737E+02  0.11357102335E+03  0.00000000000E+00 0.  1.
</event>
<event>
 7    1  0.2641580E-009  0.2684594E+03  0.7561462E-02  0.1102165E+00
          4   -1    0    0  501    0  0.00000000000E+00  0.00000000000E+00  0.78102763514E+03  0.78102763514E+03  0.00000000000E+00 0. -1.
         -4   -1    0    0    0  501 -0.00000000000E+00 -0.00000000000E+00 -0.10859123803E+03  0.10859123803E+03  0.00000000000E+00 0.  1.
         25    2    1    2    0    0 -0.21323283435E+03 -0.15742338239E+03  0.26268001695E+03  0.39357220073E+03  0.12509165804E+03 0.  0.
          5    1    3    3  502    0 -0.15682329589E+03 -0.95709038906E+02  0.96660336418E+02  0.20764021600E+03  0.41800000000E+01 0.  1.
         -5    1    3    3    0  502 -0.56409538455E+02 -0.61714343484E+02  0.16601968054E+03  0.18593198473E+03  0.41800000000E+01 0.  1.
        -11    1    1    2    0    0  0.22957519125E+01  0.14398571486E+02  0.69028830219E+02  0.70551886857E+02  0.00000000000E+00 0. -1.
         11    1    1    2    0    0  0.21093708243E+03  0.14302481090E+03  0.34072754994E+03  0.42549478559E+03  0.00000000000E+00 0.  1.
</event>
<event>
 7    1  0.2641580E-009  0.1189837E+03  0.7561462E-02  0.1244783E+00
         -2   -1    0    0    0  501 -0.00000000000E+00  0.00000000000E+00  0.27970972770E+02  0.27970972770E+02  0.00000000000E+00 0.  1.
          2   -1    0    0  501    0  0.00000000000E+00 -0.00000000000E+00 -0.66012290711E+03  0.66012290711E+03  0.00000000000E+00 0. -1.
         25    2    1    2    0    0 -0.78309235655E+02  0.20801754000E+02 -0.35894829582E+03  0.38865476540E+03  0.12507437080E+03 0.  0.
          5    1    3    3  502    0 -0.25955944838E+02  0.58176396771E+02 -0.27768679274E+03  0.28493092404E+03  0.41800000000E+01 0. -1.
         -5    1    3    3    0  502 -0.52353290817E+02 -0.37374642771E+02 -0.81261503088E+02  0.10372384136E+03  0.41800000000E+01 0. -1.
        -11    1    1    2    0    0  0.64932386005E+02  0.19016975617E+02 -0.22757249124E+03  0.23741756229E+03  0.00000000000E+00 0. -1.
         11    1    1    2    0    0  0.13376849650E+02 -0.39818729617E+02 -0.45631147274E+02  0.62021552192E+02  0.00000000000E+00 0.  1.
</event>
<event>
 7    1  0.2641580E-009  0.1091398E+03  0.7561462E-02  0.1262171E+00
         -3   -1    0    0    0  501 -0.00000000000E+00  0.00000000000E+00  0.25996487497E+03  0.25996487497E+03  0.00000000000E+00 0.  1.
          3   -1    0    0  501    0  0.00000000000E+00 -0.00000000000E+00 -0.68557814245E+02  0.68557814245E+02  0.00000000000E+00 0. -1.
         25    2    1    2    0    0 -0.45656923004E+02 -0.36090325073E+02  0.16760207639E+03  0.21708351804E+03  0.12509089340E+03 0.  0.
          5    1    3    3  502    0 -0.37320602941E+02  0.42504213398E+02  0.51757820828E+02  0.76783982557E+02  0.41800000000E+01 0.  1.
         -5    1    3    3    0  502 -0.83363200632E+01 -0.78594538471E+02  0.11584425556E+03  0.14029953548E+03  0.41800000000E+01 0.  1.
        -11    1    1    2    0    0 -0.59267266230E+01 -0.11048608106E+02  0.38103405550E+02  0.40113181674E+02  0.00000000000E+00 0.  1.
         11    1    1    2    0    0  0.51583649627E+02  0.47138933178E+02 -0.14298421209E+02  0.71325989507E+02  0.00000000000E+00 0. -1.
</event>
<event>
 7    1  0.2641580E-009  0.1051509E+03  0.7561462E-02  0.1269823E+00
          2   -1    0    0  501    0  0.00000000000E+00  0.00000000000E+00  0.97510930350E+02  0.97510930350E+02  0.00000000000E+00 0.  1.
         -2   -1    0    0    0  501 -0.00000000000E+00 -0.00000000000E+00 -0.12352278135E+03  0.12352278135E+03  0.00000000000E+00 0. -1.
         25    2    1    2    0    0  0.19503276997E+02  0.12135392264E+02 -0.28301690789E+02  0.13029607304E+03  0.12509370644E+03 0.  0.
          5    1    3    3  502    0  0.17090150155E+02  0.65774367412E+02  0.27268395495E+01  0.68141387532E+02  0.41800000000E+01 0. -1.
         -5    1    3    3    0  502  0.24131268421E+01 -0.53638975148E+02 -0.31028530339E+02  0.62154685512E+02  0.41800000000E+01 0. -1.
        -11    1    1    2    0    0 -0.13247641457E+02  0.36755371558E+02 -0.91743923319E+01  0.40132615380E+02  0.00000000000E+00 0. -1.
         11    1    1    2    0    0 -0.62556355405E+01 -0.48890763823E+02  0.11464232118E+02  0.50605023281E+02  0.00000000000E+00 0.  1.
</event>
<event>
 7    1  0.2641580E-009  0.9333452E+02  0.7561462E-02  0.1294972E+00
          2   -1    0    0  501    0  0.00000000000E+00  0.00000000000E+00  0.21395364968E+03  0.21395364968E+03  0.00000000000E+00 0. -1.
         -2   -1    0    0    0  501 -0.00000000000E+00 -0.00000000000E+00 -0.62042774697E+02  0.62042774697E+02  0.00000000000E+00 0.  1.
         25    2    1    2    0    0  0.17354906898E+02 -0.21440432700E+02  0.12276369396E+03  0.17742495804E+03  0.12509119167E+03 0.  0.
          5    1    3    3  502    0  0.52798344858E+02 -0.41780561159E+02  0.11819782824E+03  0.13609364243E+03  0.41800000000E+01 0.  1.
         -5    1    3    3    0  502 -0.35443437960E+02  0.20340128459E+02  0.45658657212E+01  0.41331315609E+02  0.41800000000E+01 0.  1.
        -11    1    1    2    0    0 -0.44025892779E+02  0.25916269363E+02 -0.89356240978E+01  0.51863066152E+02  0.00000000000E+00 0.  1.
         11    1    1    2    0    0  0.26670985881E+02 -0.44758366627E+01  0.38082805119E+02  0.46708400181E+02  0.00000000000E+00 0. -1.
</event>
<event>
 7    1  0.2641580E-009  0.9620559E+02  0.7561462E-02  0.1288484E+00
         -1   -1    0    0    0  501 -0.00000000000E+00  0.00000000000E+00  0.75132644717E+02  0.75132644717E+02  0.00000000000E+00 0.  1.
          1   -1    0    0  501    0  0.00000000000E+00 -0.00000000000E+00 -0.19652027458E+03  0.19652027458E+03  0.00000000000E+00 0. -1.
         25    2    1    2    0    0 -0.46630928142E+02  0.15011330256E+02 -0.94556871208E+02  0.16428149638E+03  0.12509046592E+03 0.  0.
          5    1    3    3  502    0  0.24359517542E+02 -0.39249392646E+01  0.17274625001E+02  0.30408490788E+02  0.41800000000E+01 0.  1.
         -5    1    3    3    0  502 -0.70990445684E+02  0.18936269521E+02 -0.11183149621E+03  0.13387300559E+03  0.41800000000E+01 0.  1.
        -11    1    1    2    0    0 -0.22116143469E+02 -0.11573882343E+02  0.12687559235E+02  0.28000941301E+02  0.00000000000E+00 0.  1.
         11    1    1    2    0    0  0.68747071611E+02 -0.34374479138E+01 -0.39518317892E+02  0.79370481618E+02  0.00000000000E+00 0. -1.
</event>
<event>
 7    1  0.3540887E-009  0.2137019E+03  0.7561462E-02  0.1138668E+00
         -2   -1    0    0    0  501 -0.00000000000E+00  0.00000000000E+00  0.67546422724E+02  0.67546422724E+02  0.00000000000E+00 0.  1.
          2   -1    0    0  501    0  0.00000000000E+00 -0.00000000000E+00 -0.76136949052E+03  0.76136949052E+03  0.00000000000E+00 0. -1.
         25    2    1    2    0    0 -0.13801720959E+02 -0.19662452322E+03 -0.31295685096E+03  0.39043473791E+03  0.12508238634E+03 0.  0.
          5    1    3    3  502    0 -0.50627139901E+02 -0.28805234699E+02 -0.53372662280E+02  0.79113603884E+02  0.41800000000E+01 0. -1.
         -5    1    3    3    0  502  0.36825418941E+02 -0.16781928852E+03 -0.25958418868E+03  0.31132113403E+03  0.41800000000E+01 0. -1.
        -11    1    1    2    0    0  0.77095467928E+01  0.13433258642E+03 -0.16070790716E+03  0.20959893203E+03  0.00000000000E+00 0. -1.
         11    1    1    2    0    0  0.60921741665E+01  0.62291936808E+02 -0.22015830968E+03  0.22888224330E+03  0.00000000000E+00 0.  1.
</event>
<event>
 7    1  0.2641580E-009  0.1520547E+03  0.7561462E-02  0.1197971E+00
          1   -1    0    0  501    0  0.00000000000E+00  0.00000000000E+00  0.75180001233E+03  0.75180001233E+03  0.00000000000E+00 0. -1.
         -1   -1    0    0    0  501 -0.00000000000E+00 -0.00000000000E+00 -0.32717066061E+02  0.32717066061E+02  0.00000000000E+00 0.  1.
         25    2    1    2    0    0  0.86426880370E+02  0.75210701068E+02  0.44441710674E+03  0.47568940162E+03  0.12509031476E+03 0.  0.
          5    1    3    3  502    0  0.11482974997E+03  0.52162014452E+02  0.39064530233E+03  0.41052158514E+03  0.41800000000E+01 0. -1.
         -5    1    3    3    0  502 -0.28402869598E+02  0.23048686616E+02  0.53771804408E+02  0.65167816485E+02  0.41800000000E+01 0. -1.
        -11    1    1    2    0    0 -0.62498040099E+02 -0.92461944760E+02  0.22145693490E+03  0.24798868978E+03  0.00000000000E+00 0.  1.
         11    1    1    2    0    0 -0.23928840272E+02  0.17251243692E+02  0.53208904633E+02  0.60838986989E+02  0.00000000000E+00 0. -1.
</event>
<event>
 7    1  0.2641580E-009  0.1474499E+03  0.7561462E-02  0.1203642E+00
         -2   -1    0    0    0  501 -0.00000000000E+00  0.00000000000E+00  0.30834742760E+03  0.30834742760E+03  0.00000000000E+00 0. -1.
          2   -1    0    0  501    0  0.00000000000E+00 -0.00000000000E+00 -0.12767961383E+03  0.12767961383E+03  0.00000000000E+00 0.  1.
         25    2    1    2    0    0  0.12532609298E+03 -0.28238809065E+02 -0.20514764126E+02  0.18048448777E+03  0.12509890030E+03 0.  0.
          5    1    3    3  502    0  0.52099491262E+02 -0.36962318379E+02 -0.67433154774E+02  0.92979958768E+02  0.41800000000E+01 0.  1.
         -5    1    3    3    0  502  0.73226601723E+02  0.87235093134E+01  0.46918390648E+02  0.87504529000E+02  0.41800000000E+01 0.  1.
        -11    1    1    2    0    0 -0.42912784487E+02  0.55554915198E+02  0.10058966713E+03  0.12266269526E+03  0.00000000000E+00 0. -1.
         11    1    1    2    0    0 -0.82413308497E+02 -0.27316106133E+02  0.10059291076E+03  0.13287985839E+03  0.00000000000E+00 0.  1.
</event>
<event>
 7    1  0.2641580E-009  0.9555262E+02  0.7561462E-02  0.1289936E+00
         -3   -1    0    0    0  501 -0.00000000000E+00  0.00000000000E+00  0.12851394798E+03  0.12851394798E+03  0.00000000000E+00 0.  1.
          3   -1    0    0  501    0  0.00000000000E+00 -0.00000000000E+00 -0.13482457095E+03  0.13482457095E+03  0.00000000000E+00 0. -1.
         25    2    1    2    0    0 -0.37200134444E+02 -0.48282748404E+02 -0.46927955516E+02  0.14683696150E+03  0.12507512326E+03 0.  0.
          5    1    3    3  502    0 -0.35713008484E+02  0.58482842908E+01 -0.76691367197E+02  0.84903825630E+02  0.41800000000E+01 0.  1.
         -5    1    3    3    0  502 -0.14871259605E+01 -0.54131032695E+02  0.29763411681E+02  0.61933135873E+02  0.41800000000E+01 0.  1.
        -11    1    1    2    0    0  0.42273394416E+02  0.67964220119E+02  0.49727457073E+02  0.94228419698E+02  0.00000000000E+00 0.  1.
         11    1    1    2    0    0 -0.50732599715E+01 -0.19681471715E+02 -0.91101245234E+01  0.22273137732E+02  0.00000000000E+00 0. -1.
</event>
<event>
 7    1  0.2641580E-009  0.1313109E+03  0.7561462E-02  0.1225523E+00
          2   -1    0    0  501    0  0.00000000000E+00  0.00000000000E+00  0.94093704481E+03  0.94093704481E+03  0.00000000000E+00 0.  1.
         -2   -1    0    0    0  501 -0.00000000000E+00 -0.00000000000E+00 -0.25290428847E+02  0.25290428847E+02  0.00000000000E+00 0. -1.
         25    2    1    2    0    0 -0.30659587735E+01 -0.79152085275E+02  0.73235159383E+03  0.74716806214E+03  0.12508718310E+03 0.  0.
          5    1    3    3  502    0 -0.10841069518E+02  0.32008922164E+02  0.11963375807E+03  0.12438572409E+03  0.41800000000E+01 0. -1.
         -5    1    3    3    0  502  0.77751107447E+01 -0.11116100744E+03  0.61271783576E+03  0.62278233804E+03  0.41800000000E+01 0. -1.
        -11    1    1    2    0    0 -0.25419805305E+02 -0.69613047001E+01  0.23473035617E+02  0.35293195746E+02  0.00000000000E+00 0. -1.
         11    1    1    2    0    0  0.28485764078E+02  0.86113389975E+02  0.15982198651E+03  0.18376621577E+03  0.00000000000E+00 0.  1.
</event>
<event>
 7    1  0.2641580E-009  0.1604062E+03  0.7561462E-02  0.1188239E+00
          1   -1    0    0  501    0  0.00000000000E+00  0.00000000000E+00  0.72084842244E+03  0.72084842244E+03  0.00000000000E+00 0. -1.
         -1   -1    0    0    0  501 -0.00000000000E+00 -0.00000000000E+00 -0.45814779686E+02  0.45814779686E+02  0.00000000000E+00 0.  1.
         25    2    1    2    0    0 -0.12610482963E+03  0.58564798874E+02  0.26682428839E+03  0.32584388821E+03  0.12508706923E+03 0.  0.
          5    1    3    3  502    0 -0.14515611849E+03  0.37172073427E+02  0.17956846974E+03  0.23391102903E+03  0.41800000000E+01 0.  1.
         -5    1    3    3    0  502  0.19051288857E+02  0.21392725446E+02  0.87255818651E+02  0.91932859183E+02  0.41800000000E+01 0.  1.
        -11    1    1    2    0    0  0.81843152525E+02 -0.22525671051E+02  0.34655774751E+03  0.35680243810E+03  0.00000000000E+00 0. -1.
         11    1    1    2    0    0  0.44261677107E+02 -0.36039127822E+02  0.61651606852E+02  0.84016875816E+02  0.00000000000E+00 0.  1.
</event>
<event>
 7    1  0.2641580E-009  0.8837576E+02  0.7561462E-02  0.1306833E+00
         -2   -1    0    0    0  501 -0.00000000000E+00  0.00000000000E+00  0.55586362773E+02  0.55586362773E+02  0.00000000000E+00 0.  1.
          2   -1    0    0  501    0  0.00000000000E+00 -0.00000000000E+00 -0.27823269928E+03  0.27823269928E+03  0.00000000000E+00 0. -1.
         25    2    1    2    0    0 -0.49043404050E+02  0.22141599714E+02 -0.16381040470E+03  0.21301634958E+03  0.12508641246E+03 0.  0.
          5    1    3    3  502    0 -0.42970381054E+02  0.44505636729E+02 -0.17592688060E+03  0.18653403193E+03  0.41800000000E+01 0.  1.
         -5    1    3    3    0  502 -0.60730229960E+01 -0.22364037015E+02  0.12116475903E+02  0.26482317652E+02  0.41800000000E+01 0.  1.
        -11    1    1    2    0    0  0.36888807112E+01  0.25298401774E+02 -0.47858060610E+02  0.54258740665E+02  0.00000000000E+00 0. -1.
         11    1    1    2    0    0  0.45354523338E+02 -0.47440001488E+02 -0.10977871200E+02  0.66543971812E+02  0.00000000000E+00 0.  1.
</event>
<event>
 7    1  0.2641580E-009  0.1297258E+03  0.7561462E-02  0.1227863E+00
         -4   -1    0    0    0  501 -0.00000000000E+00  0.00000000000E+00  0.24485192534E+03  0.24485192534E+03  0.00000000000E+00 0.  1.
          4   -1    0    0  501    0  0.00000000000E+00 -0.00000000000E+00 -0.11440987668E+03  0.11440987668E+03  0.00000000000E+00 0. -1.
         25    2    1    2    0    0 -0.48395975102E+02 -0.71357575658E+02 -0.31350197077E+02  0.15512658749E+03  0.12508936518E+03 0.  0.
          5    1    3    3  502    0  0.33459491408E+02  0.46263031812E+00  0.14740718536E+02  0.36803705996E+02  0.41800000000E+01 0. -1.
         -5    1    3    3    0  502 -0.81855466510E+02 -0.71820205976E+02 -0.46090915613E+02  0.11832288150E+03  0.41800000000E+01 0. -1.
        -11    1    1    2    0    0  0.69281180961E+02  0.43025241003E+02  0.14200246878E+03  0.16375516645E+03  0.00000000000E+00 0.  1.
         11    1    1    2    0    0 -0.20885205859E+02  0.28332334656E+02  0.19789776951E+02  0.40380048075E+02  0.00000000000E+00 0. -1.
</event>
<event>
 7    1  0.2641580E-009  0.1298531E+03  0.7561462E-02  0.1227674E+00
          3   -1    0    0  501    0  0.00000000000E+00  0.00000000000E+00  0.21416172508E+03  0.21416172508E+03  0.00000000000E+00 0.  1.
         -3   -1    0    0    0  501 -0.00000000000E+00 -0.00000000000E+00 -0.88617845028E+02  0.88617845028E+02  0.00000000000E+00 0. -1.
         25    2    1    2    0    0 -0.58960927381E+02  0.42222654054E+02  0.11914882270E+03  0.18736194827E+03  0.12509562037E+03 0.  0.
          5    1    3    3  502    0 -0.97978839280E+02  0.22533771274E+02  0.80268462772E+02  0.12871721839E+03  0.41800000000E+01 0.  1.
         -5    1    3    3    0  502  0.39017911899E+02  0.19688882779E+02  0.38880359931E+02  0.58644729878E+02  0.41800000000E+01 0.  1.
        -11    1    1    2    0    0 -0.23369402926E+02 -0.17568537212E+02 -0.11845252831E-01  0.29236665904E+02  0.00000000000E+00 0.  1.
         11    1    1    2    0    0  0.82330330307E+02 -0.24654116842E+02  0.64069026054E+01  0.86180955939E+02  0.00000000000E+00 0. -1.
</event>
<event>
 7    1  0.2641580E-009  0.2115662E+03  0.7561462E-02  0.1140332E+00
         -1   -1    0    0    0  501 -0.00000000000E+00  0.00000000000E+00  0.25565883191E+02  0.25565883191E+02  0.00000000000E+00 0.  1.
          1   -1    0    0  501    0  0.00000000000E+00 -0.00000000000E+00 -0.20183230886E+04  0.20183230886E+04  0.00000000000E+00 0. -1.
         25    2    1    2    0    0 -0.17673907191E+03 -0.74726209850E+02 -0.12737664108E+04  0.12941986345E+04  0.12509408556E+03 0.  0.
          5    1    3    3  502    0 -0.19368183590E+01  0.26583410913E+02 -0.14917857981E+03  0.15159864800E+03  0.41800000000E+01 0. -1.
         -5    1    3    3    0  502 -0.17480225355E+03 -0.10130962076E+03 -0.11245878310E+04  0.11425999865E+04  0.41800000000E+01 0. -1.
        -11    1    1    2    0    0  0.14572797587E+03  0.73056919718E+02 -0.68285315232E+03  0.70204158289E+03  0.00000000000E+00 0. -1.
         11    1    1    2    0    0  0.31011096042E+02  0.16692901329E+01 -0.36137642278E+02  0.47648754408E+02  0.00000000000E+00 0.  1.
</event>
<event>
 7    1  0.2641580E-009  0.1100510E+03  0.7561462E-02  0.1260475E+00
          1   -1    0    0  501    0  0.00000000000E+00  0.00000000000E+00  0.21797241309E+03  0.21797241309E+03  0.00000000000E+00 0. -1.
         -1   -1    0    0    0  501 -0.00000000000E+00 -0.00000000000E+00 -0.91665956539E+02  0.91665956539E+02  0.00000000000E+00 0.  1.
         25    2    1    2    0    0  0.49745997076E+01 -0.77471798452E+02  0.24367803007E+02  0.14922326875E+03  0.12508864024E+03 0.  0.
          5    1    3    3  502    0  0.61202753284E+02 -0.48311299054E+02 -0.70381833571E+01  0.78401320466E+02  0.41800000000E+01 0.  1.
         -5    1    3    3    0  502 -0.56228153576E+02 -0.29160499398E+02  0.31405986364E+02  0.70821948287E+02  0.41800000000E+01 0.  1.
        -11    1    1    2    0    0  0.19906048524E+01  0.54471423403E+02  0.11903566308E+03  0.13092206675E+03  0.00000000000E+00 0. -1.
         11    1    1    2    0    0 -0.69652045601E+01  0.23000375049E+02 -0.17097009541E+02  0.29493034130E+02  0.00000000000E+00 0.  1.
</event>
<event>
 7    1  0.2641580E-009  0.1282696E+03  0.7561462E-02  0.1230046E+00
          2   -1    0    0  501    0  0.00000000000E+00  0.00000000000E+00  0.32080112982E+03  0.32080112982E+03  0.00000000000E+00 0. -1.
         -2   -1    0    0    0  501 -0.00000000000E+00 -0.00000000000E+00 -0.76353429623E+02  0.76353429623E+02  0.00000000000E+00 0.  1.
         25    2    1    2    0    0  0.81763901707E+02  0.76796737094E+02  0.12526109751E+03  0.20957321457E+03  0.12509002864E+03 0.  0.
          5    1    3    3  502    0  0.70697018001E+02  0.69077868656E+02  0.15081939265E+03  0.18037123355E+03  0.41800000000E+01 0.  1.
         -5    1    3    3    0  502  0.11066883706E+02  0.77188684381E+01 -0.25558295143E+02  0.29201981021E+02  0.41800000000E+01 0.  1.
        -11    1    1    2    0    0 -0.40828279219E+02  0.14581947730E+02  0.24632277864E+02  0.49863119601E+02  0.00000000000E+00 0.  1.
         11    1    1    2    0    0 -0.40935622489E+02 -0.91378684824E+02  0.94554324823E+02  0.13771822527E+03  0.00000000000E+00 0. -1.
</event>
<event>
 7    1  0.2641580E-009  0.1134209E+03  0.7561462E-02  0.1254363E+00
          1   -1    0    0  501    0  0.00000000000E+00  0.00000000000E+00  0.54496644243E+03  0.54496644243E+03  0.00000000000E+00 0. -1.
         -1   -1    0    0    0  501 -0.00000000000E+00 -0.00000000000E+00 -0.39256061364E+02  0.39256061364E+02  0.00000000000E+00 0.  1.
         25    2    1    2    0    0  0.39103270042E+02  0.84728741352E+02  0.33024755534E+03  0.36526571214E+03  0.12509023670E+03 0.  0.
          5    1    3    3  502    0  0.10100300345E+02  0.59357320484E+02  0.39921451759E+02  0.72363680618E+02  0.41800000000E+01 0. -1.
         -5    1    3    3    0  502  0.29002969696E+02  0.25371420868E+02  0.29032610358E+03  0.29290203152E+03  0.41800000000E+01 0. -1.
        -11    1    1    2    0    0 -0.32702606516E+02  0.88895897510E+01  0.27022908635E+02  0.43344236871E+02  0.00000000000E+00 0.  1.
         11    1    1    2    0    0 -0.64006635256E+01 -0.93618331103E+02  0.14843991709E+03  0.17561255479E+03  0.00000000000E+00 0. -1.
</event>
<event>
 7    1  0.2641580E-009  0.1735019E+03  0.7561462E-02  0.1174244E+00
         -1   -1    0    0    0  501 -0.00000000000E+00  0.00000000000E+00  0.15426967321E+04  0.15426967321E+04  0.00000000000E+00 0.  1.
          1   -1    0    0  501    0  0.00000000000E+00 -0.00000000000E+00 -0.21591417622E+02  0.21591417622E+02  0.00000000000E+00 0. -1.
         25    2    1    2    0    0 -0.12569097268E+03  0.73680978676E+02  0.84106043612E+03  0.86270285727E+03  0.12508579257E+03 0.  0.
          5    1    3    3  502    0 -0.57448299465E+02  0.92375986616E+02  0.64718002089E+03  0.65627210961E+03  0.41800000000E+01 0.  1.
         -5    1    3    3    0  502 -0.68242673213E+02 -0.18695007940E+02  0.19388041523E+03  0.20643074766E+03  0.41800000000E+01 0.  1.
        -11    1    1    2    0    0  0.76236396506E+02  0.26805075604E+01  0.22635027323E+03  0.23885899494E+03  0.00000000000E+00 0. -1.
         11    1    1    2    0    0  0.49454576172E+02 -0.76361486236E+02  0.45369460510E+03  0.46272629748E+03  0.00000000000E+00 0.  1.
</event>
<event>
 7    1  0.2641580E-009  0.1255332E+03  0.7561462E-02  0.1234238E+00
          2   -1    0    0  501    0  0.00000000000E+00  0.00000000000E+00  0.81775225177E+03  0.81775225177E+03  0.00000000000E+00 0.  1.
         -2   -1    0    0    0  501 -0.00000000000E+00 -0.00000000000E+00 -0.20214805160E+02  0.20214805160E+02  0.00000000000E+00 0. -1.
         25    2    1    2    0    0 -0.35965512874E+02 -0.56290338199E+02  0.39272126149E+03  0.41754096437E+03  0.12509335476E+03 0.  0.
          5    1    3    3  502    0 -0.23523130732E+02  0.38075464286E+02  0.15657352141E+03  0.16289818497E+03  0.41800000000E+01 0.  1.
         -5    1    3    3    0  502 -0.12442382142E+02 -0.94365802486E+02  0.23614774009E+03  0.25464277940E+03  0.41800000000E+01 0.  1.
        -11    1    1    2    0    0 -0.58187368568E+01  0.67364013708E+02  0.20071897037E+03  0.21180149458E+03  0.00000000000E+00 0.  1.
         11    1    1    2    0    0  0.41784249731E+02 -0.11073675509E+02  0.20409721475E+03  0.20862459798E+03  0.00000000000E+00 0. -1.
</event>
<event>
 7    1  0.2641580E-009  0.1613708E+03  0.7561462E-02  0.1187158E+00
         -2   -1    0    0    0  501 -0.00000000000E+00  0.00000000000E+00  0.49366778296E+02  0.49366778296E+02  0.00000000000E+00 0.  1.
          2   -1    0    0  501    0  0.00000000000E+00 -0.00000000000E+00 -0.70272142521E+03  0.70272142521E+03  0.00000000000E+00 0. -1.
         25    2    1    2    0    0 -0.14424403005E+03 -0.41622054529E+02 -0.36778534919E+03  0.41647630041E+03  0.12509080742E+03 0.  0.
          5    1    3    3  502    0 -0.73496866696E+01 -0.17028279133E+02 -0.18884813713E+03  0.18980271727E+03  0.41800000000E+01 0. -1.
         -5    1    3    3    0  502 -0.13689434338E+03 -0.24593775396E+02 -0.17893721206E+03  0.22667358315E+03  0.41800000000E+01 0. -1.
        -11    1    1    2    0    0  0.13821455596E+03  0.55893237821E+02 -0.20450387654E+03  0.25307934138E+03  0.00000000000E+00 0.  1.
         11    1    1    2    0    0  0.60294740844E+01 -0.14271183292E+02 -0.81065421188E+02  0.82532561712E+02  0.00000000000E+00 0. -1.
</event>
<event>
 7    1  0.2641580E-009  0.1455029E+03  0.7561462E-02  0.1206110E+00
          2   -1    0    0  501    0  0.00000000000E+00  0.00000000000E+00  0.41422807508E+03  0.41422807508E+03  0.00000000000E+00 0. -1.
         -2   -1    0    0    0  501 -0.00000000000E+00 -0.00000000000E+00 -0.72482387532E+02  0.72482387532E+02  0.00000000000E+00 0.  1.
         25    2    1    2    0    0 -0.80502674479E+02 -0.83014512927E+02  0.25301919166E+03  0.30502797891E+03  0.12510502234E+03 0.  0.
          5    1    3    3  502    0 -0.10048135096E+02  0.32827462257E+02  0.46740611329E+02  0.58144341467E+02  0.41800000000E+01 0.  1.
         -5    1    3    3    0  502 -0.70454539383E+02 -0.11584197518E+03  0.20627858033E+03  0.24688363744E+03  0.41800000000E+01 0.  1.
        -11    1    1    2    0    0  0.62904009108E+02  0.40643752455E+02 -0.73113694639E+01  0.75248156781E+02  0.00000000000E+00 0.  1.
         11    1    1    2    0    0  0.17598665371E+02  0.42370760472E+02  0.96037865351E+02  0.10643432692E+03  0.00000000000E+00 0. -1.
</event>
<event>
 7    1  0.2641580E-009  0.5957410E+02  0.7561462E-02  0.1399628E+00
          2   -1    0    0  501    0  0.00000000000E+00  0.00000000000E+00  0.25358488390E+03  0.25358488390E+03  0.00000000000E+00 0. -1.
         -2   -1    0    0    0  501 -0.00000000000E+00 -0.00000000000E+00 -0.64733446701E+02  0.64733446701E+02  0.00000000000E+00 0.  1.
         25    2    1    2    0    0 -0.22026060659E+02  0.16494303018E+02  0.18224710248E+03  0.22275362739E+03  0.12509181737E+03 0.  0.
          5    1    3    3  502    0 -0.98623151268E+01  0.45851259789E+02  0.18470157404E+03  0.19060888525E+03  0.41800000000E+01 0. -1.
         -5    1    3    3    0  502 -0.12163745533E+02 -0.29356956772E+02 -0.24544715630E+01  0.32144742135E+02  0.41800000000E+01 0. -1.
        -11    1    1    2    0    0  0.18021520721E+02  0.45520441732E+01 -0.40090397915E+02  0.44189776195E+02  0.00000000000E+00 0.  1.
         11    1    1    2    0    0  0.40045399387E+01 -0.21046347191E+02  0.46694732629E+02  0.51374927012E+02  0.00000000000E+00 0. -1.
</event>
<event>
 7    1  0.2641580E-009  0.1070837E+03  0.7561462E-02  0.1266068E+00
          3   -1    0    0  501    0  0.00000000000E+00  0.00000000000E+00  0.27282139885E+02  0.27282139885E+02  0.00000000000E+00 0. -1.
         -3   -1    0    0    0  501 -0.00000000000E+00 -0.00000000000E+00 -0.53088084037E+03  0.53088084037E+03  0.00000000000E+00 0.  1.
         25    2    1    2    0    0  0.33826592857E+02  0.23951724326E+02 -0.20923117284E+03  0.24727104639E+03  0.12508942087E+03 0.  0.
          5    1    3    3  502    0  0.11679641288E+01 -0.42493318298E+02 -0.13795093062E+03  0.14441252681E+03  0.41800000000E+01 0. -1.
         -5    1    3    3    0  502  0.32658628729E+02  0.66445042624E+02 -0.71280242215E+02  0.10285851958E+03  0.41800000000E+01 0. -1.
        -11    1    1    2    0    0  0.29572284864E+02 -0.15347434468E+02 -0.13749112129E+03  0.14147039340E+03  0.00000000000E+00 0.  1.
         11    1    1    2    0    0 -0.63398877722E+02 -0.86042898579E+01 -0.15687640636E+03  0.16942154046E+03  0.00000000000E+00 0. -1.
</event>
<event>
 7    1  0.2641580E-009  0.1076701E+03  0.7561462E-02  0.1264946E+00
         -1   -1    0    0    0  501 -0.00000000000E+00  0.00000000000E+00  0.16271877289E+03  0.16271877289E+03  0.00000000000E+00 0.  1.
          1   -1    0    0  501    0  0.00000000000E+00 -0.00000000000E+00 -0.92827567196E+02  0.92827567196E+02  0.00000000000E+00 0. -1.
         25    2    1    2    0    0 -0.54170745287E+02 -0.12320206154E+02  0.59321135057E+02  0.14917281240E+03  0.12508906335E+03 0.  0.
          5    1    3    3  502    0 -0.55286096372E+02 -0.49233639918E+02 -0.56067955623E+01  0.74360018210E+02  0.41800000000E+01 0. -1.
         -5    1    3    3    0  502  0.11153510849E+01  0.36913433764E+02  0.64927930619E+02  0.74812794192E+02  0.41800000000E+01 0. -1.
        -11    1    1    2    0    0 -0.14496660806E+02  0.29825769489E+02  0.12614599003E+02  0.35480386246E+02  0.00000000000E+00 0.  1.
         11    1    1    2    0    0  0.68667406093E+02 -0.17505563336E+02 -0.20445283635E+01  0.70893141442E+02  0.00000000000E+00 0. -1.
</event>
<event>
 7    1  0.2641580E-009  0.1794065E+03  0.7561462E-02  0.1168379E+00
          4   -1    0    0  501    0  0.00000000000E+00  0.00000000000E+00  0.11471696673E+03  0.11471696673E+03  0.00000000000E+00 0.  1.
         -4   -1    0    0    0  501 -0.00000000000E+00 -0.00000000000E+00 -0.46127382992E+03  0.46127382992E+03  0.00000000000E+00 0. -1.
         25    2    1    2    0    0 -0.12044621563E+03 -0.11419850165E+03 -0.34707077192E+02  0.21071478227E+03  0.12509016597E+03 0.  0.
          5    1    3    3  502    0 -0.83912971933E+02 -0.11065631242E+03 -0.73470666903E+02  0.15716748274E+03  0.41800000000E+01 0. -1.
         -5    1    3    3    0  502 -0.36533243694E+02 -0.35421892345E+01  0.38763589711E+02  0.53547299527E+02  0.41800000000E+01 0. -1.
        -11    1    1    2    0    0  0.94903363771E+02  0.37414002525E+02 -0.12286009948E+03  0.15969051345E+03  0.00000000000E+00 0.  1.
         11    1    1    2    0    0  0.25542851856E+02  0.76784499125E+02 -0.18898968651E+03  0.20558550094E+03  0.00000000000E+00 0. -1.
</event>
<event>
 7    1  0.2641580E-009  0.2278821E+03  0.7561462E-02  0.1128139E+00
         -1   -1    0    0    0  501 -0.00000000000E+00  0.00000000000E+00  0.33453441555E+02  0.33453441555E+02  0.00000000000E+00 0.  1.
          1   -1    0    0  501    0  0.00000000000E+00 -0.00000000000E+00 -0.16782349919E+04  0.16782349919E+04  0.00000000000E+00 0. -1.
         25    2    1    2    0    0  0.17782927807E+03 -0.11247272121E+03 -0.88362025665E+03  0.91690041416E+03  0.12509295093E+03 0.  0.
          5    1    3    3  502    0  0.10331673948E+03 -0.13001029546E+03 -0.54735536475E+03  0.57200733675E+03  0.41800000000E+01 0.  1.
         -5    1    3    3    0  502  0.74512538594E+02  0.17537574250E+02 -0.33626489191E+03  0.34489307741E+03  0.41800000000E+01 0.  1.
        -11    1    1    2    0    0 -0.76098682709E+02  0.67639394030E+02 -0.51088646450E+03  0.52093289082E+03  0.00000000000E+00 0.  1.
         11    1    1    2    0    0 -0.10173059536E+03  0.44833327177E+02 -0.25027482918E+03  0.27385512845E+03  0.00000000000E+00 0. -1.
</event>
<event>
 7    1  0.2641580E-009  0.1216395E+03  0.7561462E-02  0.1240417E+00
         -1   -1    0    0    0  501 -0.00000000000E+00  0.00000000000E+00  0.44024380248E+02  0.44024380248E+02  0.00000000000E+00 0.  1.
          1   -1    0    0  501    0  0.00000000000E+00 -0.00000000000E+00 -0.55258567861E+03  0.55258567861E+03  0.00000000000E+00 0. -1.
         25    2    1    2    0    0 -0.10644284494E+03  0.13165972876E+02 -0.33980749065E+03  0.37765074925E+03  0.12509011004E+03 0.  0.
          5    1    3    3  502    0 -0.21592075304E+02 -0.69800296961E+01 -0.25463414300E+03  0.25567744858E+03  0.41800000000E+01 0.  1.
         -5    1    3    3    0  502 -0.84850769638E+02  0.20146002573E+02 -0.85173347653E+02  0.12197330068E+03  0.41800000000E+01 0.  1.
        -11    1    1    2    0    0  0.12629196850E+02 -0.34454715126E+02 -0.19952193771E+02  0.41769774285E+02  0.00000000000E+00 0.  1.
         11    1    1    2    0    0  0.93813648092E+02  0.21288742250E+02 -0.14880161394E+03  0.17718953532E+03  0.00000000000E+00 0. -1.
</event>
<event>
 7    1  0.2641580E-009  0.1087853E+03  0.7561462E-02  0.1262836E+00
          3   -1    0    0  501    0  0.00000000000E+00  0.00000000000E+00  0.11030840798E+03  0.11030840798E+03  0.00000000000E+00 0. -1.
         -3   -1    0    0    0  501 -0.00000000000E+00 -0.00000000000E+00 -0.13612161652E+03  0.13612161652E+03  0.00000000000E+00 0.  1.
         25    2    1    2    0    0  0.83631057442E+01 -0.49642893177E+02 -0.39356772894E+02  0.14045621544E+03  0.12507851335E+03 0.  0.
          5    1    3    3  502    0 -0.16276024010E+02  0.29337008646E+02 -0.46295758393E+02  0.57326596612E+02  0.41800000000E+01 0. -1.
         -5    1    3    3    0  502  0.24639129754E+02 -0.78979901823E+02  0.69389854994E+01  0.83129618829E+02  0.41800000000E+01 0. -1.
        -11    1    1    2    0    0  0.13840115563E+02 -0.21959134856E+02  0.16831394980E+02  0.30936196589E+02  0.00000000000E+00 0. -1.
         11    1    1    2    0    0 -0.22203221308E+02  0.71602028033E+02 -0.32878306340E+01  0.75037612470E+02  0.00000000000E+00 0.  1.
</event>
<event>
 7    1  0.2641580E-009  0.9304312E+02  0.7561462E-02  0.1295645E+00
         -3   -1    0    0    0  501 -0.00000000000E+00  0.00000000000E+00  0.13965722955E+03  0.13965722955E+03  0.00000000000E+00 0.  1.
          3   -1    0    0  501    0  0.00000000000E+00 -0.00000000000E+00 -0.10078448246E+03  0.10078448246E+03  0.00000000000E+00 0. -1.
         25    2    1    2    0    0 -0.11226812806E+02  0.50587272392E+02  0.22029943053E+02  0.13718075239E+03  0.12509247372E+03 0.  0.
          5    1    3    3  502    0 -0.58506989127E+02  0.51698918514E+02 -0.11538746740E+02  0.79034555914E+02  0.41800000000E+01 0.  1.
         -5    1    3    3    0  502  0.47280176321E+02 -0.11116461218E+01  0.33568689793E+02  0.58146196475E+02  0.41800000000E+01 0.  1.
        -11    1    1    2    0    0  0.21430729075E+02 -0.25325486691E+02 -0.32787603483E+02  0.46644221153E+02  0.00000000000E+00 0. -1.
         11    1    1    2    0    0 -0.10203916269E+02 -0.25261785702E+02  0.49630407517E+02  0.56616738464E+02  0.00000000000E+00 0.  1.
</event>
<event>
 7    1  0.2641580E-009  0.1456706E+03  0.7561462E-02  0.1205896E+00
         -3   -1    0    0    0  501 -0.00000000000E+00  0.00000000000E+00  0.27395137883E+02  0.27395137883E+02  0.00000000000E+00 0.  1.
          3   -1    0    0  501    0  0.00000000000E+00 -0.00000000000E+00 -0.81441935388E+03  0.81441935388E+03  0.00000000000E+00 0. -1.
         25    2    1    2    0    0  0.68872941932E+02  0.72864825620E+02 -0.47800181086E+03  0.50416864188E+03  0.12509006088E+03 0.  0.
          5    1    3    3  502    0  0.80008513359E+02 -0.54694243337E+01 -0.21580481489E+03  0.23026173660E+03  0.41800000000E+01 0.  1.
         -5    1    3    3    0  502 -0.11135571428E+02  0.78334249954E+02 -0.26219699597E+03  0.27390690528E+03  0.41800000000E+01 0.  1.
        -11    1    1    2    0    0  0.32169708512E+00 -0.61717207944E+02 -0.10353470878E+03  0.12053444806E+03  0.00000000000E+00 0.  1.
         11    1    1    2    0    0 -0.69194639017E+02 -0.11147617676E+02 -0.20548769636E+03  0.21711140182E+03  0.00000000000E+00 0. -1.
</event>
<event>
 7    1  0.2641580E-009  0.1293916E+03  0.7561462E-02  0.1228361E+00
          1   -1    0    0  501    0  0.00000000000E+00  0.00000000000E+00  0.15747002925E+04  0.15747002925E+04  0.00000000000E+00 0. -1.
         -1   -1    0    0    0  501 -0.00000000000E+00 -0.00000000000E+00 -0.11362897875E+02  0.11362897875E+02  0.00000000000E+00 0.  1.
         25    2    1    2    0    0  0.27704830526E+02  0.72906824298E+02  0.91162366864E+03  0.92346487560E+03  0.12508677219E+03 0.  0.
          5    1    3    3  502    0  0.60813717881E+02  0.84687948381E+02  0.52796234547E+03  0.53817475555E+03  0.41800000000E+01 0. -1.
         -5    1    3    3    0  502 -0.33108887355E+02 -0.11781124083E+02  0.38366132317E+03  0.38529012005E+03  0.41800000000E+01 0. -1.
        -11    1    1    2    0    0 -0.58320026609E+02 -0.27987235911E+02  0.38571713043E+03  0.39110384245E+03  0.00000000000E+00 0. -1.
         11    1    1    2    0    0  0.30615196083E+02 -0.44919588388E+02  0.26599659554E+03  0.27149447230E+03  0.00000000000E+00 0.  1.
</event>
<event>
 6    1  0.2641580E-009  0.1340058E+03  0.7561462E-02  0.1221630E+00
          1   -1    0    0  501    0  0.00000000000E+00  0.00000000000E+00  0.31121728632E+03  0.31121728632E+03  0.00000000000E+00 0. -1.
         -1   -1    0    0    0  501 -0.00000000000E+00 -0.00000000000E+00 -0.11119941690E+03  0.11119941690E+03  0.00000000000E+00 0.  1.
          5    1    1    2  502    0 -0.37115937260E+02  0.20202267011E+01  0.43819962447E+02  0.57613675664E+02  0.41800000000E+01 0.  1.
         -5    1    1    2    0  502  0.89771353526E+02 -0.59814532134E+02  0.20150950216E+03  0.22860495626E+03  0.41800000000E+01 0.  1.
        -11    1    1    2    0    0  0.24492999637E+02  0.34027218683E+02 -0.35387824557E+02  0.54863984265E+02  0.00000000000E+00 0.  1.
         11    1    1    2    0    0 -0.77148415903E+02  0.23767086749E+02 -0.99237706308E+01  0.81334087026E+02  0.00000000000E+00 0. -1.
</event>
<event>
 7    1  0.2641580E-009  0.1419387E+03  0.7561462E-02  0.1210744E+00
         -2   -1    0    0    0  501 -0.00000000000E+00  0.00000000000E+00  0.65954529371E+02  0.65954529371E+02  0.00000000000E+00 0. -1.
          2   -1    0    0  501    0  0.00000000000E+00 -0.00000000000E+00 -0.33564590978E+03  0.33564590978E+03  0.00000000000E+00 0.  1.
         25    2    1    2    0    0  0.49066095337E+02 -0.84034360889E+02 -0.10665631050E+03  0.19102907929E+03  0.12508910842E+03 0.  0.
          5    1    3    3  502    0  0.59727709961E+02 -0.11158404911E+03 -0.73466926907E+02  0.14640102835E+03  0.41800000000E+01 0. -1.
         -5    1    3    3    0  502 -0.10661614624E+02  0.27549688224E+02 -0.33189383590E+02  0.44628050940E+02  0.41800000000E+01 0. -1.
        -11    1    1    2    0    0  0.15077956603E+02 -0.65293962646E+01 -0.44707883655E+01  0.17028380414E+02  0.00000000000E+00 0. -1.
         11    1    1    2    0    0 -0.64144051940E+02  0.90563757154E+02 -0.15856428154E+03  0.19354297944E+03  0.00000000000E+00 0.  1.
</event>
<event>
 7    1  0.2641580E-009  0.1010924E+03  0.7561462E-02  0.1278015E+00
         -3   -1    0    0    0  501 -0.00000000000E+00  0.00000000000E+00  0.46801571800E+03  0.46801571800E+03  0.00000000000E+00 0. -1.
          3   -1    0    0  501    0  0.00000000000E+00 -0.00000000000E+00 -0.28040532949E+02  0.28040532949E+02  0.00000000000E+00 0.  1.
         25    2    1    2    0    0  0.48371432720E+01  0.22310153229E+02  0.31897087441E+03  0.34338189548E+03  0.12509023355E+03 0.  0.
          5    1    3    3  502    0  0.41161670857E+01 -0.49215859664E+02  0.18415200641E+03  0.19070547328E+03  0.41800000000E+01 0. -1.
         -5    1    3    3    0  502  0.72097618633E+00  0.71526012893E+02  0.13481886799E+03  0.15267642219E+03  0.41800000000E+01 0. -1.
        -11    1    1    2    0    0 -0.40526623191E+02 -0.36368024772E+01  0.23056801588E+02  0.46768040572E+02  0.00000000000E+00 0.  1.
         11    1    1    2    0    0  0.35689479919E+02 -0.18673350752E+02  0.97947509051E+02  0.10590631489E+03  0.00000000000E+00 0. -1.
</event>
<event>
 7    1  0.2641580E-009  0.1041958E+03  0.7561462E-02  0.1271712E+00
         -1   -1    0    0    0  501 -0.00000000000E+00  0.00000000000E+00  0.16208084990E+04  0.16208084990E+04  0.00000000000E+00 0.  1.
          1   -1    0    0  501    0  0.00000000000E+00 -0.00000000000E+00 -0.81795272096E+01  0.81795272096E+01  0.00000000000E+00 0. -1.
         25    2    1    2    0    0 -0.12696829332E+01 -0.28973952465E+02  0.11128507423E+04  0.11202344982E+04  0.12508978489E+03 0.  0.
          5    1    3    3  502    0 -0.52714186462E+02  0.22924755036E+01  0.79143241974E+03  0.79320034564E+03  0.41800000000E+01 0. -1.
         -5    1    3    3    0  502  0.51444503529E+02 -0.31266427968E+02  0.32141832256E+03  0.32703415255E+03  0.41800000000E+01 0. -1.
        -11    1    1    2    0    0 -0.16307578209E+02 -0.29691132553E+02  0.17246547106E+03  0.17576074411E+03  0.00000000000E+00 0. -1.
         11    1    1    2    0    0  0.17577261142E+02  0.58665085018E+02  0.32731275843E+03  0.33299278391E+03  0.00000000000E+00 0.  1.
</event>
<event>
 7    1  0.2954539E-009  0.1180445E+03  0.7561462E-02  0.1246358E+00
          1   -1    0    0  501    0  0.00000000000E+00  0.00000000000E+00  0.83156191663E+03  0.83156191663E+03  0.00000000000E+00 0. -1.
         -1   -1    0    0    0  501 -0.00000000000E+00 -0.00000000000E+00 -0.19674843119E+02  0.19674843119E+02  0.00000000000E+00 0.  1.
         25    2    1    2    0    0  0.28345371415E+02  0.55385850606E+02  0.53483624633E+03  0.55278249008E+03  0.12509044094E+03 0.  0.
          5    1    3    3  502    0  0.22550161373E+02 -0.36050875299E+02  0.24758154959E+03  0.25124146052E+03  0.41800000000E+01 0. -1.
         -5    1    3    3    0  502  0.57952100421E+01  0.91436725905E+02  0.28725469675E+03  0.30154102956E+03  0.41800000000E+01 0. -1.
        -11    1    1    2    0    0 -0.55911200521E+02 -0.46386274913E+02  0.24351225908E+03  0.25411802212E+03  0.00000000000E+00 0.  1.
         11    1    1    2    0    0  0.27565829105E+02 -0.89995756926E+01  0.33538568096E+02  0.44336247550E+02  0.00000000000E+00 0. -1.
</event>
<event>
 7    1  0.2641580E-009  0.1142281E+03  0.7561462E-02  0.1252934E+00
          2   -1    0    0  501    0  0.00000000000E+00  0.00000000000E+00  0.75318686381E+03  0.75318686381E+03  0.00000000000E+00 0. -1.
         -2   -1    0    0    0  501 -0.00000000000E+00 -0.00000000000E+00 -0.28326225971E+02  0.28326225971E+02  0.00000000000E+00 0.  1.
         25    2    1    2    0    0 -0.84051534102E+02  0.41409447365E+02  0.33783521051E+03  0.37223586737E+03  0.12509000272E+03 0.  0.
          5    1    3    3  502    0 -0.65621282068E+02 -0.18976935623E+01  0.31103199578E+03  0.31791213991E+03  0.41800000000E+01 0.  1.
         -5    1    3    3    0  502 -0.18430252033E+02  0.43307140927E+02  0.26803214724E+02  0.54323727457E+02  0.41800000000E+01 0.  1.
        -11    1    1    2    0    0  0.55004330899E+02  0.10445484289E+02  0.87264775244E+02  0.10368088328E+03  0.00000000000E+00 0.  1.
         11    1    1    2    0    0  0.29047203203E+02 -0.51854931654E+02  0.29976065209E+03  0.30559633913E+03  0.00000000000E+00 0. -1.
</event>
<event>
 7    1  0.2641580E-009  0.1281076E+03  0.7561462E-02  0.1230291E+00
         -2   -1    0    0    0  501 -0.00000000000E+00  0.00000000000E+00  0.14465029991E+03  0.14465029991E+03  0.00000000000E+00 0.  1.
          2   -1    0    0  501    0  0.00000000000E+00 -0.00000000000E+00 -0.21898646503E+03  0.21898646503E+03  0.00000000000E+00 0. -1.
         25    2    1    2    0    0 -0.12117141723E+01 -0.10377106778E+03 -0.13621931124E+03  0.21207039495E+03  0.12509296104E+03 0.  0.
          5    1    3    3  502    0 -0.25178211240E+02 -0.79616575220E+02 -0.13547241655E+02  0.84697942877E+02  0.41800000000E+01 0.  1.
         -5    1    3    3    0  502  0.23966497068E+02 -0.24154492559E+02 -0.12267206958E+03  0.12737245208E+03  0.41800000000E+01 0.  1.
        -11    1    1    2    0    0 -0.11263290704E+02  0.11849364948E+03  0.52096784358E+02  0.12992952561E+03  0.00000000000E+00 0. -1.
         11    1    1    2    0    0  0.12475004877E+02 -0.14722581699E+02  0.97863617549E+01  0.21636844385E+02  0.00000000000E+00 0.  1.
</event>
<event>
 7    1  0.2641580E-009  0.9875181E+02  0.7561462E-02  0.1282943E+00
         -1   -1    0    0    0  501 -0.00000000000E+00  0.00000000000E+00  0.24001284205E+02  0.24001284205E+02  0.00000000000E+00 0.  1.
          1   -1    0    0  501    0  0.00000000000E+00 -0.00000000000E+00 -0.74524055567E+03  0.74524055567E+03  0.00000000000E+00 0. -1.
         25    2    1    2    0    0 -0.60613674495E+02  0.11215353471E+02 -0.53711616320E+03  0.55492550081E+03  0.12509491192E+03 0.  0.
          5    1    3    3  502    0 -0.28918994890E+02  0.36790846289E+02 -0.60723521899E+02  0.76776905043E+02  0.41800000000E+01 0.  1.
         -5    1    3    3    0  502 -0.31694679605E+02 -0.25575492818E+02 -0.47639264130E+03  0.47814859576E+03  0.41800000000E+01 0.  1.
        -11    1    1    2    0    0  0.84778422077E+02 -0.71883219649E+01 -0.13902352997E+03  0.16299262164E+03  0.00000000000E+00 0.  1.
         11    1    1    2    0    0 -0.24164747582E+02 -0.40270315059E+01 -0.45099578295E+02  0.51323717430E+02  0.00000000000E+00 0. -1.
</event>
<event>
 7    1  0.2641580E-009  0.1938231E+03  0.7561462E-02  0.1155058E+00
          2   -1    0    0  501    0  0.00000000000E+00  0.00000000000E+00  0.18189315274E+04  0.18189315274E+04  0.00000000000E+00 0.  1.
         -2   -1    0    0    0  501 -0.00000000000E+00 -0.00000000000E+00 -0.26526338562E+02  0.26526338562E+02  0.00000000000E+00 0. -1.
         25    2    1    2    0    0  0.10298936184E+03 -0.15022143046E+03  0.11646835206E+04  0.11854573130E+04  0.12509217012E+03 0.  0.
          5    1    3    3  502    0  0.83991742912E+02 -0.16129889734E+03  0.81479579721E+03  0.83485424519E+03  0.41800000000E+01 0. -1.
         -5    1    3    3    0  502  0.18997618924E+02  0.11077466875E+02  0.34988772335E+03  0.35060306779E+03  0.41800000000E+01 0. -1.
        -11    1    1    2    0    0 -0.35733805949E+02  0.70621547255E+02  0.42236045028E+03  0.42971229653E+03  0.00000000000E+00 0.  1.
         11    1    1    2    0    0 -0.67255555888E+02  0.79599883208E+02  0.20536121805E+03  0.23028825650E+03  0.00000000000E+00 0. -1.
</event>
<event>
 7    1  0.2641580E-009  0.1129484E+03  0.7561462E-02  0.1255205E+00
          2   -1    0    0  501    0  0.00000000000E+00  0.00000000000E+00  0.52377065157E+03  0.52377065157E+03  0.00000000000E+00 0. -1.
         -2   -1    0    0    0  501 -0.00000000000E+00 -0.00000000000E+00 -0.42655111138E+02  0.42655111138E+02  0.00000000000E+00 0.  1.
         25    2    1    2    0    0  0.65452974268E+02 -0.11270390045E+02  0.10984012373E+03  0.17923129077E+03  0.12509152361E+03 0.  0.
          5    1    3    3  502    0  0.63377281392E+02 -0.47693435635E+02  0.11739571803E+03  0.14174121000E+03  0.41800000000E+01 0.  1.
         -5    1    3    3    0  502  0.20756928755E+01  0.36423045590E+02 -0.75555943076E+01  0.37490080772E+02  0.41800000000E+01 0.  1.
        -11    1    1    2    0    0  0.32811801349E+01  0.36412221794E+02  0.11480535429E+03  0.12048603825E+03  0.00000000000E+00 0. -1.
         11    1    1    2    0    0 -0.68734154403E+02 -0.25141831749E+02  0.25647006242E+03  0.26670843369E+03  0.00000000000E+00 0.  1.
</event>
<event>
 7    1  0.2641580E-009  0.2328149E+03  0.7561462E-02  0.1124674E+00
          2   -1    0    0  501    0  0.00000000000E+00  0.00000000000E+00  0.18742669823E+04  0.18742669823E+04  0.00000000000E+00 0.  1.
         -2   -1    0    0    0  501 -0.00000000000E+00 -0.00000000000E+00 -0.36565264457E+02  0.36565264457E+02  0.00000000000E+00 0. -1.
         25    2    1    2    0    0 -0.18103338185E+03 -0.11046258410E+03  0.13425970308E+04  0.13649868855E+04  0.12508933897E+03 0.  0.
          5    1    3    3  502    0 -0.12173638757E+02  0.21385322879E+02  0.27291323785E+03  0.27405225288E+03  0.41800000000E+01 0. -1.
         -5    1    3    3    0  502 -0.16885974309E+03 -0.13184790698E+03  0.10696837929E+04  0.10909346326E+04  0.41800000000E+01 0. -1.
        -11    1    1    2    0    0  0.27128106089E+02 -0.12044875251E+02  0.38054029186E+02  0.48260981104E+02  0.00000000000E+00 0. -1.
         11    1    1    2    0    0  0.15390527576E+03  0.12250745935E+03  0.45705065792E+03  0.49758438019E+03  0.00000000000E+00 0.  1.
</event>
<event>
 7    1  0.2641580E-009  0.1361559E+03  0.7561462E-02  0.1218597E+00
         -2   -1    0    0    0  501 -0.00000000000E+00  0.00000000000E+00  0.78774169019E+02  0.78774169019E+02  0.00000000000E+00 0.  1.
          2   -1    0    0  501    0  0.00000000000E+00 -0.00000000000E+00 -0.30067629494E+03  0.30067629494E+03  0.00000000000E+00 0. -1.
         25    2    1    2    0    0  0.81285996907E+02  0.43688774504E+02 -0.10013153067E+03  0.18490245405E+03  0.12508585759E+03 0.  0.
          5    1    3    3  502    0 -0.15772506985E+02  0.21478866904E+02 -0.78393305770E+02  0.82904140365E+02  0.41800000000E+01 0. -1.
         -5    1    3    3    0  502  0.97058503891E+02  0.22209907600E+02 -0.21738224902E+02  0.10199831369E+03  0.41800000000E+01 0. -1.
        -11    1    1    2    0    0 -0.10693642115E+03 -0.16322348720E+02 -0.11216492154E+03  0.15582935172E+03  0.00000000000E+00 0. -1.
         11    1    1    2    0    0  0.25650424239E+02 -0.27366425784E+02 -0.96056737071E+01  0.38718658179E+02  0.00000000000E+00 0.  1.
</event>
<event>
 7    1  0.2641580E-009  0.9100688E+02  0.7561462E-02  0.1300432E+00
         -2   -1    0    0    0  501 -0.00000000000E+00  0.00000000000E+00  0.53012476178E+02  0.53012476178E+02  0.00000000000E+00 0.  1.
          2   -1    0    0  501    0  0.00000000000E+00 -0.00000000000E+00 -0.23014241729E+03  0.23014241729E+03  0.00000000000E+00 0. -1.
         25    2    1    2    0    0 -0.14318013981E+02  0.74093878408E+01 -0.11444501175E+03  0.17030633352E+03  0.12508669781E+03 0.  0.
          5    1    3    3  502    0 -0.39094400224E+02 -0.31185063550E+02 -0.11366132095E+03  0.12424672470E+03  0.41800000000E+01 0. -1.
         -5    1    3    3    0  502  0.24776386244E+02  0.38594451391E+02 -0.78369079672E+00  0.46059608821E+02  0.41800000000E+01 0. -1.
        -11    1    1    2    0    0  0.31156883538E+02 -0.39037218005E+02 -0.13034678599E+02  0.51619362913E+02  0.00000000000E+00 0.  1.
         11    1    1    2    0    0 -0.16838869557E+02  0.31627830165E+02 -0.49650250767E+02  0.61229197039E+02  0.00000000000E+00 0. -1.
</event>
<event>
 7    1  0.2641580E-009  0.1277110E+03  0.7561462E-02  0.1230892E+00
         -1   -1    0    0    0  501 -0.00000000000E+00  0.00000000000E+00  0.75201587407E+02  0.75201587407E+02  0.00000000000E+00 0.  1.
          1   -1    0    0  501    0  0.00000000000E+00 -0.00000000000E+00 -0.25433335506E+03  0.25433335506E+03  0.00000000000E+00 0. -1.
         25    2    1    2    0    0  0.85200438005E+02 -0.29388843508E+00 -0.94372319610E+02  0.17836481234E+03  0.12509464643E+03 0.  0.
          5    1    3    3  502    0  0.11287366389E+03  0.65293997742E+01 -0.46142924076E+02  0.12218731073E+03  0.41800000000E+01 0.  1.
         -5    1    3    3    0  502 -0.27673225889E+02 -0.68232882093E+01 -0.48229395533E+02  0.56177501605E+02  0.41800000000E+01 0.  1.
        -11    1    1    2    0    0  0.83937854814E+00 -0.24044818675E+02 -0.49529912514E+02  0.55064236080E+02  0.00000000000E+00 0. -1.
         11    1    1    2    0    0 -0.86039816553E+02  0.24338707110E+02 -0.35229535525E+02  0.96105894042E+02  0.00000000000E+00 0.  1.
</event>
<event>
 7    1  0.2641580E-009  0.9869716E+02  0.7561462E-02  0.1283060E+00
         -1   -1    0    0    0  501 -0.00000000000E+00  0.00000000000E+00  0.14453898551E+02  0.14453898551E+02  0.00000000000E+00 0.  1.
          1   -1    0    0  501    0  0.00000000000E+00 -0.00000000000E+00 -0.13010439145E+04  0.13010439145E+04  0.00000000000E+00 0. -1.
         25    2    1    2    0    0  0.20985623543E+01 -0.24443661839E+02 -0.10932663487E+04  0.11006730043E+04  0.12509139238E+03 0.  0.
          5    1    3    3  502    0  0.29941923484E+02 -0.63865824244E+02 -0.44250939555E+03  0.44811538674E+03  0.41800000000E+01 0. -1.
         -5    1    3    3    0  502 -0.27843361130E+02  0.39422162405E+02 -0.65075695320E+03  0.65255761752E+03  0.41800000000E+01 0. -1.
        -11    1    1    2    0    0  0.31387903696E+02  0.31058241989E+02 -0.46659931270E+02  0.64241451416E+02  0.00000000000E+00 0.  1.
         11    1    1    2    0    0 -0.33486466050E+02 -0.66145801497E+01 -0.14666373591E+03  0.15058335735E+03  0.00000000000E+00 0. -1.
</event>
<event>
 7    1  0.2641580E-009  0.1537981E+03  0.7561462E-02  0.1195882E+00
          2   -1    0    0  501    0  0.00000000000E+00  0.00000000000E+00  0.45018015197E+03  0.45018015197E+03  0.00000000000E+00 0.  1.
         -2   -1    0    0    0  501 -0.00000000000E+00 -0.00000000000E+00 -0.60198240904E+02  0.60198240904E+02  0.00000000000E+00 0. -1.
         25    2    1    2    0    0 -0.29336977761E+02 -0.11515883272E+03  0.15983325831E+03  0.23519487384E+03  0.12509093972E+03 0.  0.
          5    1    3    3  502    0 -0.74402930181E+02 -0.81596798691E+02  0.13261070741E+03  0.17261780238E+03  0.41800000000E+01 0.  1.
         -5    1    3    3    0  502  0.45065952420E+02 -0.33562034033E+02  0.27222550894E+02  0.62577071465E+02  0.41800000000E+01 0.  1.
        -11    1    1    2    0    0  0.42898753381E+02  0.11912684441E+03  0.16212946031E+03  0.20571210465E+03  0.00000000000E+00 0. -1.
         11    1    1    2    0    0 -0.13561775620E+02 -0.39680116852E+01  0.68019192451E+02  0.69471414383E+02  0.00000000000E+00 0.  1.
</event>
<event>
 7    1  0.2641580E-009  0.1243191E+03  0.7561462E-02  0.1236137E+00
          2   -1    0    0  501    0  0.00000000000E+00  0.00000000000E+00  0.14321470550E+03  0.14321470550E+03  0.00000000000E+00 0. -1.
         -2   -1    0    0    0  501 -0.00000000000E+00 -0.00000000000E+00 -0.11485477358E+03  0.11485477358E+03  0.00000000000E+00 0.  1.
         25    2    1    2    0    0 -0.55203369219E+02 -0.41807971806E+02  0.22183731737E+02  0.14468840738E+03  0.12508916339E+03 0.  0.
          5    1    3    3  502    0 -0.19659631600E+02 -0.82910369041E+02 -0.13549078270E+01  0.85322556129E+02  0.41800000000E+01 0.  1.
         -5    1    3    3    0  502 -0.35543737619E+02  0.41102397235E+02  0.23538639564E+02  0.59365851252E+02  0.41800000000E+01 0.  1.
        -11    1    1    2    0    0 -0.22615807313E+02  0.10713078297E+02 -0.11808926457E+02  0.27671204005E+02  0.00000000000E+00 0.  1.
         11    1    1    2    0    0  0.77819176532E+02  0.31094893509E+02  0.17985126642E+02  0.85709867687E+02  0.00000000000E+00 0. -1.
</event>
<event>
 7    1  0.2641580E-009  0.1297826E+03  0.7561462E-02  0.1227779E+00
         -2   -1    0    0    0  501 -0.00000000000E+00  0.00000000000E+00  0.26287010388E+02  0.26287010388E+02  0.00000000000E+00 0.  1.
          2   -1    0    0  501    0  0.00000000000E+00 -0.00000000000E+00 -0.81650853778E+03  0.81650853778E+03  0.00000000000E+00 0. -1.
         25    2    1    2    0    0 -0.53479488426E+02  0.48548251677E+02 -0.23614998149E+03  0.27682328473E+03  0.12508928328E+03 0.  0.
          5    1    3    3  502    0 -0.84527207732E+02 -0.19901416719E+01 -0.14783442315E+03  0.17035638696E+03  0.41800000000E+01 0. -1.
         -5    1    3    3    0  502  0.31047719305E+02  0.50538393349E+02 -0.88315558340E+02  0.10646689777E+03  0.41800000000E+01 0. -1.
        -11    1    1    2    0    0  0.69566607148E+02 -0.58378305051E+01 -0.33342937797E+03  0.34065927727E+03  0.00000000000E+00 0.  1.
         11    1    1    2    0    0 -0.16087118721E+02 -0.42710421172E+02 -0.22064216793E+03  0.22531298616E+03  0.00000000000E+00 0. -1.
</event>
<event>
 7    1  0.2641580E-009  0.1331806E+03  0.7561462E-02  0.1222811E+00
          1   -1    0    0  501    0  0.00000000000E+00  0.00000000000E+00  0.81452695606E+03  0.81452695606E+03  0.00000000000E+00 0. -1.
         -1   -1    0    0    0  501 -0.00000000000E+00 -0.00000000000E+00 -0.28127277099E+02  0.28127277099E+02  0.00000000000E+00 0.  1.
         25    2    1    2    0    0 -0.76723981713E+02 -0.20745149325E+02  0.61801135646E+03  0.63553342817E+03  0.12509105089E+03 0.  0.
          5    1    3    3  502    0 -0.10158708266E+03 -0.44670387217E+02  0.51428348797E+03  0.52613720383E+03  0.41800000000E+01 0.  1.
         -5    1    3    3    0  502  0.24863100948E+02  0.23925237892E+02  0.10372786850E+03  0.10939622434E+03  0.41800000000E+01 0.  1.
        -11    1    1    2    0    0 -0.35261227401E+01  0.38251057526E+02  0.56450388131E+02  0.68280474981E+02  0.00000000000E+00 0.  1.
         11    1    1    2    0    0  0.80250104454E+02 -0.17505908202E+02  0.11193793437E+03  0.13884033001E+03  0.00000000000E+00 0. -1.
</event>
<event>
 7    1  0.2641580E-009  0.1402569E+03  0.7561462E-02  0.1212984E+00
          2   -1    0    0  501    0  0.00000000000E+00  0.00000000000E+00  0.10443743529E+03  0.10443743529E+03  0.00000000000E+00 0. -1.
         -2   -1    0    0    0  501 -0.00000000000E+00 -0.00000000000E+00 -0.22486345325E+03  0.22486345325E+03  0.00000000000E+00 0.  1.
         25    2    1    2    0    0 -0.90025529856E+02  0.68163418476E+02 -0.11729937473E+03  0.20532369403E+03  0.12509128016E+03 0.  0.
          5    1    3    3  502    0 -0.94864377022E+02  0.60709453360E+00 -0.41626429753E+02  0.10368148651E+03  0.41800000000E+01 0. -1.
         -5    1    3    3    0  502  0.48388471661E+01  0.67556323943E+02 -0.75672944977E+02  0.10164220751E+03  0.41800000000E+01 0. -1.
        -11    1    1    2    0    0  0.52889772555E+02 -0.59413909414E+02  0.16248012776E+02  0.81187059264E+02  0.00000000000E+00 0. -1.
         11    1    1    2    0    0  0.37135757301E+02 -0.87495090621E+01 -0.19374656006E+02  0.42790135247E+02  0.00000000000E+00 0.  1.
</event>
<event>
 7    1  0.2641580E-009  0.1063410E+03  0.7561462E-02  0.1267500E+00
          4   -1    0    0  501    0  0.00000000000E+00  0.00000000000E+00  0.13327623399E+03  0.13327623399E+03  0.00000000000E+00 0. -1.
         -4   -1    0    0    0  501 -0.00000000000E+00 -0.00000000000E+00 -0.11609265329E+03  0.11609265329E+03  0.00000000000E+00 0.  1.
         25    2    1    2    0    0  0.56568389206E+02  0.15536900138E+02  0.30405799954E+02  0.14146663820E+03  0.12508764579E+03 0.  0.
          5    1    3    3  502    0 -0.85219031993E+01 -0.31423899486E+02  0.48993589525E+02  0.58973964659E+02  0.41800000000E+01 0. -1.
         -5    1    3    3    0  502  0.65090292405E+02  0.46960799624E+02 -0.18587789571E+02  0.82492673540E+02  0.41800000000E+01 0. -1.
        -11    1    1    2    0    0  0.85031412493E+01 -0.31380350329E+02 -0.23540450145E+02  0.40139538997E+02  0.00000000000E+00 0.  1.
         11    1    1    2    0    0 -0.65071530455E+02  0.15843450191E+02  0.10318230889E+02  0.67762710088E+02  0.00000000000E+00 0. -1.
</event>
<event>
 7    1  0.2641580E-009  0.9684815E+02  0.7561462E-02  0.1287067E+00
         -2   -1    0    0    0  501 -0.00000000000E+00  0.00000000000E+00  0.78577487080E+02  0.78577487080E+02  0.00000000000E+00 0. -1.
          2   -1    0    0  501    0  0.00000000000E+00 -0.00000000000E+00 -0.15597805765E+03  0.15597805765E+03  0.00000000000E+00 0.  1.
         25    2    1    2    0    0 -0.78713143178E+01 -0.87219856184E+01 -0.65115368002E+02  0.14150760566E+03  0.12508541357E+03 0.  0.
          5    1    3    3  502    0  0.33121836884E+02 -0.51403618957E+02 -0.13256166968E+02  0.62710337929E+02  0.41800000000E+01 0. -1.
         -5    1    3    3    0  502 -0.40993151201E+02  0.42681633339E+02 -0.51859201034E+02  0.78797267730E+02  0.41800000000E+01 0. -1.
        -11    1    1    2    0    0  0.34815853638E+02  0.23825512178E+02 -0.34910696821E+02  0.54759067264E+02  0.00000000000E+00 0. -1.
         11    1    1    2    0    0 -0.26944539320E+02 -0.15103526559E+02  0.22625494256E+02  0.38288871804E+02  0.00000000000E+00 0.  1.
</event>
<event>
 7    1  0.2641580E-009  0.1081170E+03  0.7561462E-02  0.1264097E+00
          2   -1    0    0  501    0  0.00000000000E+00  0.00000000000E+00  0.39399032922E+03  0.39399032922E+03  0.00000000000E+00 0. -1.
         -2   -1    0    0    0  501 -0.00000000000E+00 -0.00000000000E+00 -0.54638911309E+02  0.54638911309E+02  0.00000000000E+00 0.  1.
         25    2    1    2    0    0  0.10120931422E+02 -0.98062660867E+02  0.19373326394E+03  0.25079755032E+03  0.12509242576E+03 0.  0.
          5    1    3    3  502    0 -0.91139807950E+01 -0.82640306245E+02  0.35330923615E+02  0.90433574660E+02  0.41800000000E+01 0. -1.
         -5    1    3    3    0  502  0.19234912218E+02 -0.15422354622E+02  0.15840234032E+03  0.16036397566E+03  0.41800000000E+01 0. -1.
        -11    1    1    2    0    0 -0.27663258442E+02  0.59476933917E+02  0.14060094401E+03  0.15514956330E+03  0.00000000000E+00 0. -1.
         11    1    1    2    0    0  0.17542327020E+02  0.38585726950E+02  0.50172099639E+01  0.42682126908E+02  0.00000000000E+00 0.  1.
</event>
<event>
 7    1  0.2641580E-009  0.1264521E+03  0.7561462E-02  0.1232817E+00
          2   -1    0    0  501    0  0.00000000000E+00  0.00000000000E+00  0.95845827200E+03  0.95845827200E+03  0.00000000000E+00 0. -1.
         -2   -1    0    0    0  501 -0.00000000000E+00 -0.00000000000E+00 -0.20208939943E+02  0.20208939943E+02  0.00000000000E+00 0.  1.
         25    2    1    2    0    0 -0.81789368220E+02  0.61525377525E+02  0.56100668704E+03  0.58382447408E+03  0.12509053045E+03 0.  0.
          5    1    3    3  502    0 -0.62609613457E+02  0.87481417307E+02  0.26499573509E+03  0.28603002305E+03  0.41800000000E+01 0.  1.
         -5    1    3    3    0  502 -0.19179754763E+02 -0.25956039783E+02  0.29601095195E+03  0.29779445104E+03  0.41800000000E+01 0.  1.
        -11    1    1    2    0    0  0.66211836847E+02 -0.68821495198E+02  0.27374556648E+03  0.28992592279E+03  0.00000000000E+00 0.  1.
         11    1    1    2    0    0  0.15577531373E+02  0.72961176738E+01  0.10349707854E+03  0.10491681506E+03  0.00000000000E+00 0. -1.
</event>
<event>
 7    1  0.2641580E-009  0.1410556E+03  0.7561462E-02  0.1211916E+00
          2   -1    0    0  501    0  0.00000000000E+00  0.00000000000E+00  0.78915588766E+02  0.78915588766E+02  0.00000000000E+00 0.  1.
         -2   -1    0    0    0  501 -0.00000000000E+00 -0.00000000000E+00 -0.36276729876E+03  0.36276729876E+03  0.00000000000E+00 0. -1.
         25    2    1    2    0    0 -0.11908385735E+03  0.25111610306E+02 -0.17617403287E+03  0.24798301715E+03  0.12508688533E+03 0.  0.
          5    1    3    3  502    0 -0.88034597512E+02  0.31448194928E+02 -0.19104321433E+03  0.21273002013E+03  0.41800000000E+01 0. -1.
         -5    1    3    3    0  502 -0.31049259841E+02 -0.63365846213E+01  0.14869181459E+02  0.35252997016E+02  0.41800000000E+01 0. -1.
        -11    1    1    2    0    0  0.42793899508E+02 -0.59170480576E+02 -0.72960409058E+02  0.10322637694E+03  0.00000000000E+00 0.  1.
         11    1    1    2    0    0  0.76289957846E+02  0.34058870269E+02 -0.34717268058E+02  0.90473493430E+02  0.00000000000E+00 0. -1.
</event>
<event>
 7    1  0.2641580E-009  0.1687293E+03  0.7561462E-02  0.1179179E+00
          2   -1    0    0  501    0  0.00000000000E+00  0.00000000000E+00  0.21799069502E+04  0.21799069502E+04  0.00000000000E+00 0. -1.
         -2   -1    0    0    0  501 -0.00000000000E+00 -0.00000000000E+00 -0.13807296136E+02  0.13807296136E+02  0.00000000000E+00 0.  1.
         25    2    1    2    0    0  0.83989856666E+02 -0.98296518221E+02  0.13820151910E+04  0.13936746950E+04  0.12508663389E+03 0.  0.
          5    1    3    3  502    0  0.10116112989E+03 -0.11583610495E+03  0.11282640116E+04  0.11387048475E+04  0.41800000000E+01 0.  1.
         -5    1    3    3    0  502 -0.17171273221E+02  0.17539586727E+02  0.25375117938E+03  0.25496984756E+03  0.41800000000E+01 0.  1.
        -11    1    1    2    0    0 -0.51142932576E+02 -0.39731280475E+01  0.23214716900E+03  0.23774712064E+03  0.00000000000E+00 0.  1.
         11    1    1    2    0    0 -0.32846924090E+02  0.10226964627E+03  0.55193729406E+03  0.56229243063E+03  0.00000000000E+00 0. -1.
</event>
<event>
 7    1  0.2641580E-009  0.1098613E+03  0.7561462E-02  0.1260827E+00
          1   -1    0    0  501    0  0.00000000000E+00  0.00000000000E+00  0.14457302876E+03  0.14457302876E+03  0.00000000000E+00 0. -1.
         -1   -1    0    0    0  501 -0.00000000000E+00 -0.00000000000E+00 -0.11390770399E+03  0.11390770399E+03  0.00000000000E+00 0.  1.
         25    2    1    2    0    0 -0.44449450020E+02 -0.38064396781E+02  0.57605891923E+02  0.14963450938E+03  0.12508955074E+03 0.  0.
          5    1    3    3  502    0 -0.73363376630E+02 -0.65114767753E+02  0.38317257149E+02  0.10539356055E+03  0.41800000000E+01 0. -1.
         -5    1    3    3    0  502  0.28913926610E+02  0.27050370972E+02  0.19288634774E+02  0.44240948828E+02  0.41800000000E+01 0. -1.
        -11    1    1    2    0    0  0.44258920204E+01  0.41333322657E+02 -0.48003296101E+02  0.63500775733E+02  0.00000000000E+00 0.  1.
         11    1    1    2    0    0  0.40023558000E+02 -0.32689258765E+01  0.21062728943E+02  0.45345447642E+02  0.00000000000E+00 0. -1.
</event>
<event>
 7    1  0.2641580E-009  0.2067489E+03  0.7561462E-02  0.1144167E+00
          1   -1    0    0  501    0  0.00000000000E+00  0.00000000000E+00  0.10505669159E+04  0.10505669159E+04  0.00000000000E+00 0. -1.
         -1   -1    0    0    0  501 -0.00000000000E+00 -0.00000000000E+00 -0.43656703075E+02  0.43656703075E+02  0.00000000000E+00 0.  1.
         25    2    1    2    0    0 -0.43798307127E+02  0.17465716094E+03  0.51937649117E+03  0.56376073848E+03  0.12510321775E+03 0.  0.
          5    1    3    3  502    0 -0.78102583861E+02  0.13794953315E+03  0.30766239387E+03  0.34612672290E+03  0.41800000000E+01 0. -1.
         -5    1    3    3    0  502  0.34304276733E+02  0.36707627785E+02  0.21171409731E+03  0.21763401558E+03  0.41800000000E+01 0. -1.
        -11    1    1    2    0    0  0.88921933545E+01 -0.16888932403E+03  0.43861408677E+03  0.47009040831E+03  0.00000000000E+00 0.  1.
         11    1    1    2    0    0  0.34906113773E+02 -0.57678369038E+01  0.48919634905E+02  0.60372472208E+02  0.00000000000E+00 0. -1.
</event>
<event>
 7    1  0.2641580E-009  0.2390551E+03  0.7561462E-02  0.1120424E+00
         -1   -1    0    0    0  501 -0.00000000000E+00  0.00000000000E+00  0.10464448613E+03  0.10464448613E+03  0.00000000000E+00 0.  1.
          1   -1    0    0  501    0  0.00000000000E+00 -0.00000000000E+00 -0.57805837568E+03  0.57805837568E+03  0.00000000000E+00 0. -1.
         25    2    1    2    0    0  0.10238345873E+03 -0.19248532247E+03 -0.20044621436E+03  0.32149042346E+03  0.12507771801E+03 0.  0.
          5    1    3    3  502    0  0.46662363594E+02 -0.60585588369E+01 -0.82315364044E+01  0.47951151216E+02  0.41800000000E+01 0.  1.
         -5    1    3    3    0  502  0.55721095131E+02 -0.18642676363E+03 -0.19221467796E+03  0.27353927225E+03  0.41800000000E+01 0.  1.
        -11    1    1    2    0    0  0.15825585390E+02  0.42040709179E+02 -0.44808998942E+02  0.63448536369E+02  0.00000000000E+00 0.  1.
         11    1    1    2    0    0 -0.11820904411E+03  0.15044461329E+03 -0.22815867625E+03  0.29776390199E+03  0.00000000000E+00 0. -1.
</event>
<event>
 7    1  0.2641580E-009  0.9501091E+02  0.7561462E-02  0.1291152E+00
          2   -1    0    0  501    0  0.00000000000E+00  0.00000000000E+00  0.18461745270E+03  0.18461745270E+03  0.00000000000E+00 0. -1.
         -2   -1    0    0    0  501 -0.00000000000E+00 -0.00000000000E+00 -0.83984172825E+02  0.83984172825E+02  0.00000000000E+00 0.  1.
         25    2    1    2    0    0 -0.31760581747E+01  0.55492872816E+02  0.79069082359E+02  0.15807943849E+03  0.12509053845E+03 0.  0.
          5    1    3    3  502    0  0.23086010677E+02 -0.14918807404E+02  0.77998686508E+02  0.82805810184E+02  0.41800000000E+01 0.  1.
         -5    1    3    3    0  502 -0.26262068852E+02  0.70411680220E+02  0.10703958514E+01  0.75273628310E+02  0.41800000000E+01 0.  1.
        -11    1    1    2    0    0  0.26375174958E+02 -0.57904707419E+02  0.44629020399E+02  0.77719717299E+02  0.00000000000E+00 0. -1.
         11    1    1    2    0    0 -0.23199116784E+02  0.24118346026E+01 -0.23064822885E+02  0.32802469730E+02  0.00000000000E+00 0.  1.
</event>
<event>
 7    1  0.2641580E-009  0.8518854E+02  0.7561462E-02  0.1314940E+00
          1   -1    0    0  501    0  0.00000000000E+00  0.00000000000E+00  0.59910902508E+03  0.59910902508E+03  0.00000000000E+00 0. -1.
         -1   -1    0    0    0  501 -0.00000000000E+00 -0.00000000000E+00 -0.21984337513E+02  0.21984337513E+02  0.00000000000E+00 0.  1.
         25    2    1    2    0    0  0.27067317772E+02  0.29746783402E+01  0.26078462422E+03  0.29051232221E+03  0.12508917110E+03 0.  0.
          5    1    3    3  502    0  0.51818648454E+02  0.16798086890E+02  0.25562134179E+03  0.26139451186E+03  0.41800000000E+01 0.  1.
         -5    1    3    3    0  502 -0.24751330681E+02 -0.13823408549E+02  0.51632824258E+01  0.29117810354E+02  0.41800000000E+01 0.  1.
        -11    1    1    2    0    0 -0.30501891677E+02  0.36441267467E+02  0.23932335152E+03  0.24399589741E+03  0.00000000000E+00 0. -1.
         11    1    1    2    0    0  0.34345739050E+01 -0.39415945807E+02  0.77016711829E+02  0.86585142968E+02  0.00000000000E+00 0.  1.
</event>
<event>
 7    1  0.2641580E-009  0.1570238E+03  0.7561462E-02  0.1192098E+00
          4   -1    0    0  501    0  0.00000000000E+00  0.00000000000E+00  0.39957292355E+03  0.39957292355E+03  0.00000000000E+00 0. -1.
         -4   -1    0    0    0  501 -0.00000000000E+00 -0.00000000000E+00 -0.79405604678E+02  0.79405604678E+02  0.00000000000E+00 0.  1.
         25    2    1    2    0    0  0.15339255746E+02 -0.13915238874E+03  0.14450679255E+03  0.23691256308E+03  0.12508664754E+03 0.  0.
          5    1    3    3  502    0 -0.25546578399E+02 -0.75736248700E+02  0.74259074128E+01  0.80381736334E+02  0.41800000000E+01 0.  1.
         -5    1    3    3    0  502  0.40885834145E+02 -0.63416140042E+02  0.13708088514E+03  0.15653082675E+03  0.41800000000E+01 0.  1.
        -11    1    1    2    0    0 -0.30992204558E+02  0.17116505562E+02  0.12140640248E+02  0.37428420373E+02  0.00000000000E+00 0.  1.
         11    1    1    2    0    0  0.15652948812E+02  0.12203588318E+03  0.16351988607E+03  0.20463754477E+03  0.00000000000E+00 0. -1.
</event>
<event>
 7    1  0.2641580E-009  0.1295274E+03  0.7561462E-02  0.1228159E+00
          2   -1    0    0  501    0  0.00000000000E+00  0.00000000000E+00  0.89454238213E+02  0.89454238213E+02  0.00000000000E+00 0.  1.
         -2   -1    0    0    0  501 -0.00000000000E+00 -0.00000000000E+00 -0.22855261841E+03  0.22855261841E+03  0.00000000000E+00 0. -1.
         25    2    1    2    0    0 -0.44419505498E+02 -0.67639894565E+02 -0.12776995865E+03  0.19626766520E+03  0.12509031243E+03 0.  0.
          5    1    3    3  502    0 -0.81498333276E+02 -0.74908112233E+02 -0.99418996868E+02  0.14884492918E+03  0.41800000000E+01 0. -1.
         -5    1    3    3    0  502  0.37078827778E+02  0.72682176686E+01 -0.28350961780E+02  0.47422736017E+02  0.41800000000E+01 0. -1.
        -11    1    1    2    0    0  0.17689425435E+02 -0.15136457398E+02  0.18547524121E+02  0.29766403306E+02  0.00000000000E+00 0.  1.
         11    1    1    2    0    0  0.26730080063E+02  0.82776351963E+02 -0.29875945668E+02  0.91972788117E+02  0.00000000000E+00 0. -1.
</event>
<event>
 7    1  0.2641580E-009  0.2555067E+03  0.7561462E-02  0.1109873E+00
          2   -1    0    0  501    0  0.00000000000E+00  0.00000000000E+00  0.44286999434E+03  0.44286999434E+03  0.00000000000E+00 0. -1.
         -2   -1    0    0    0  501 -0.00000000000E+00 -0.00000000000E+00 -0.18614226956E+03  0.18614226956E+03  0.00000000000E+00 0.  1.
         25    2    1    2    0    0  0.16812692903E+03  0.18448337117E+03  0.31476301353E+02  0.28096124460E+03  0.12509070675E+03 0.  0.
          5    1    3    3  502    0  0.14879294423E+03  0.14417402879E+03  0.73093044614E+02  0.21973974698E+03  0.41800000000E+01 0.  1.
         -5    1    3    3    0  502  0.19333984795E+02  0.40309342383E+02 -0.41616743261E+02  0.61221497621E+02  0.41800000000E+01 0.  1.
        -11    1    1    2    0    0 -0.47967241966E+02 -0.13368535498E+02  0.77146115472E+02  0.91821006178E+02  0.00000000000E+00 0. -1.
         11    1    1    2    0    0 -0.12015968706E+03 -0.17111483567E+03  0.14810530795E+03  0.25623001312E+03  0.00000000000E+00 0.  1.
</event>
<event>
 7    1  0.2641580E-009  0.8550445E+02  0.7561462E-02  0.1314119E+00
         -2   -1    0    0    0  501 -0.00000000000E+00  0.00000000000E+00  0.57016327503E+02  0.57016327503E+02  0.00000000000E+00 0.  1.
          2   -1    0    0  501    0  0.00000000000E+00 -0.00000000000E+00 -0.35196498896E+03  0.35196498896E+03  0.00000000000E+00 0. -1.
         25    2    1    2    0    0  0.54793601347E+02  0.41277495845E+02 -0.25049681395E+03  0.28827367250E+03  0.12508751354E+03 0.  0.
          5    1    3    3  502    0  0.46955770470E+02  0.59689196123E+02 -0.25603549419E+03  0.26709416167E+03  0.41800000000E+01 0. -1.
         -5    1    3    3    0  502  0.78378308768E+01 -0.18411700278E+02  0.55386802399E+01  0.21179510825E+02  0.41800000000E+01 0. -1.
        -11    1    1    2    0    0 -0.18698008990E+02  0.12332097850E+01  0.25248844761E+02  0.31442654282E+02  0.00000000000E+00 0.  1.
         11    1    1    2    0    0 -0.36095592357E+02 -0.42510705630E+02 -0.69700692273E+02  0.89264989689E+02  0.00000000000E+00 0. -1.
</event>
<event>
 7    1  0.2930398E-009  0.1744478E+03  0.7561462E-02  0.1173287E+00
          2   -1    0    0  501    0  0.00000000000E+00  0.00000000000E+00  0.10070297670E+04  0.10070297670E+04  0.00000000000E+00 0. -1.
         -2   -1    0    0    0  501 -0.00000000000E+00 -0.00000000000E+00 -0.31380038586E+02  0.31380038586E+02  0.00000000000E+00 0.  1.
         25    2    1    2    0    0  0.10287714065E+03 -0.92907453540E+02  0.45107398339E+03  0.48819099197E+03  0.12508878912E+03 0.  0.
          5    1    3    3  502    0  0.14108631041E+01 -0.84482957341E+02  0.21635667336E+03  0.23230807804E+03  0.41800000000E+01 0.  1.
         -5    1    3    3    0  502  0.10146627755E+03 -0.84244961990E+01  0.23471731003E+03  0.25588291393E+03  0.41800000000E+01 0.  1.
        -11    1    1    2    0    0 -0.50343419266E+01  0.58445578256E+02  0.13764837393E+03  0.14962722033E+03  0.00000000000E+00 0. -1.
         11    1    1    2    0    0 -0.97842798725E+02  0.34461875284E+02  0.38692737112E+03  0.40059159331E+03  0.00000000000E+00 0.  1.
</event>
<event>
 7    1  0.2641580E-009  0.1614086E+03  0.7561462E-02  0.1187116E+00
          1   -1    0    0  501    0  0.00000000000E+00  0.00000000000E+00  0.10230664434E+03  0.10230664434E+03  0.00000000000E+00 0. -1.
         -1   -1    0    0    0  501 -0.00000000000E+00 -0.00000000000E+00 -0.32086959547E+03  0.32086959547E+03  0.00000000000E+00 0.  1.
         25    2    1    2    0    0 -0.53265289786E+02 -0.13254264679E+03 -0.14232954529E+03  0.23729687764E+03  0.12508942546E+03 0.  0.
          5    1    3    3  502    0 -0.16433530820E+02 -0.12338596232E+03 -0.44460907117E+02  0.13224371930E+03  0.41800000000E+01 0. -1.
         -5    1    3    3    0  502 -0.36831758966E+02 -0.91566844680E+01 -0.97868638174E+02  0.10505315834E+03  0.41800000000E+01 0. -1.
        -11    1    1    2    0    0  0.49537896460E+01  0.10370936519E+03 -0.77566226861E+02  0.12960205249E+03  0.00000000000E+00 0.  1.
         11    1    1    2    0    0  0.48311500140E+02  0.28833281599E+02  0.13328210171E+01  0.56277309685E+02  0.00000000000E+00 0. -1.
</event>
<event>
 7    1  0.2641580E-009  0.6587420E+02  0.7561462E-02  0.1374713E+00
         -1   -1    0    0    0  501 -0.00000000000E+00  0.00000000000E+00  0.11124680540E+03  0.11124680540E+03  0.00000000000E+00 0.  1.
          1   -1    0    0  501    0  0.00000000000E+00 -0.00000000000E+00 -0.10822193690E+03  0.10822193690E+03  0.00000000000E+00 0. -1.
         25    2    1    2    0    0  0.15473518407E+02  0.73465208746E+01  0.85281735033E+01  0.12654066678E+03  0.12508560854E+03 0.  0.
          5    1    3    3  502    0  0.23890330790E+02 -0.26498398935E+02 -0.48021226761E+02  0.59970189853E+02  0.41800000000E+01 0. -1.
         -5    1    3    3    0  502 -0.84168123834E+01  0.33844919810E+02  0.56549400265E+02  0.66570476924E+02  0.41800000000E+01 0. -1.
        -11    1    1    2    0    0  0.22388863556E+02 -0.24091439211E+01  0.32183415813E+02  0.39278969426E+02  0.00000000000E+00 0.  1.
         11    1    1    2    0    0 -0.37862381963E+02 -0.49373769535E+01 -0.37686720818E+02  0.53649106098E+02  0.00000000000E+00 0. -1.
</event>
<event>
 7    1  0.2641580E-009  0.1115312E+03  0.7561462E-02  0.1257760E+00
         -3   -1    0    0    0  501 -0.00000000000E+00  0.00000000000E+00  0.42398577061E+02  0.42398577061E+02  0.00000000000E+00 0.  1.
          3   -1    0    0  501    0  0.00000000000E+00 -0.00000000000E+00 -0.31285777009E+03  0.31285777009E+03  0.00000000000E+00 0. -1.
         25    2    1    2    0    0  0.30487018781E+02  0.13775172773E+02 -0.17600045194E+03  0.21850224093E+03  0.12509139263E+03 0.  0.
          5    1    3    3  502    0 -0.42250332372E+02 -0.17903910774E+02 -0.40097680252E+02  0.61081396252E+02  0.41800000000E+01 0. -1.
         -5    1    3    3    0  502  0.72737351152E+02  0.31679083548E+02 -0.13590277169E+03  0.15742084468E+03  0.41800000000E+01 0. -1.
        -11    1    1    2    0    0  0.22875247289E+02 -0.33570219103E+02 -0.28442991813E+02  0.49590728291E+02  0.00000000000E+00 0.  1.
         11    1    1    2    0    0 -0.53362266070E+02  0.19795046330E+02 -0.66015749273E+02  0.87163377926E+02  0.00000000000E+00 0. -1.
</event>
<event>
 7    1  0.2641580E-009  0.1046637E+03  0.7561462E-02  0.1270784E+00
          4   -1    0    0  501    0  0.00000000000E+00  0.00000000000E+00  0.20389477849E+03  0.20389477849E+03  0.00000000000E+00 0. -1.
         -4   -1    0    0    0  501 -0.00000000000E+00 -0.00000000000E+00 -0.73504769078E+02  0.73504769078E+02  0.00000000000E+00 0.  1.
         25    2    1    2    0    0  0.16571595689E+01 -0.26218037921E+02  0.12991188063E+03  0.18225003007E+03  0.12509134679E+03 0.  0.
          5    1    3    3  502    0 -0.32401510795E+02  0.33498208257E+02  0.16600266326E+02  0.49649059410E+02  0.41800000000E+01 0.  1.
         -5    1    3    3    0  502  0.34058670364E+02 -0.59716246178E+02  0.11331161430E+03  0.13260097066E+03  0.41800000000E+01 0.  1.
        -11    1    1    2    0    0  0.98008412917E+01  0.58547859505E+02 -0.77773842236E+01  0.59869825856E+02  0.00000000000E+00 0.  1.
         11    1    1    2    0    0 -0.11458000861E+02 -0.32329821584E+02  0.82555130096E+01  0.35279691643E+02  0.00000000000E+00 0. -1.
</event>
<event>
 7    1  0.2641580E-009  0.1167491E+03  0.7561462E-02  0.1248558E+00
          2   -1    0    0  501    0  0.00000000000E+00  0.00000000000E+00  0.22661214674E+03  0.22661214674E+03  0.00000000000E+00 0. -1.
         -2   -1    0    0    0  501 -0.00000000000E+00 -0.00000000000E+00 -0.72992279940E+02  0.72992279940E+02  0.00000000000E+00 0.  1.
         25    2    1    2    0    0 -0.56835739032E+02 -0.35796778430E+02  0.83653146450E+02  0.16479810694E+03  0.12509538986E+03 0.  0.
          5    1    3    3  502    0 -0.85993890063E+02 -0.21460001889E+02  0.16738723478E+02  0.90294728932E+02  0.41800000000E+01 0.  1.
         -5    1    3    3    0  502  0.29158151031E+02 -0.14336776540E+02  0.66914422972E+02  0.74503378009E+02  0.41800000000E+01 0.  1.
        -11    1    1    2    0    0 -0.36571967164E+01 -0.25574930355E+02  0.30654268663E+02  0.40089104976E+02  0.00000000000E+00 0. -1.
         11    1    1    2    0    0  0.60492935749E+02  0.61371708785E+02  0.39312451685E+02  0.94717214762E+02  0.00000000000E+00 0.  1.
</event>
<event>
 7    1  0.2641580E-009  0.1431319E+03  0.7561462E-02  0.1209176E+00
         -1   -1    0    0    0  501 -0.00000000000E+00  0.00000000000E+00  0.73544466789E+02  0.73544466789E+02  0.00000000000E+00 0.  1.
          1   -1    0    0  501    0  0.00000000000E+00 -0.00000000000E+00 -0.33318931830E+03  0.33318931830E+03  0.00000000000E+00 0. -1.
         25    2    1    2    0    0 -0.10214421464E+03 -0.23644671941E+02 -0.87709188194E+02  0.18529450449E+03  0.12509452667E+03 0.  0.
          5    1    3    3  502    0 -0.55644968670E+02 -0.67846386009E+02 -0.82959654124E+02  0.12082744409E+03  0.41800000000E+01 0.  1.
         -5    1    3    3    0  502 -0.46499245969E+02  0.44201714068E+02 -0.47495340704E+01  0.64467060396E+02  0.41800000000E+01 0.  1.
        -11    1    1    2    0    0  0.84229067643E+01  0.38344437114E+02 -0.81072218438E+02  0.90077443449E+02  0.00000000000E+00 0.  1.
         11    1    1    2    0    0  0.93721307875E+02 -0.14699765172E+02 -0.90863444883E+02  0.13136183716E+03  0.00000000000E+00 0. -1.
</event>
<event>
 7    1  0.2641580E-009  0.3603991E+03  0.7561462E-02  0.1058426E+00
         -2   -1    0    0    0  501 -0.00000000000E+00  0.00000000000E+00  0.23786222045E+03  0.23786222045E+03  0.00000000000E+00 0.  1.
          2   -1    0    0  501    0  0.00000000000E+00 -0.00000000000E+00 -0.59392442598E+03  0.59392442598E+03  0.00000000000E+00 0. -1.
         25    2    1    2    0    0  0.33047379973E+03  0.12970845771E+03 -0.24215678230E+03  0.44757605474E+03  0.12508877352E+03 0.  0.
          5    1    3    3  502    0  0.25186471521E+03  0.73352780594E+02 -0.23201046435E+03  0.35023248444E+03  0.41800000000E+01 0. -1.
         -5    1    3    3    0  502  0.78609084518E+02  0.56355677117E+02 -0.10146317945E+02  0.97343570306E+02  0.41800000000E+01 0. -1.
        -11    1    1    2    0    0 -0.15964114098E+03 -0.99582219274E+02 -0.91751812350E+02  0.20933300590E+03  0.00000000000E+00 0. -1.
         11    1    1    2    0    0 -0.17083265875E+03 -0.30126238436E+02 -0.22153610882E+02  0.17487758579E+03  0.00000000000E+00 0.  1.
</event>
<event>
 7    1  0.2641580E-009  0.1622038E+03  0.7561462E-02  0.1186231E+00
         -1   -1    0    0    0  501 -0.00000000000E+00  0.00000000000E+00  0.12039520400E+03  0.12039520400E+03  0.00000000000E+00 0.  1.
          1   -1    0    0  501    0  0.00000000000E+00 -0.00000000000E+00 -0.26475329853E+03  0.26475329853E+03  0.00000000000E+00 0. -1.
         25    2    1    2    0    0  0.11052426736E+03 -0.73658670082E+02 -0.24937841868E+02  0.18414951522E+03  0.12509170494E+03 0.  0.
          5    1    3    3  502    0  0.85771942439E+02 -0.96696602736E+02 -0.53242432443E+02  0.13985452479E+03  0.41800000000E+01 0. -1.
         -5    1    3    3    0  502  0.24752324926E+02  0.23037932654E+02  0.28304590575E+02  0.44294990437E+02  0.41800000000E+01 0. -1.
        -11    1    1    2    0    0 -0.68013738511E+02 -0.84648239868E+01 -0.59908818481E+02  0.91030700333E+02  0.00000000000E+00 0.  1.
         11    1    1    2    0    0 -0.42510528854E+02  0.82123494069E+02 -0.59511434185E+02  0.10996828698E+03  0.00000000000E+00 0. -1.
</event>
<event>
 7    1  0.2641580E-009  0.1977576E+03  0.7561462E-02  0.1151645E+00
         -2   -1    0    0    0  501 -0.00000000000E+00  0.00000000000E+00  0.26536376446E+02  0.26536376446E+02  0.00000000000E+00 0.  1.
          2   -1    0    0  501    0  0.00000000000E+00 -0.00000000000E+00 -0.16955181202E+04  0.16955181202E+04  0.00000000000E+00 0. -1.
         25    2    1    2    0    0 -0.10490851788E+03 -0.14581805303E+03 -0.99405689105E+03  0.10178737000E+04  0.12509622251E+03 0.  0.
          5    1    3    3  502    0  0.51039063367E+01 -0.83166899756E+02 -0.54285177259E+03  0.54922518376E+03  0.41800000000E+01 0. -1.
         -5    1    3    3    0  502 -0.11001242422E+03 -0.62651153270E+02 -0.45120511845E+03  0.46864851628E+03  0.41800000000E+01 0. -1.
        -11    1    1    2    0    0  0.74785975010E+02  0.64709203531E+02 -0.22149841571E+03  0.24257322862E+03  0.00000000000E+00 0. -1.
         11    1    1    2    0    0  0.30122542874E+02  0.81108849495E+02 -0.45342643701E+03  0.46160756800E+03  0.00000000000E+00 0.  1.
</event>
<event>
 7    1  0.2641580E-009  0.3072492E+03  0.7561462E-02  0.1081672E+00
          2   -1    0    0  501    0  0.00000000000E+00  0.00000000000E+00  0.54659832024E+03  0.54659832024E+03  0.00000000000E+00 0. -1.
         -2   -1    0    0    0  501 -0.00000000000E+00 -0.00000000000E+00 -0.18475793820E+03  0.18475793820E+03  0.00000000000E+00 0.  1.
         25    2    1    2    0    0  0.72705434462E+02  0.28856917033E+03  0.15833651809E+03  0.35955059999E+03  0.12509170526E+03 0.  0.
          5    1    3    3  502    0  0.34552900902E+02  0.29531243570E+02 -0.11954090542E+02  0.47184425272E+02  0.41800000000E+01 0. -1.
         -5    1    3    3    0  502  0.38152533560E+02  0.25903792676E+03  0.17029060863E+03  0.31236617472E+03  0.41800000000E+01 0. -1.
        -11    1    1    2    0    0 -0.57648433764E+02 -0.84081866997E+02  0.39837045322E+02  0.10945360868E+03  0.00000000000E+00 0.  1.
         11    1    1    2    0    0 -0.15057000698E+02 -0.20448730334E+03  0.16366681864E+03  0.26235204977E+03  0.00000000000E+00 0. -1.
</event>
<event>
 7    1  0.2711648E-009  0.1206964E+03  0.7561462E-02  0.1241953E+00
          2   -1    0    0  501    0  0.00000000000E+00  0.00000000000E+00  0.63398945573E+02  0.63398945573E+02  0.00000000000E+00 0. -1.
         -2   -1    0    0    0  501 -0.00000000000E+00 -0.00000000000E+00 -0.28904332939E+03  0.28904332939E+03  0.00000000000E+00 0.  1.
         25    2    1    2    0    0  0.52564905240E+02 -0.40819109717E+02 -0.64505279697E+02  0.15569984641E+03  0.12510892087E+03 0.  0.
          5    1    3    3  502    0  0.87699627031E+02 -0.50644679799E+02 -0.31008605482E+02  0.10599582156E+03  0.41800000000E+01 0. -1.
         -5    1    3    3    0  502 -0.35134721791E+02  0.98255700823E+01 -0.33496674216E+02  0.49704024850E+02  0.41800000000E+01 0. -1.
        -11    1    1    2    0    0 -0.11398684641E+02 -0.23975295810E+02 -0.12268428218E+02  0.29244814099E+02  0.00000000000E+00 0. -1.
         11    1    1    2    0    0 -0.41166220598E+02  0.64794405527E+02 -0.14887067591E+03  0.16749761446E+03  0.00000000000E+00 0.  1.
</event>
<event>
 7    1  0.2641580E-009  0.1529705E+03  0.7561462E-02  0.1196870E+00
         -4   -1    0    0    0  501 -0.00000000000E+00  0.00000000000E+00  0.25507533879E+03  0.25507533879E+03  0.00000000000E+00 0.  1.
          4   -1    0    0  501    0  0.00000000000E+00 -0.00000000000E+00 -0.13099940573E+03  0.13099940573E+03  0.00000000000E+00 0. -1.
         25    2    1    2    0    0 -0.68787014383E+02 -0.12391009104E+03  0.10047432245E+03  0.21407378909E+03  0.12508850344E+03 0.  0.
          5    1    3    3  502    0  0.10353543528E+02 -0.39912052467E+02 -0.21004078035E+02  0.46463012061E+02  0.41800000000E+01 0.  1.
         -5    1    3    3    0  502 -0.79140557911E+02 -0.83998038572E+02  0.12147840049E+03  0.16761077703E+03  0.41800000000E+01 0.  1.
        -11    1    1    2    0    0  0.67296421250E+02  0.77750762851E+02 -0.24088665857E+02  0.10561369826E+03  0.00000000000E+00 0. -1.
         11    1    1    2    0    0  0.14905931338E+01  0.46159328187E+02  0.47690276463E+02  0.66387257179E+02  0.00000000000E+00 0.  1.
</event>
<event>
 7    1  0.2641580E-009  0.1217738E+03  0.7561462E-02  0.1240199E+00
         -1   -1    0    0    0  501 -0.00000000000E+00  0.00000000000E+00  0.10071225915E+03  0.10071225915E+03  0.00000000000E+00 0.  1.
          1   -1    0    0  501    0  0.00000000000E+00 -0.00000000000E+00 -0.21727867016E+03  0.21727867016E+03  0.00000000000E+00 0. -1.
         25    2    1    2    0    0 -0.48133214165E+02 -0.85549613470E+02 -0.36610275117E+02  0.16316361815E+03  0.12508601590E+03 0.  0.
          5    1    3    3  502    0 -0.51532288740E+02 -0.26683509423E+02  0.36853070211E+02  0.68870949187E+02  0.41800000000E+01 0.  1.
         -5    1    3    3    0  502  0.33990745747E+01 -0.58866104047E+02 -0.73463345328E+02  0.94292668964E+02  0.41800000000E+01 0.  1.
        -11    1    1    2    0    0  0.62258331672E+02  0.30323584601E+02 -0.19961670776E+02  0.72070021131E+02  0.00000000000E+00 0.  1.
         11    1    1    2    0    0 -0.14125117507E+02  0.55226028869E+02 -0.59994465107E+02  0.82757290027E+02  0.00000000000E+00 0. -1.
</event>
<event>
 7    1  0.2641580E-009  0.8905093E+02  0.7561462E-02  0.1305166E+00
         -2   -1    0    0    0  501 -0.00000000000E+00  0.00000000000E+00  0.27597803780E+02  0.27597803780E+02  0.00000000000E+00 0.  1.
          2   -1    0    0  501    0  0.00000000000E+00 -0.00000000000E+00 -0.33588164834E+03  0.33588164834E+03  0.00000000000E+00 0. -1.
         25    2    1    2    0    0 -0.85324297825E+01  0.20672546975E+02 -0.20520695177E+03  0.24136591952E+03  0.12508979773E+03 0.  0.
          5    1    3    3  502    0 -0.60839070487E+02 -0.15988543921E+02 -0.99791991901E+02  0.11803787562E+03  0.41800000000E+01 0. -1.
         -5    1    3    3    0  502  0.52306640705E+02  0.36661090896E+02 -0.10541495987E+03  0.12332804389E+03  0.41800000000E+01 0. -1.
        -11    1    1    2    0    0  0.23455567078E+02  0.23899133660E+01 -0.87317072054E+02  0.90444161696E+02  0.00000000000E+00 0. -1.
         11    1    1    2    0    0 -0.14923137295E+02 -0.23062460341E+02 -0.15759820740E+02  0.31669370904E+02  0.00000000000E+00 0.  1.
</event>
<event>
 7    1  0.2641580E-009  0.9507626E+02  0.7561462E-02  0.1291004E+00
          2   -1    0    0  501    0  0.00000000000E+00  0.00000000000E+00  0.31180161205E+02  0.31180161205E+02  0.00000000000E+00 0. -1.
         -2   -1    0    0    0  501 -0.00000000000E+00 -0.00000000000E+00 -0.54300434423E+03  0.54300434423E+03  0.00000000000E+00 0.  1.
         25    2    1    2    0    0 -0.18720444430E+02 -0.43215921699E+02 -0.39985125677E+03  0.42160053353E+03  0.12509161203E+03 0.  0.
          5    1    3    3  502    0 -0.51859306280E+01 -0.72905659966E+02 -0.12556318744E+03  0.14534688016E+03  0.41800000000E+01 0. -1.
         -5    1    3    3    0  502 -0.13534513802E+02  0.29689738266E+02 -0.27428806933E+03  0.27625365336E+03  0.41800000000E+01 0. -1.
        -11    1    1    2    0    0 -0.23631950396E+02  0.32811148831E+02 -0.99224243501E+02  0.10714705346E+03  0.00000000000E+00 0.  1.
         11    1    1    2    0    0  0.42352394826E+02  0.10404772868E+02 -0.12748682750E+02  0.45436918445E+02  0.00000000000E+00 0. -1.
</event>
<event>
 7    1  0.2641580E-009  0.1078232E+03  0.7561462E-02  0.1264655E+00
          2   -1    0    0  501    0  0.00000000000E+00  0.00000000000E+00  0.22561709395E+04  0.22561709395E+04  0.00000000000E+00 0. -1.
         -2   -1    0    0    0  501 -0.00000000000E+00 -0.00000000000E+00 -0.13599172645E+02  0.13599172645E+02  0.00000000000E+00 0.  1.
         25    2    1    2    0    0 -0.42768539102E+02 -0.49589171995E+01  0.20228241572E+04  0.20271454150E+04  0.12508886357E+03 0.  0.
          5    1    3    3  502    0  0.37709250466E+02 -0.28136709396E+02  0.86505603877E+03  0.86634466848E+03  0.41800000000E+01 0. -1.
         -5    1    3    3    0  502 -0.80477789568E+02  0.23177792197E+02  0.11577681184E+04  0.11608007465E+04  0.41800000000E+01 0.  1.
        -11    1    1    2    0    0  0.12435135874E+02 -0.33408930165E+02  0.16670539579E+03  0.17047427432E+03  0.00000000000E+00 0. -1.
         11    1    1    2    0    0  0.30333403228E+02  0.38367847364E+02  0.53042213858E+02  0.72150422824E+02  0.00000000000E+00 0.  1.
</event>
<event>
 7    1  0.2641580E-009  0.1272969E+03  0.7561462E-02  0.1231523E+00
         -1   -1    0    0    0  501 -0.00000000000E+00  0.00000000000E+00  0.24637773044E+02  0.24637773044E+02  0.00000000000E+00 0.  1.
          1   -1    0    0  501    0  0.00000000000E+00 -0.00000000000E+00 -0.82790960738E+03  0.82790960738E+03  0.00000000000E+00 0. -1.
         25    2    1    2    0    0  0.53032095175E+02 -0.74992609689E+02 -0.48596733812E+03  0.51014394933E+03  0.12508517376E+03 0.  0.
          5    1    3    3  502    0  0.53021788675E+02 -0.10818730492E+03 -0.35239735219E+03  0.37244753893E+03  0.41800000000E+01 0.  1.
         -5    1    3    3    0  502  0.10306499341E-01  0.33194695232E+02 -0.13356998592E+03  0.13769641040E+03  0.41800000000E+01 0.  1.
        -11    1    1    2    0    0  0.15171316863E+01  0.29539920594E+02 -0.17635011813E+02  0.34436931323E+02  0.00000000000E+00 0.  1.
         11    1    1    2    0    0 -0.54549226861E+02  0.45452689095E+02 -0.29966948440E+03  0.30796649977E+03  0.00000000000E+00 0. -1.
</event>
<event>
 7    1  0.2641580E-009  0.9309516E+02  0.7561462E-02  0.1295525E+00
         -1   -1    0    0    0  501 -0.00000000000E+00  0.00000000000E+00  0.11013775005E+03  0.11013775005E+03  0.00000000000E+00 0.  1.
          1   -1    0    0  501    0  0.00000000000E+00 -0.00000000000E+00 -0.18146782773E+03  0.18146782773E+03  0.00000000000E+00 0. -1.
         25    2    1    2    0    0  0.34869603054E+02 -0.17093352041E+02  0.46301026695E+02  0.13892332428E+03  0.12509129888E+03 0.  0.
          5    1    3    3  502    0 -0.45228501744E+02 -0.15636803495E+02  0.39230579045E+01  0.48197404254E+02  0.41800000000E+01 0.  1.
         -5    1    3    3    0  502  0.80098104798E+02 -0.14565485451E+01  0.42377968790E+02  0.90725920026E+02  0.41800000000E+01 0.  1.
        -11    1    1    2    0    0 -0.50447727124E+01 -0.13979745944E+02  0.10044185430E+02  0.17937912068E+02  0.00000000000E+00 0.  1.
         11    1    1    2    0    0 -0.29824830342E+02  0.31073097985E+02 -0.12767528980E+03  0.13474434143E+03  0.00000000000E+00 0. -1.
</event>
<event>
 7    1  0.2641580E-009  0.1263393E+03  0.7561462E-02  0.1232991E+00
         -1   -1    0    0    0  501 -0.00000000000E+00  0.00000000000E+00  0.32199062746E+03  0.32199062746E+03  0.00000000000E+00 0.  1.
          1   -1    0    0  501    0  0.00000000000E+00 -0.00000000000E+00 -0.67125747832E+02  0.67125747832E+02  0.00000000000E+00 0. -1.
         25    2    1    2    0    0 -0.17147201959E+02 -0.90962880820E+02  0.95908807478E+02  0.18282633129E+03  0.12513471077E+03 0.  0.
          5    1    3    3  502    0  0.53522999666E+02 -0.28675301844E+02  0.30600091025E+02  0.68123581819E+02  0.41800000000E+01 0.  1.
         -5    1    3    3    0  502 -0.70670201626E+02 -0.62287578976E+02  0.65308716453E+02  0.11470274948E+03  0.41800000000E+01 0.  1.
        -11    1    1    2    0    0 -0.84543244785E+01  0.34548556412E+02 -0.12863244038E+00  0.35568172555E+02  0.00000000000E+00 0. -1.
         11    1    1    2    0    0  0.25601526438E+02  0.56414324407E+02  0.15908470459E+03  0.17072187144E+03  0.00000000000E+00 0.  1.
</event>
<event>
 7    1  0.2641580E-009  0.1080849E+03  0.7561462E-02  0.1264158E+00
         -1   -1    0    0    0  501 -0.00000000000E+00  0.00000000000E+00  0.52236707150E+03  0.52236707150E+03  0.00000000000E+00 0.  1.
          1   -1    0    0  501    0  0.00000000000E+00 -0.00000000000E+00 -0.40935869321E+02  0.40935869321E+02  0.00000000000E+00 0. -1.
         25    2    1    2    0    0  0.87427541831E+02 -0.16569018023E+02  0.33898579153E+03  0.37212382361E+03  0.12508663322E+03 0.  0.
          5    1    3    3  502    0  0.50103832356E+02  0.36379858918E+02  0.27142673559E+03  0.27843102080E+03  0.41800000000E+01 0. -1.
         -5    1    3    3    0  502  0.37323709474E+02 -0.52948876941E+02  0.67559055938E+02  0.93692802805E+02  0.41800000000E+01 0. -1.
        -11    1    1    2    0    0 -0.49825991679E+02  0.12523030078E+02  0.14444314553E+03  0.15330778852E+03  0.00000000000E+00 0.  1.
         11    1    1    2    0    0 -0.37601550152E+02  0.40459879455E+01 -0.19977348839E+01  0.37871328693E+02  0.00000000000E+00 0. -1.
</event>
<event>
 7    1  0.2641580E-009  0.1286134E+03  0.7561462E-02  0.1229528E+00
          1   -1    0    0  501    0  0.00000000000E+00  0.00000000000E+00  0.89662806617E+03  0.89662806617E+03  0.00000000000E+00 0. -1.
         -1   -1    0    0    0  501 -0.00000000000E+00 -0.00000000000E+00 -0.21459665807E+02  0.21459665807E+02  0.00000000000E+00 0.  1.
         25    2    1    2    0    0 -0.46442594578E+02  0.52351792165E+02  0.32742952526E+03  0.35742880137E+03  0.12509048446E+03 0.  0.
          5    1    3    3  502    0  0.39898773673E+02  0.23859418266E+02  0.67847407102E+02  0.82352456132E+02  0.41800000000E+01 0.  1.
         -5    1    3    3    0  502 -0.86341368250E+02  0.28492373899E+02  0.25958211816E+03  0.27507634524E+03  0.41800000000E+01 0.  1.
        -11    1    1    2    0    0 -0.22041217577E+02 -0.45687388344E+02  0.21937846022E+03  0.22516674162E+03  0.00000000000E+00 0. -1.
         11    1    1    2    0    0  0.68483812155E+02 -0.66644038204E+01  0.32836041489E+03  0.33549218898E+03  0.00000000000E+00 0.  1.
</event>
<event>
 7    1  0.2641580E-009  0.9778199E+02  0.7561462E-02  0.1285030E+00
         -2   -1    0    0    0  501 -0.00000000000E+00  0.00000000000E+00  0.33444635313E+02  0.33444635313E+02  0.00000000000E+00 0.  1.
          2   -1    0    0  501    0  0.00000000000E+00 -0.00000000000E+00 -0.43395093489E+03  0.43395093489E+03  0.00000000000E+00 0. -1.
         25    2    1    2    0    0 -0.23007319484E+02 -0.44061165916E+02 -0.19244156059E+03  0.23484700720E+03  0.12509452210E+03 0.  0.
          5    1    3    3  502    0 -0.47271865018E+02 -0.47840189208E+02 -0.35930780371E+02  0.76366264174E+02  0.41800000000E+01 0.  1.
         -5    1    3    3    0  502  0.24264545534E+02  0.37790232920E+01 -0.15651078022E+03  0.15848074303E+03  0.41800000000E+01 0.  1.
        -11    1    1    2    0    0 -0.28075087201E+02  0.43990430049E+02 -0.92688890722E+02  0.10637010351E+03  0.00000000000E+00 0. -1.
         11    1    1    2    0    0  0.51082406684E+02  0.70735867462E-01 -0.11537584827E+03  0.12617845949E+03  0.00000000000E+00 0.  1.
</event>
<event>
 7    1  0.2641580E-009  0.7945902E+02  0.7561462E-02  0.1330594E+00
          2   -1    0    0  501    0  0.00000000000E+00  0.00000000000E+00  0.83168257999E+02  0.83168257999E+02  0.00000000000E+00 0. -1.
         -2   -1    0    0    0  501 -0.00000000000E+00 -0.00000000000E+00 -0.17124867756E+03  0.17124867756E+03  0.00000000000E+00 0.  1.
         25    2    1    2    0    0 -0.22841350302E+02  0.26255566189E+02 -0.79207114024E+02  0.15209768070E+03  0.12509538569E+03 0.  0.
          5    1    3    3  502    0 -0.57907695072E+02 -0.15834501639E+02 -0.76166008535E+02  0.97070932039E+02  0.41800000000E+01 0. -1.
         -5    1    3    3    0  502  0.35066344770E+02  0.42090067828E+02 -0.30411054896E+01  0.55026748659E+02  0.41800000000E+01 0. -1.
        -11    1    1    2    0    0  0.21723651704E+02 -0.47182213341E+01 -0.50644854452E+02  0.55308949894E+02  0.00000000000E+00 0.  1.
         11    1    1    2    0    0  0.11176985973E+01 -0.21537344855E+02  0.41771548920E+02  0.47010304963E+02  0.00000000000E+00 0. -1.
</event>
<event>
 7    1  0.2641580E-009  0.1305602E+03  0.7561462E-02  0.1226627E+00
          1   -1    0    0  501    0  0.00000000000E+00  0.00000000000E+00  0.75942462126E+03  0.75942462126E+03  0.00000000000E+00 0. -1.
         -1   -1    0    0    0  501 -0.00000000000E+00 -0.00000000000E+00 -0.38013102454E+02  0.38013102454E+02  0.00000000000E+00 0.  1.
         25    2    1    2    0    0 -0.11263085721E+03  0.41920567620E+02  0.26510513011E+03  0.31681276960E+03  0.12508619821E+03 0.  0.
          5    1    3    3  502    0 -0.57726233989E+02 -0.31298045660E+01  0.23054273557E+03  0.23771735126E+03  0.41800000000E+01 0.  1.
         -5    1    3    3    0  502 -0.54904623222E+02  0.45050372186E+02  0.34562394541E+02  0.79095418336E+02  0.41800000000E+01 0.  1.
        -11    1    1    2    0    0  0.39670552579E+02 -0.43714958476E+02  0.32573778322E+03  0.33104358286E+03  0.00000000000E+00 0.  1.
         11    1    1    2    0    0  0.72960304633E+02  0.17943908555E+01  0.13056860547E+03  0.14958137125E+03  0.00000000000E+00 0. -1.
</event>
<event>
 7    1  0.2641580E-009  0.2062785E+03  0.7561462E-02  0.1144547E+00
          1   -1    0    0  501    0  0.00000000000E+00  0.00000000000E+00  0.19354805106E+04  0.19354805106E+04  0.00000000000E+00 0. -1.
         -1   -1    0    0    0  501 -0.00000000000E+00 -0.00000000000E+00 -0.30208460968E+02  0.30208460968E+02  0.00000000000E+00 0.  1.
         25    2    1    2    0    0 -0.19397614925E+03  0.43317667772E+02  0.13186159435E+04  0.13393648602E+04  0.12508819111E+03 0.  0.
          5    1    3    3  502    0 -0.59959810847E+02  0.67866271613E+01  0.13899141532E+03  0.15158272711E+03  0.41800000000E+01 0. -1.
         -5    1    3    3    0  502 -0.13401633840E+03  0.36531040611E+02  0.11796245282E+04  0.11877821331E+04  0.41800000000E+01 0. -1.
        -11    1    1    2    0    0  0.57458896262E+02  0.22297371860E+02  0.10889059927E+03  0.12512337975E+03  0.00000000000E+00 0.  1.
         11    1    1    2    0    0  0.13651725299E+03 -0.65615039633E+02  0.47776550686E+03  0.50120073158E+03  0.00000000000E+00 0. -1.
</event>
<event>
 7    1  0.2641580E-009  0.1154212E+03  0.7561462E-02  0.1250848E+00
         -2   -1    0    0    0  501 -0.00000000000E+00  0.00000000000E+00  0.24006898658E+03  0.24006898658E+03  0.00000000000E+00 0.  1.
          2   -1    0    0  501    0  0.00000000000E+00 -0.00000000000E+00 -0.10699296056E+03  0.10699296056E+03  0.00000000000E+00 0. -1.
         25    2    1    2    0    0 -0.92405198507E+02 -0.42030489634E+02  0.13549746352E+03  0.21050664260E+03  0.12509277032E+03 0.  0.
          5    1    3    3  502    0 -0.26199246038E+02  0.10635220340E+02  0.12130149193E+03  0.12462356418E+03  0.41800000000E+01 0.  1.
         -5    1    3    3    0  502 -0.66205952469E+02 -0.52665709974E+02  0.14195971599E+02  0.85883078421E+02  0.41800000000E+01 0.  1.
        -11    1    1    2    0    0  0.90372152026E+02  0.16401570567E+02  0.28662586585E+02  0.96216844931E+02  0.00000000000E+00 0.  1.
         11    1    1    2    0    0  0.20330464814E+01  0.25628919067E+02 -0.31084024087E+02  0.40338459613E+02  0.00000000000E+00 0. -1.
</event>
<event>
 7    1  0.2641580E-009  0.1977701E+03  0.7561462E-02  0.1151634E+00
          1   -1    0    0  501    0  0.00000000000E+00  0.00000000000E+00  0.95847612461E+03  0.95847612461E+03  0.00000000000E+00 0. -1.
         -1   -1    0    0    0  501 -0.00000000000E+00 -0.00000000000E+00 -0.44602135226E+02  0.44602135226E+02  0.00000000000E+00 0.  1.
         25    2    1    2    0    0  0.17585854184E+03  0.68889004303E+01  0.46078116109E+03  0.50886268366E+03  0.12509304025E+03 0.  0.
          5    1    3    3  502    0 -0.10153909001E+02 -0.45260450819E+01  0.11866534355E+03  0.11925822032E+03  0.41800000000E+01 0.  1.
         -5    1    3    3    0  502  0.18601245084E+03  0.11414945512E+02  0.34211581753E+03  0.38960446334E+03  0.41800000000E+01 0.  1.
        -11    1    1    2    0    0 -0.13959327827E+03  0.32900220352E+02  0.32168387241E+03  0.35220622028E+03  0.00000000000E+00 0.  1.
         11    1    1    2    0    0 -0.36265263565E+02 -0.39789120782E+02  0.13140895589E+03  0.14200935590E+03  0.00000000000E+00 0. -1.
</event>
<event>
 7    1  0.2641580E-009  0.1538770E+03  0.7561462E-02  0.1195788E+00
         -2   -1    0    0    0  501 -0.00000000000E+00  0.00000000000E+00  0.19216303416E+03  0.19216303416E+03  0.00000000000E+00 0.  1.
          2   -1    0    0  501    0  0.00000000000E+00 -0.00000000000E+00 -0.31350016672E+03  0.31350016672E+03  0.00000000000E+00 0. -1.
         25    2    1    2    0    0 -0.10430953391E+03  0.73374218871E+02 -0.24178714258E+03  0.30062065643E+03  0.12508997521E+03 0.  0.
          5    1    3    3  502    0 -0.11781788515E+03  0.21754936833E+02 -0.13095014172E+03  0.17753800538E+03  0.41800000000E+01 0. -1.
         -5    1    3    3    0  502  0.13508351239E+02  0.51619282037E+02 -0.11083700086E+03  0.12308265105E+03  0.41800000000E+01 0. -1.
        -11    1    1    2    0    0  0.65895979081E+02 -0.20530463820E+02  0.12146398423E+03  0.13970425716E+03  0.00000000000E+00 0.  1.
         11    1    1    2    0    0  0.38413554825E+02 -0.52843755051E+02 -0.10139742026E+01  0.65338287289E+02  0.00000000000E+00 0. -1.
</event>
<event>
 7    1  0.2641580E-009  0.9098735E+02  0.7561462E-02  0.1300478E+00
          2   -1    0    0  501    0  0.00000000000E+00  0.00000000000E+00  0.47949559166E+03  0.47949559166E+03  0.00000000000E+00 0. -1.
         -2   -1    0    0    0  501 -0.00000000000E+00 -0.00000000000E+00 -0.36201090619E+02  0.36201090619E+02  0.00000000000E+00 0.  1.
         25    2    1    2    0    0 -0.13922122003E+02 -0.70118860096E+02  0.28082643122E+03  0.31562848235E+03  0.12508946547E+03 0.  0.
          5    1    3    3  502    0  0.65105453162E+01 -0.58062658160E+02  0.34201341327E+02  0.67829666235E+02  0.41800000000E+01 0.  1.
         -5    1    3    3    0  502 -0.20432667319E+02 -0.12056201936E+02  0.24662508990E+03  0.24779881611E+03  0.41800000000E+01 0.  1.
        -11    1    1    2    0    0 -0.13738969405E+02  0.70317620232E+02  0.15599108401E+03  0.17165822231E+03  0.00000000000E+00 0. -1.
         11    1    1    2    0    0  0.27661091408E+02 -0.19876013538E+00  0.64769858058E+01  0.28409977624E+02  0.00000000000E+00 0.  1.
</event>
<event>
 7    1  0.2641580E-009  0.9257894E+02  0.7561462E-02  0.1296724E+00
         -1   -1    0    0    0  501 -0.00000000000E+00  0.00000000000E+00  0.39866135863E+02  0.39866135863E+02  0.00000000000E+00 0.  1.
          1   -1    0    0  501    0  0.00000000000E+00 -0.00000000000E+00 -0.35901170433E+03  0.35901170433E+03  0.00000000000E+00 0. -1.
         25    2    1    2    0    0 -0.22198249327E+02  0.32820483620E+02 -0.12297591442E+03  0.17983591130E+03  0.12509169855E+03 0.  0.
          5    1    3    3  502    0 -0.28232269286E+02 -0.39588923544E+02 -0.84323579360E+02  0.97428344605E+02  0.41800000000E+01 0. -1.
         -5    1    3    3    0  502  0.60340199584E+01  0.72409407164E+02 -0.38652335057E+02  0.82407566691E+02  0.41800000000E+01 0. -1.
        -11    1    1    2    0    0  0.36323253854E+02 -0.11692482084E+02 -0.18874673724E+03  0.19256537520E+03  0.00000000000E+00 0. -1.
         11    1    1    2    0    0 -0.14125004527E+02 -0.21128001535E+02 -0.74229168161E+01  0.26476553700E+02  0.00000000000E+00 0.  1.
</event>
<event>
 7    1  0.2641580E-009  0.1497502E+03  0.7561462E-02  0.1200780E+00
          2   -1    0    0  501    0  0.00000000000E+00  0.00000000000E+00  0.35964363321E+03  0.35964363321E+03  0.00000000000E+00 0.  1.
         -2   -1    0    0    0  501 -0.00000000000E+00 -0.00000000000E+00 -0.12136566387E+03  0.12136566387E+03  0.00000000000E+00 0. -1.
         25    2    1    2    0    0  0.10601141799E+03 -0.39351112123E+02  0.28249537156E+03  0.32898888101E+03  0.12507245142E+03 0.  0.
          5    1    3    3  502    0  0.12456973247E+02 -0.57248950206E+02  0.48012942695E+02  0.75863914666E+02  0.41800000000E+01 0. -1.
         -5    1    3    3    0  502  0.93554444741E+02  0.17897838083E+02  0.23448242886E+03  0.25312496634E+03  0.41800000000E+01 0. -1.
        -11    1    1    2    0    0 -0.63162306881E+02  0.68823464219E+02 -0.29816840529E+02  0.98057076321E+02  0.00000000000E+00 0. -1.
         11    1    1    2    0    0 -0.42849111108E+02 -0.29472352096E+02 -0.14400561690E+02  0.53963339757E+02  0.00000000000E+00 0.  1.
</event>
<event>
 7    1  0.2641580E-009  0.9534464E+02  0.7561462E-02  0.1290402E+00
         -2   -1    0    0    0  501 -0.00000000000E+00  0.00000000000E+00  0.11817517574E+03  0.11817517574E+03  0.00000000000E+00 0.  1.
          2   -1    0    0  501    0  0.00000000000E+00 -0.00000000000E+00 -0.98660761317E+02  0.98660761317E+02  0.00000000000E+00 0. -1.
         25    2    1    2    0    0  0.14503720140E+01  0.36220183531E+00  0.15158567067E+02  0.12601289044E+03  0.12508889492E+03 0.  0.
          5    1    3    3  502    0 -0.36742022302E+02  0.49545175627E+02  0.14933626440E+02  0.63601778508E+02  0.41800000000E+01 0. -1.
         -5    1    3    3    0  502  0.38192394316E+02 -0.49182973791E+02  0.22494062714E+00  0.62411111934E+02  0.41800000000E+01 0. -1.
        -11    1    1    2    0    0 -0.33921911064E+02 -0.16011774754E+01 -0.28705063891E+02  0.44466172677E+02  0.00000000000E+00 0.  1.
         11    1    1    2    0    0  0.32471539050E+02  0.12389756401E+01  0.33060911248E+02  0.46356873939E+02  0.00000000000E+00 0. -1.
</event>
<event>
 7    1  0.2641580E-009  0.1208619E+03  0.7561462E-02  0.1241682E+00
          1   -1    0    0  501    0  0.00000000000E+00  0.00000000000E+00  0.51590935257E+03  0.51590935257E+03  0.00000000000E+00 0. -1.
         -1   -1    0    0    0  501 -0.00000000000E+00 -0.00000000000E+00 -0.46192360768E+02  0.46192360768E+02  0.00000000000E+00 0.  1.
         25    2    1    2    0    0 -0.81228463734E+02 -0.55616425207E+02  0.34940876447E+03  0.38395955330E+03  0.12508878370E+03 0.  0.
          5    1    3    3  502    0  0.16152283911E+02 -0.37573539503E+02  0.34026402225E+02  0.53366052830E+02  0.41800000000E+01 0. -1.
         -5    1    3    3    0  502 -0.97380747645E+02 -0.18042885703E+02  0.31538236225E+03  0.33059350047E+03  0.41800000000E+01 0. -1.
        -11    1    1    2    0    0  0.45055337361E+02  0.45252982847E+02  0.12485742673E+03  0.14023976929E+03  0.00000000000E+00 0. -1.
         11    1    1    2    0    0  0.36173126373E+02  0.10363442359E+02 -0.45491993985E+01  0.37902390747E+02  0.00000000000E+00 0.  1.
</event>
<event>
 7    1  0.2641580E-009  0.8008626E+02  0.7561462E-02  0.1328807E+00
          2   -1    0    0  501    0  0.00000000000E+00  0.00000000000E+00  0.52526280090E+03  0.52526280090E+03  0.00000000000E+00 0. -1.
         -2   -1    0    0    0  501 -0.00000000000E+00 -0.00000000000E+00 -0.23857377870E+02  0.23857377870E+02  0.00000000000E+00 0.  1.
         25    2    1    2    0    0 -0.30015267872E+02 -0.35600833544E+00  0.27077896828E+03  0.29978200794E+03  0.12508780745E+03 0.  0.
          5    1    3    3  502    0  0.17020643076E+02  0.64014576234E+01 -0.54704502977E+01  0.19444258198E+02  0.41800000000E+01 0. -1.
         -5    1    3    3    0  502 -0.47035910948E+02 -0.67574659588E+01  0.27624941858E+03  0.28033774974E+03  0.41800000000E+01 0. -1.
        -11    1    1    2    0    0 -0.25277198219E+02  0.22892116839E+02  0.67458359348E+02  0.75588464789E+02  0.00000000000E+00 0.  1.
         11    1    1    2    0    0  0.55292466091E+02 -0.22536108504E+02  0.16316809540E+03  0.17374970604E+03  0.00000000000E+00 0. -1.
</event>
<event>
 7    1  0.2641580E-009  0.1939983E+03  0.7561462E-02  0.1154904E+00
         -3   -1    0    0    0  501 -0.00000000000E+00  0.00000000000E+00  0.18852753269E+03  0.18852753269E+03  0.00000000000E+00 0.  1.
          3   -1    0    0  501    0  0.00000000000E+00 -0.00000000000E+00 -0.37013054134E+03  0.37013054134E+03  0.00000000000E+00 0. -1.
         25    2    1    2    0    0  0.17201730622E+03  0.48014275715E+02 -0.26355329581E+03  0.34205537708E+03  0.12508483899E+03 0.  0.
          5    1    3    3  502    0  0.53654909180E+02 -0.19205002692E+02 -0.16313523201E+03  0.17285328383E+03  0.41800000000E+01 0. -1.
         -5    1    3    3    0  502  0.11836239704E+03  0.67219278406E+02 -0.10041806379E+03  0.16920209325E+03  0.41800000000E+01 0. -1.
        -11    1    1    2    0    0 -0.14790956040E+03 -0.82097829948E+01  0.83483650549E+02  0.17004163756E+03  0.00000000000E+00 0.  1.
         11    1    1    2    0    0 -0.24107745817E+02 -0.39804492720E+02 -0.15333633936E+01  0.46561059399E+02  0.00000000000E+00 0. -1.
</event>
<event>
 7    1  0.2641580E-009  0.1142667E+03  0.7561462E-02  0.1252866E+00
         -2   -1    0    0    0  501 -0.00000000000E+00  0.00000000000E+00  0.31315757861E+02  0.31315757861E+02  0.00000000000E+00 0.  1.
          2   -1    0    0  501    0  0.00000000000E+00 -0.00000000000E+00 -0.49336509562E+03  0.49336509562E+03  0.00000000000E+00 0. -1.
         25    2    1    2    0    0  0.57935069956E+01  0.53316738441E+02 -0.19638868967E+03  0.23894328182E+03  0.12509650346E+03 0.  0.
          5    1    3    3  502    0 -0.26785116347E+02  0.80471296385E+02 -0.87115973839E+02  0.12165417090E+03  0.41800000000E+01 0.  1.
         -5    1    3    3    0  502  0.32578623342E+02 -0.27154557945E+02 -0.10927271583E+03  0.11728911092E+03  0.41800000000E+01 0.  1.
        -11    1    1    2    0    0  0.31925575471E+01  0.23472345451E+02 -0.10228381067E+03  0.10499105366E+03  0.00000000000E+00 0. -1.
         11    1    1    2    0    0 -0.89860645427E+01 -0.76789083892E+02 -0.16337683743E+03  0.18074651800E+03  0.00000000000E+00 0.  1.
</event>
<event>
 7    1  0.2641580E-009  0.1566011E+03  0.7561462E-02  0.1192588E+00
          1   -1    0    0  501    0  0.00000000000E+00  0.00000000000E+00  0.14227523802E+03  0.14227523802E+03  0.00000000000E+00 0. -1.
         -1   -1    0    0    0  501 -0.00000000000E+00 -0.00000000000E+00 -0.23431238375E+03  0.23431238375E+03  0.00000000000E+00 0.  1.
         25    2    1    2    0    0  0.24457569507E+02  0.14047344366E+03 -0.82058369259E+02  0.20666935713E+03  0.12509071162E+03 0.  0.
          5    1    3    3  502    0  0.15405616665E+02  0.12895775364E+03 -0.11298615410E+03  0.17219401461E+03  0.41800000000E+01 0.  1.
         -5    1    3    3    0  502  0.90519528423E+01  0.11515690014E+02  0.30927784843E+02  0.34475342523E+02  0.41800000000E+01 0.  1.
        -11    1    1    2    0    0  0.17735458357E+02 -0.11968466770E+03  0.33228127048E+01  0.12103721432E+03  0.00000000000E+00 0. -1.
         11    1    1    2    0    0 -0.42193027864E+02 -0.20788775956E+02 -0.13301589177E+02  0.48881050323E+02  0.00000000000E+00 0.  1.
</event>
<event>
 7    1  0.2641580E-009  0.1348844E+03  0.7561462E-02  0.1220383E+00
         -1   -1    0    0    0  501 -0.00000000000E+00  0.00000000000E+00  0.14907633296E+02  0.14907633296E+02  0.00000000000E+00 0.  1.
          1   -1    0    0  501    0  0.00000000000E+00 -0.00000000000E+00 -0.18039854502E+04  0.18039854502E+04  0.00000000000E+00 0. -1.
         25    2    1    2    0    0  0.41589584998E+02 -0.11279414965E+03 -0.11154120033E+04  0.11288236028E+04  0.12508627247E+03 0.  0.
          5    1    3    3  502    0  0.16410841306E+02 -0.41732295306E+02 -0.90042999857E+02  0.10067827177E+03  0.41800000000E+01 0.  1.
         -5    1    3    3    0  502  0.25178743693E+02 -0.71061854341E+02 -0.10253690034E+04  0.10281453311E+04  0.41800000000E+01 0.  1.
        -11    1    1    2    0    0  0.27954830017E+02  0.28099386084E+02 -0.15904504062E+03  0.16390964879E+03  0.00000000000E+00 0.  1.
         11    1    1    2    0    0 -0.69544415016E+02  0.84694763563E+02 -0.51462077305E+03  0.52615983189E+03  0.00000000000E+00 0. -1.
</event>
<event>
 7    1  0.2837366E-009  0.1277671E+03  0.7561462E-02  0.1230807E+00
         -2   -1    0    0    0  501 -0.00000000000E+00  0.00000000000E+00  0.16459778164E+02  0.16459778164E+02  0.00000000000E+00 0.  1.
          2   -1    0    0  501    0  0.00000000000E+00 -0.00000000000E+00 -0.13039841778E+04  0.13039841778E+04  0.00000000000E+00 0. -1.
         25    2    1    2    0    0 -0.28245362236E+02 -0.70842756994E+02 -0.98037431737E+03  0.99126093273E+03  0.12509171793E+03 0.  0.
          5    1    3    3  502    0 -0.49741305740E+02 -0.98959021976E+02 -0.75084401877E+03  0.75898043351E+03  0.41800000000E+01 0. -1.
         -5    1    3    3    0  502  0.21495943504E+02  0.28116264983E+02 -0.22953029860E+03  0.23228049922E+03  0.41800000000E+01 0. -1.
        -11    1    1    2    0    0 -0.14969084056E+02  0.63482600089E+02 -0.24216508764E+03  0.25079482383E+03  0.00000000000E+00 0. -1.
         11    1    1    2    0    0  0.43214446293E+02  0.73601569042E+01 -0.64984994628E+02  0.78388199398E+02  0.00000000000E+00 0.  1.
</event>
<event>
 7    1  0.2641580E-009  0.9337113E+02  0.7561462E-02  0.1294887E+00
         -2   -1    0    0    0  501 -0.00000000000E+00  0.00000000000E+00  0.24746299333E+03  0.24746299333E+03  0.00000000000E+00 0. -1.
          2   -1    0    0  501    0  0.00000000000E+00 -0.00000000000E+00 -0.58132484100E+02  0.58132484100E+02  0.00000000000E+00 0.  1.
         25    2    1    2    0    0 -0.19994906140E+02  0.27888928592E+02  0.58087685223E+02  0.14212408076E+03  0.12508991385E+03 0.  0.
          5    1    3    3  502    0 -0.46309686956E+02 -0.22258166312E+02 -0.10982094658E+02  0.52707607388E+02  0.41800000000E+01 0. -1.
         -5    1    3    3    0  502  0.26314780815E+02  0.50147094904E+02  0.69069779881E+02  0.89416473368E+02  0.41800000000E+01 0. -1.
        -11    1    1    2    0    0  0.19583423190E+02  0.21461272541E+02  0.10210879680E+03  0.10616168361E+03  0.00000000000E+00 0. -1.
         11    1    1    2    0    0  0.41148295059E+00 -0.49350201133E+02  0.29134027207E+02  0.57309713063E+02  0.00000000000E+00 0.  1.
</event>
<event>
 7    1  0.2669132E-009  0.8837098E+02  0.7561462E-02  0.1306845E+00
          2   -1    0    0  501    0  0.00000000000E+00  0.00000000000E+00  0.27695490874E+03  0.27695490874E+03  0.00000000000E+00 0. -1.
         -2   -1    0    0    0  501 -0.00000000000E+00 -0.00000000000E+00 -0.47770361177E+02  0.47770361177E+02  0.00000000000E+00 0.  1.
         25    2    1    2    0    0 -0.36685006522E+02  0.10450043781E+02  0.13577497160E+03  0.18851688459E+03  0.12509508281E+03 0.  0.
          5    1    3    3  502    0 -0.35142172915E+02 -0.54870184258E+02  0.66305038362E+02  0.93056649144E+02  0.41800000000E+01 0. -1.
         -5    1    3    3    0  502 -0.15428336065E+01  0.65320228039E+02  0.69469933238E+02  0.95460235442E+02  0.41800000000E+01 0. -1.
        -11    1    1    2    0    0  0.21199022703E+02  0.73002647351E+01  0.10678936746E+03  0.10911764950E+03  0.00000000000E+00 0. -1.
         11    1    1    2    0    0  0.15485983819E+02 -0.17750308516E+02 -0.13379791502E+02  0.27090735831E+02  0.00000000000E+00 0.  1.
</event>
<event>
 7    1  0.2909382E-009  0.8556002E+02  0.7561462E-02  0.1313974E+00
          2   -1    0    0  501    0  0.00000000000E+00  0.00000000000E+00  0.14950448384E+03  0.14950448384E+03  0.00000000000E+00 0. -1.
         -2   -1    0    0    0  501 -0.00000000000E+00 -0.00000000000E+00 -0.10096168074E+03  0.10096168074E+03  0.00000000000E+00 0.  1.
         25    2    1    2    0    0 -0.32849909176E+02 -0.45721193341E+01  0.73764505161E+02  0.14896149261E+03  0.12509317827E+03 0.  0.
          5    1    3    3  502    0  0.25256444943E+02  0.41221816208E+02  0.53315153700E+02  0.72090943652E+02  0.41800000000E+01 0. -1.
         -5    1    3    3    0  502 -0.58106354118E+02 -0.45793935542E+02  0.20449351461E+02  0.76870548954E+02  0.41800000000E+01 0. -1.
        -11    1    1    2    0    0 -0.30142841821E+01  0.11568656789E+02 -0.53802342849E+02  0.55114533701E+02  0.00000000000E+00 0.  1.
         11    1    1    2    0    0  0.35864193358E+02 -0.69965374550E+01  0.28580640789E+02  0.46390138278E+02  0.00000000000E+00 0. -1.
</event>
<event>
 7    1  0.2641580E-009  0.8418690E+02  0.7561462E-02  0.1317573E+00
          1   -1    0    0  501    0  0.00000000000E+00  0.00000000000E+00  0.21782083815E+03  0.21782083815E+03  0.00000000000E+00 0. -1.
         -1   -1    0    0    0  501 -0.00000000000E+00 -0.00000000000E+00 -0.13526072753E+03  0.13526072753E+03  0.00000000000E+00 0.  1.
         25    2    1    2    0    0  0.27385924635E+01  0.46588435831E+02 -0.83917563293E+02  0.15769436297E+03  0.12508945775E+03 0.  0.
          5    1    3    3  502    0 -0.20214228668E+02  0.78021463066E+01 -0.10533420242E+03  0.10762088611E+03  0.41800000000E+01 0.  1.
         -5    1    3    3    0  502  0.22952821132E+02  0.38786289525E+02  0.21416639128E+02  0.50073476857E+02  0.41800000000E+01 0.  1.
        -11    1    1    2    0    0 -0.17519187884E+02 -0.70658678512E+02  0.13269050326E+03  0.15134840748E+03  0.00000000000E+00 0.  1.
         11    1    1    2    0    0  0.14780595421E+02  0.24070242681E+02  0.33787170663E+02  0.44038795228E+02  0.00000000000E+00 0. -1.
</event>
<event>
 7    1  0.2641580E-009  0.9905338E+02  0.7561462E-02  0.1282299E+00
          1   -1    0    0  501    0  0.00000000000E+00  0.00000000000E+00  0.42643734375E+02  0.42643734375E+02  0.00000000000E+00 0. -1.
         -1   -1    0    0    0  501 -0.00000000000E+00 -0.00000000000E+00 -0.34717843350E+03  0.34717843350E+03  0.00000000000E+00 0.  1.
         25    2    1    2    0    0 -0.16801134031E+02 -0.35957822284E+02 -0.11081219673E+03  0.17176293994E+03  0.12509165242E+03 0.  0.
          5    1    3    3  502    0 -0.10668978725E+02  0.29857924590E+02  0.10404920842E+02  0.33631198992E+02  0.41800000000E+01 0. -1.
         -5    1    3    3    0  502 -0.61321553057E+01 -0.65815746874E+02 -0.12121711757E+03  0.13813174095E+03  0.41800000000E+01 0. -1.
        -11    1    1    2    0    0  0.36474975993E+02  0.59142508947E+02 -0.14115620879E+03  0.15733192784E+03  0.00000000000E+00 0.  1.
         11    1    1    2    0    0 -0.19673841962E+02 -0.23184686664E+02 -0.52566293603E+02  0.60727300092E+02  0.00000000000E+00 0. -1.
</event>
<event>
 7    1  0.2641580E-009  0.6404558E+02  0.7561462E-02  0.1381598E+00
          2   -1    0    0  501    0  0.00000000000E+00  0.00000000000E+00  0.66228345802E+02  0.66228345802E+02  0.00000000000E+00 0.  1.
         -2   -1    0    0    0  501 -0.00000000000E+00 -0.00000000000E+00 -0.37774085428E+03  0.37774085428E+03  0.00000000000E+00 0. -1.
         25    2    1    2    0    0 -0.27996609475E+02  0.43636837288E+02 -0.31288877912E+03  0.34093236481E+03  0.12508998987E+03 0.  0.
          5    1    3    3  502    0 -0.20119938994E+02  0.44220081605E+02 -0.28654730673E+02  0.56557877897E+02  0.41800000000E+01 0. -1.
         -5    1    3    3    0  502 -0.78766704800E+01 -0.58324431735E+00 -0.28423404844E+03  0.28437448691E+03  0.41800000000E+01 0. -1.
        -11    1    1    2    0    0  0.17415964571E+02  0.69206147478E+01 -0.35109076446E+02  0.39797713242E+02  0.00000000000E+00 0. -1.
         11    1    1    2    0    0  0.10580644904E+02 -0.50557452036E+02  0.36485347087E+02  0.63239122029E+02  0.00000000000E+00 0.  1.
</event>
<event>
 7    1  0.2805318E-009  0.1659292E+03  0.7561462E-02  0.1182161E+00
          1   -1    0    0  501    0  0.00000000000E+00  0.00000000000E+00  0.96638752066E+03  0.96638752066E+03  0.00000000000E+00 0. -1.
         -1   -1    0    0    0  501 -0.00000000000E+00 -0.00000000000E+00 -0.29977873218E+02  0.29977873218E+02  0.00000000000E+00 0.  1.
         25    2    1    2    0    0 -0.50724433308E+02 -0.11868175572E+03  0.56600268671E+03  0.59385608353E+03  0.12509068436E+03 0.  0.
          5    1    3    3  502    0  0.99092229510E+01 -0.11276960567E+03  0.43182728953E+03  0.44643863749E+03  0.41800000000E+01 0. -1.
         -5    1    3    3    0  502 -0.60633656259E+02 -0.59121500443E+01  0.13417539718E+03  0.14741744604E+03  0.41800000000E+01 0. -1.
        -11    1    1    2    0    0  0.72486164893E+02  0.57334987338E+02  0.21547811192E+03  0.23446185530E+03  0.00000000000E+00 0.  1.
         11    1    1    2    0    0 -0.21761731585E+02  0.61346768379E+02  0.15492884882E+03  0.16804745505E+03  0.00000000000E+00 0. -1.
</event>
<event>
 7    1  0.2641580E-009  0.4725529E+02  0.7561462E-02  0.1460734E+00
         -1   -1    0    0    0  501 -0.00000000000E+00  0.00000000000E+00  0.29803921514E+02  0.29803921514E+02  0.00000000000E+00 0.  1.
          1   -1    0    0  501    0  0.00000000000E+00 -0.00000000000E+00 -0.44190839281E+03  0.44190839281E+03  0.00000000000E+00 0. -1.
         25    2    1    2    0    0  0.12396467704E+01 -0.27314897221E+02 -0.29363157216E+03  0.32032364524E+03  0.12506037420E+03 0.  0.
          5    1    3    3  502    0 -0.14300668948E+02 -0.18338871845E+02 -0.29992316892E+03  0.30085246053E+03  0.41800000000E+01 0.  1.
         -5    1    3    3    0  502  0.15540315718E+02 -0.89760253768E+01  0.62915967565E+01  0.19471184708E+02  0.41800000000E+01 0.  1.
        -11    1    1    2    0    0  0.20757737503E+02  0.54969930926E+01 -0.11847608047E+03  0.12040632144E+03  0.00000000000E+00 0. -1.
         11    1    1    2    0    0 -0.21997384273E+02  0.21817904129E+02  0.31813360826E-02  0.30982347644E+02  0.00000000000E+00 0.  1.
</event>
<event>
 7    1  0.2641580E-009  0.1090421E+03  0.7561462E-02  0.1262354E+00
         -2   -1    0    0    0  501 -0.00000000000E+00  0.00000000000E+00  0.85371778759E+01  0.85371778759E+01  0.00000000000E+00 0.  1.
          2   -1    0    0  501    0  0.00000000000E+00 -0.00000000000E+00 -0.17950844178E+04  0.17950844178E+04  0.00000000000E+00 0. -1.
         25    2    1    2    0    0  0.11631943071E+02 -0.24868253683E+02 -0.13888098231E+04  0.13947021629E+04  0.12509063266E+03 0.  0.
          5    1    3    3  502    0 -0.15298417252E+02  0.47254096003E+02 -0.45784595008E+03  0.46055116715E+03  0.41800000000E+01 0. -1.
         -5    1    3    3    0  502  0.26930360323E+02 -0.72122349685E+02 -0.93096387299E+03  0.93415099574E+03  0.41800000000E+01 0. -1.
        -11    1    1    2    0    0  0.27395645417E+02  0.40668808584E+02 -0.15544358914E+03  0.16299442562E+03  0.00000000000E+00 0.  1.
         11    1    1    2    0    0 -0.39027588488E+02 -0.15800554902E+02 -0.24229382768E+03  0.24592500713E+03  0.00000000000E+00 0. -1.
</event>
<event>
 7    1  0.2641580E-009  0.9229565E+02  0.7561462E-02  0.1297386E+00
          1   -1    0    0  501    0  0.00000000000E+00  0.00000000000E+00  0.14250532448E+03  0.14250532448E+03  0.00000000000E+00 0. -1.
         -1   -1    0    0    0  501 -0.00000000000E+00 -0.00000000000E+00 -0.13245221895E+03  0.13245221895E+03  0.00000000000E+00 0.  1.
         25    2    1    2    0    0  0.47386866768E+02 -0.59047608440E+02 -0.32198227289E+02  0.14972431945E+03  0.12509400781E+03 0.  0.
          5    1    3    3  502    0  0.13882958558E+02 -0.24525083649E+02 -0.78079160080E+02  0.83114643145E+02  0.41800000000E+01 0.  1.
         -5    1    3    3    0  502  0.33503908210E+02 -0.34522524791E+02  0.45880932792E+02  0.66609676302E+02  0.41800000000E+01 0.  1.
        -11    1    1    2    0    0 -0.10170727663E+02  0.68632439374E+02  0.17547057749E+01  0.69404138407E+02  0.00000000000E+00 0.  1.
         11    1    1    2    0    0 -0.37216139104E+02 -0.95848309339E+01  0.40496627047E+02  0.55829085574E+02  0.00000000000E+00 0. -1.
</event>
<event>
 7    1  0.2641581E-009  0.1959214E+03  0.7561462E-02  0.1153226E+00
         -2   -1    0    0    0  501 -0.00000000000E+00  0.00000000000E+00  0.50844538330E+02  0.50844538330E+02  0.00000000000E+00 0.  1.
          2   -1    0    0  501    0  0.00000000000E+00 -0.00000000000E+00 -0.10642401676E+04  0.10642401676E+04  0.00000000000E+00 0. -1.
         25    2    1    2    0    0  0.18825563235E+03 -0.28793393149E+02 -0.70784347515E+03  0.74361188554E+03  0.12508800263E+03 0.  0.
          5    1    3    3  502    0  0.51137940881E+02  0.78001849484E+01 -0.55450233612E+02  0.75948223747E+02  0.41800000000E+01 0. -1.
         -5    1    3    3    0  502  0.13711769147E+03 -0.36593578097E+02 -0.65239324154E+03  0.66766366179E+03  0.41800000000E+01 0. -1.
        -11    1    1    2    0    0 -0.80694867747E+02 -0.14559105459E+02 -0.19375220471E+03  0.21038903504E+03  0.00000000000E+00 0. -1.
         11    1    1    2    0    0 -0.10756076461E+03  0.43352498608E+02 -0.11179994943E+03  0.16108378537E+03  0.00000000000E+00 0.  1.
</event>
<event>
 7    1  0.2641580E-009  0.1270789E+03  0.7561462E-02  0.1231856E+00
         -2   -1    0    0    0  501 -0.00000000000E+00  0.00000000000E+00  0.24041960465E+02  0.24041960465E+02  0.00000000000E+00 0.  1.
          2   -1    0    0  501    0  0.00000000000E+00 -0.00000000000E+00 -0.80946978530E+03  0.80946978530E+03  0.00000000000E+00 0. -1.
         25    2    1    2    0    0  0.64857162789E+02 -0.58207269973E+02 -0.40971386954E+03  0.43715867276E+03  0.12509081673E+03 0.  0.
          5    1    3    3  502    0  0.20119954889E+02 -0.76660833106E+02 -0.12316712937E+03  0.14652409384E+03  0.41800000000E+01 0. -1.
         -5    1    3    3    0  502  0.44737207900E+02  0.18453563133E+02 -0.28654674017E+03  0.29063457892E+03  0.41800000000E+01 0. -1.
        -11    1    1    2    0    0 -0.88344557383E+02  0.48695270646E+02 -0.29768278341E+03  0.31431040349E+03  0.00000000000E+00 0.  1.
         11    1    1    2    0    0  0.23487394594E+02  0.95119993278E+01 -0.78031171893E+02  0.82042669527E+02  0.00000000000E+00 0. -1.
</event>
<event>
 7    1  0.2641580E-009  0.1161815E+03  0.7561462E-02  0.1249533E+00
          2   -1    0    0  501    0  0.00000000000E+00  0.00000000000E+00  0.17949932163E+03  0.17949932163E+03  0.00000000000E+00 0. -1.
         -2   -1    0    0    0  501 -0.00000000000E+00 -0.00000000000E+00 -0.85467183645E+02  0.85467183645E+02  0.00000000000E+00 0.  1.
         25    2    1    2    0    0  0.75369265558E+01  0.48893850972E+02  0.91115446001E+02  0.16247254584E+03  0.12509152540E+03 0.  0.
          5    1    3    3  502    0 -0.58479189021E+02  0.29218503710E+02  0.44599299201E+02  0.79247122325E+02  0.41800000000E+01 0.  1.
         -5    1    3    3    0  502  0.66016115577E+02  0.19675347262E+02  0.46516146800E+02  0.83225423512E+02  0.41800000000E+01 0.  1.
        -11    1    1    2    0    0  0.23934379334E+02 -0.59899743635E+02 -0.12593741539E+02  0.65722417237E+02  0.00000000000E+00 0. -1.
         11    1    1    2    0    0 -0.31471305890E+02  0.11005892663E+02  0.15510433521E+02  0.36771542199E+02  0.00000000000E+00 0.  1.
</event>
<event>
 7    1  0.3431373E-009  0.1529043E+03  0.7561462E-02  0.1196949E+00
          2   -1    0    0  501    0  0.00000000000E+00  0.00000000000E+00  0.10591601052E+04  0.10591601052E+04  0.00000000000E+00 0. -1.
         -2   -1    0    0    0  501 -0.00000000000E+00 -0.00000000000E+00 -0.28015051722E+02  0.28015051722E+02  0.00000000000E+00 0.  1.
         25    2    1    2    0    0 -0.11890780389E+03 -0.33815423769E+02  0.70573044408E+03  0.72731464600E+03  0.12509430792E+03 0.  0.
          5    1    3    3  502    0 -0.60992520144E+02  0.29252893692E+02  0.14485958649E+03  0.15992995811E+03  0.41800000000E+01 0.  1.
         -5    1    3    3    0  502 -0.57915283745E+02 -0.63068317461E+02  0.56087085758E+03  0.56738468788E+03  0.41800000000E+01 0.  1.
        -11    1    1    2    0    0  0.99480527238E+02 -0.14219859311E+02  0.19138538763E+03  0.21616416515E+03  0.00000000000E+00 0.  1.
         11    1    1    2    0    0  0.19427276650E+02  0.48035283080E+02  0.13402922173E+03  0.14369634573E+03  0.00000000000E+00 0. -1.
</event>
<event>
 7    1  0.2641580E-009  0.1007578E+03  0.7561462E-02  0.1278710E+00
          1   -1    0    0  501    0  0.00000000000E+00  0.00000000000E+00  0.58340942398E+03  0.58340942398E+03  0.00000000000E+00 0. -1.
         -1   -1    0    0    0  501 -0.00000000000E+00 -0.00000000000E+00 -0.21027601918E+02  0.21027601918E+02  0.00000000000E+00 0.  1.
         25    2    1    2    0    0  0.40913761980E+02  0.87906776061E+01  0.40248255716E+03  0.42354584072E+03  0.12509060094E+03 0.  0.
          5    1    3    3  502    0  0.84959905923E+02 -0.12108021063E+01  0.23105273558E+03  0.24621634933E+03  0.41800000000E+01 0. -1.
         -5    1    3    3    0  502 -0.44046143943E+02  0.10001479712E+02  0.17142982158E+03  0.17732949140E+03  0.41800000000E+01 0. -1.
        -11    1    1    2    0    0 -0.29656332159E+02  0.22889914812E+02  0.34037453798E+02  0.50616148592E+02  0.00000000000E+00 0.  1.
         11    1    1    2    0    0 -0.11257429821E+02 -0.31680592418E+02  0.12586181110E+03  0.13027503658E+03  0.00000000000E+00 0. -1.
</event>
<event>
 7    1  0.2641580E-009  0.1022341E+03  0.7561462E-02  0.1275667E+00
          1   -1    0    0  501    0  0.00000000000E+00  0.00000000000E+00  0.18239843147E+03  0.18239843147E+03  0.00000000000E+00 0. -1.
         -1   -1    0    0    0  501 -0.00000000000E+00 -0.00000000000E+00 -0.83286881141E+02  0.83286881141E+02  0.00000000000E+00 0.  1.
         25    2    1    2    0    0 -0.73713290949E+01 -0.56106850716E+02  0.52487506701E+02  0.14698576966E+03  0.12509021918E+03 0.  0.
          5    1    3    3  502    0 -0.43559622492E+02 -0.32717289168E+02  0.79124325403E+02  0.96156086612E+02  0.41800000000E+01 0. -1.
         -5    1    3    3    0  502  0.36188293397E+02 -0.23389561548E+02 -0.26636818702E+02  0.50829683050E+02  0.41800000000E+01 0. -1.
        -11    1    1    2    0    0  0.39720227606E+02 -0.22839804522E+01  0.30217453259E+02  0.49960059340E+02  0.00000000000E+00 0.  1.
         11    1    1    2    0    0 -0.32348898511E+02  0.58390831168E+02  0.16406590369E+02  0.68739483609E+02  0.00000000000E+00 0. -1.
</event>
<event>
 7    1  0.2641580E-009  0.9051836E+02  0.7561462E-02  0.1301601E+00
         -4   -1    0    0    0  501 -0.00000000000E+00  0.00000000000E+00  0.24471605874E+03  0.24471605874E+03  0.00000000000E+00 0.  1.
          4   -1    0    0  501    0  0.00000000000E+00 -0.00000000000E+00 -0.62429088875E+02  0.62429088875E+02  0.00000000000E+00 0. -1.
         25    2    1    2    0    0  0.11109298857E+02 -0.33027498818E+02  0.43208227569E+02  0.13685444856E+03  0.12509179414E+03 0.  0.
          5    1    3    3  502    0  0.49797216638E+02 -0.18397926618E+02  0.69583083826E+02  0.87621483915E+02  0.41800000000E+01 0. -1.
         -5    1    3    3    0  502 -0.38687917781E+02 -0.14629572201E+02 -0.26374856257E+02  0.49232964644E+02  0.41800000000E+01 0. -1.
        -11    1    1    2    0    0  0.31842574134E+02  0.29006213714E+02  0.11035498550E+03  0.11846321279E+03  0.00000000000E+00 0.  1.
         11    1    1    2    0    0 -0.42951872992E+02  0.40212851045E+01  0.28723756797E+02  0.51827486259E+02  0.00000000000E+00 0. -1.
</event>
<event>
 7    1  0.2641580E-009  0.1333831E+03  0.7561462E-02  0.1222520E+00
          2   -1    0    0  501    0  0.00000000000E+00  0.00000000000E+00  0.24215000609E+03  0.24215000609E+03  0.00000000000E+00 0. -1.
         -2   -1    0    0    0  501 -0.00000000000E+00 -0.00000000000E+00 -0.12869087749E+03  0.12869087749E+03  0.00000000000E+00 0.  1.
         25    2    1    2    0    0  0.24683452795E+02  0.75421376883E+02  0.18004550149E+03  0.23316462560E+03  0.12510676677E+03 0.  0.
          5    1    3    3  502    0 -0.72352925186E+01  0.10335740854E+03  0.11000319901E+03  0.15117301198E+03  0.41800000000E+01 0. -1.
         -5    1    3    3    0  502  0.31918745314E+02 -0.27936031660E+02  0.70042302480E+02  0.81991613620E+02  0.41800000000E+01 0. -1.
        -11    1    1    2    0    0 -0.25537944937E+02  0.15268963996E+02 -0.18246854610E+02  0.34903804897E+02  0.00000000000E+00 0. -1.
         11    1    1    2    0    0  0.85449214196E+00 -0.90690340879E+02 -0.48339518278E+02  0.10277245308E+03  0.00000000000E+00 0.  1.
</event>
<event>
 7    1  0.2641580E-009  0.8531615E+02  0.7561462E-02  0.1314608E+00
         -2   -1    0    0    0  501 -0.00000000000E+00  0.00000000000E+00  0.51275792268E+03  0.51275792268E+03  0.00000000000E+00 0.  1.
          2   -1    0    0  501    0  0.00000000000E+00 -0.00000000000E+00 -0.22727261628E+02  0.22727261628E+02  0.00000000000E+00 0. -1.
         25    2    1    2    0    0 -0.88769531040E+01 -0.58701659679E+01  0.32926857732E+03  0.35239044615E+03  0.12509185178E+03 0.  0.
          5    1    3    3  502    0  0.42105893574E+02 -0.24798743836E+02  0.59235565654E+02  0.76903892020E+02  0.41800000000E+01 0.  1.
         -5    1    3    3    0  502 -0.50982846678E+02  0.18928577868E+02  0.27003301167E+03  0.27548655413E+03  0.41800000000E+01 0.  1.
        -11    1    1    2    0    0 -0.32414145850E+01 -0.29488702665E+02  0.16246498600E+02  0.33823646612E+02  0.00000000000E+00 0. -1.
         11    1    1    2    0    0  0.12118367689E+02  0.35358868633E+02  0.14451558513E+03  0.14927109155E+03  0.00000000000E+00 0.  1.
</event>
<event>
 7    1  0.2641580E-009  0.2668369E+03  0.7561462E-02  0.1103104E+00
         -3   -1    0    0    0  501 -0.00000000000E+00  0.00000000000E+00  0.23094886033E+03  0.23094886033E+03  0.00000000000E+00 0.  1.
          3   -1    0    0  501    0  0.00000000000E+00 -0.00000000000E+00 -0.36379991581E+03  0.36379991581E+03  0.00000000000E+00 0. -1.
         25    2    1    2    0    0 -0.19521772717E+02  0.25494146398E+03 -0.14930807944E+03  0.32143148117E+03  0.12509614238E+03 0.  0.
          5    1    3    3  502    0 -0.43961821342E+02  0.20752970689E+03 -0.65601097091E+02  0.22208601333E+03  0.41800000000E+01 0.  1.
         -5    1    3    3    0  502  0.24440048626E+02  0.47411757089E+02 -0.83706982347E+02  0.99345467842E+02  0.41800000000E+01 0.  1.
        -11    1    1    2    0    0  0.50917360796E+02 -0.16863815969E+03  0.35068068870E+02  0.17961396379E+03  0.00000000000E+00 0. -1.
         11    1    1    2    0    0 -0.31395588079E+02 -0.86303304292E+02 -0.18611044907E+02  0.93703331184E+02  0.00000000000E+00 0.  1.
</event>
<event>
 7    1  0.2641580E-009  0.1059412E+03  0.7561462E-02  0.1268276E+00
         -3   -1    0    0    0  501 -0.00000000000E+00  0.00000000000E+00  0.20839779606E+03  0.20839779606E+03  0.00000000000E+00 0.  1.
          3   -1    0    0  501    0  0.00000000000E+00 -0.00000000000E+00 -0.65940366033E+02  0.65940366033E+02  0.00000000000E+00 0. -1.
         25    2    1    2    0    0  0.13957647106E+02 -0.32825964877E+02  0.48802683638E+02  0.13892759243E+03  0.12508722607E+03 0.  0.
          5    1    3    3  502    0  0.42311628432E+02  0.26042858834E+02 -0.10082035658E+02  0.50868696070E+02  0.41800000000E+01 0.  1.
         -5    1    3    3    0  502 -0.28353981326E+02 -0.58868823712E+02  0.58884719296E+02  0.88058896364E+02  0.41800000000E+01 0.  1.
        -11    1    1    2    0    0 -0.50673683128E+02  0.31784775571E+02  0.47246679306E+02  0.76225604788E+02  0.00000000000E+00 0.  1.
         11    1    1    2    0    0  0.36716036022E+02  0.10411893057E+01  0.46408067080E+02  0.59184964869E+02  0.00000000000E+00 0. -1.
</event>
<event>
 7    1  0.2641580E-009  0.1734610E+03  0.7561462E-02  0.1174286E+00
         -2   -1    0    0    0  501 -0.00000000000E+00  0.00000000000E+00  0.18917080793E+02  0.18917080793E+02  0.00000000000E+00 0.  1.
          2   -1    0    0  501    0  0.00000000000E+00 -0.00000000000E+00 -0.17079349081E+04  0.17079349081E+04  0.00000000000E+00 0. -1.
         25    2    1    2    0    0 -0.56312121659E+02 -0.13156108437E+03 -0.86511410577E+03  0.88574941063E+03  0.12510087316E+03 0.  0.
          5    1    3    3  502    0 -0.70418052910E+02 -0.31716706936E+02 -0.53472967293E+03  0.54029431534E+03  0.41800000000E+01 0.  1.
         -5    1    3    3    0  502  0.14105931250E+02 -0.99844377433E+02 -0.33038443284E+03  0.34545509529E+03  0.41800000000E+01 0.  1.
        -11    1    1    2    0    0  0.30806133255E+02 -0.36845405828E+01 -0.18001975561E+03  0.18267376959E+03  0.00000000000E+00 0. -1.
         11    1    1    2    0    0  0.25505988404E+02  0.13524562495E+03 -0.64388396590E+03  0.65842880865E+03  0.00000000000E+00 0.  1.
</event>
<event>
 7    1  0.2641580E-009  0.1076088E+03  0.7561462E-02  0.1265063E+00
          2   -1    0    0  501    0  0.00000000000E+00  0.00000000000E+00  0.68316782722E+03  0.68316782722E+03  0.00000000000E+00 0. -1.
         -2   -1    0    0    0  501 -0.00000000000E+00 -0.00000000000E+00 -0.23441063248E+02  0.23441063248E+02  0.00000000000E+00 0.  1.
         25    2    1    2    0    0  0.46488678634E+02  0.21324543995E+02  0.47578769028E+03  0.49460703138E+03  0.12508499449E+03 0.  0.
          5    1    3    3  502    0 -0.74730036105E+01  0.52009415931E+02  0.93882742299E+02  0.10766738982E+03  0.41800000000E+01 0.  1.
         -5    1    3    3    0  502  0.53961682244E+02 -0.30684871936E+02  0.38190494798E+03  0.38693964156E+03  0.41800000000E+01 0.  1.
        -11    1    1    2    0    0 -0.31162810803E+02 -0.55043711895E+02  0.82127033993E+02  0.10366185754E+03  0.00000000000E+00 0.  1.
         11    1    1    2    0    0 -0.15325867831E+02  0.33719167900E+02  0.10181203969E+03  0.10834000155E+03  0.00000000000E+00 0. -1.
</event>
<event>
 7    1  0.2641580E-009  0.2418402E+03  0.7561462E-02  0.1118573E+00
          2   -1    0    0  501    0  0.00000000000E+00  0.00000000000E+00  0.20256573837E+04  0.20256573837E+04  0.00000000000E+00 0. -1.
         -2   -1    0    0    0  501 -0.00000000000E+00 -0.00000000000E+00 -0.35005739472E+02  0.35005739472E+02  0.00000000000E+00 0.  1.
         25    2    1    2    0    0 -0.17461738916E+03 -0.14735731405E+03  0.70108102382E+03  0.74790870120E+03  0.12508961896E+03 0.  0.
          5    1    3    3  502    0 -0.12114864820E+03 -0.49739262874E+02  0.23865874819E+03  0.27226174854E+03  0.41800000000E+01 0.  1.
         -5    1    3    3    0  502 -0.53468740962E+02 -0.97618051174E+02  0.46242227563E+03  0.47564695266E+03  0.41800000000E+01 0.  1.
        -11    1    1    2    0    0  0.17035935619E+03  0.10805290772E+03  0.11554279141E+04  0.11729072451E+04  0.00000000000E+00 0.  1.
         11    1    1    2    0    0  0.42580329702E+01  0.39304406331E+02  0.13414270634E+03  0.13984717683E+03  0.00000000000E+00 0. -1.
</event>
<event>
 7    1  0.2641580E-009  0.8124230E+02  0.7561462E-02  0.1325562E+00
          1   -1    0    0  501    0  0.00000000000E+00  0.00000000000E+00  0.32916579041E+03  0.32916579041E+03  0.00000000000E+00 0.  1.
         -1   -1    0    0    0  501 -0.00000000000E+00 -0.00000000000E+00 -0.52701634905E+02  0.52701634905E+02  0.00000000000E+00 0. -1.
         25    2    1    2    0    0 -0.52772007481E+02  0.33147756584E+02  0.94360844106E+02  0.16862385771E+03  0.12508548256E+03 0.  0.
          5    1    3    3  502    0 -0.37355449121E+02 -0.11707604802E+02 -0.20426210373E+02  0.44353129083E+02  0.41800000000E+01 0.  1.
         -5    1    3    3    0  502 -0.15416558360E+02  0.44855361386E+02  0.11478705448E+03  0.12427072862E+03  0.41800000000E+01 0.  1.
        -11    1    1    2    0    0  0.50855035118E+02 -0.94504710403E+01  0.18227090778E+03  0.18946828184E+03  0.00000000000E+00 0.  1.
         11    1    1    2    0    0  0.19169723628E+01 -0.23697285543E+02 -0.16759637555E+00  0.23775285775E+02  0.00000000000E+00 0. -1.
</event>
<event>
 7    1  0.2641580E-009  0.1143712E+03  0.7561462E-02  0.1252683E+00
         -1   -1    0    0    0  501 -0.00000000000E+00  0.00000000000E+00  0.94203465815E+02  0.94203465815E+02  0.00000000000E+00 0.  1.
          1   -1    0    0  501    0  0.00000000000E+00 -0.00000000000E+00 -0.17426216984E+03  0.17426216984E+03  0.00000000000E+00 0. -1.
         25    2    1    2    0    0  0.55725096626E+02 -0.28414855680E+02 -0.21952499187E+02  0.14156767217E+03  0.12508718226E+03 0.  0.
          5    1    3    3  502    0  0.20780015653E+02  0.49697098352E+02 -0.11711992402E+02  0.55283395347E+02  0.41800000000E+01 0. -1.
         -5    1    3    3    0  502  0.34945080973E+02 -0.78111954032E+02 -0.10240506785E+02  0.86284276818E+02  0.41800000000E+01 0. -1.
        -11    1    1    2    0    0 -0.40767935624E+01  0.36530605066E+02  0.12692734087E+02  0.38887155345E+02  0.00000000000E+00 0.  1.
         11    1    1    2    0    0 -0.51648303064E+02 -0.81157493864E+01 -0.70798938928E+02  0.88010808148E+02  0.00000000000E+00 0. -1.
</event>
<event>
 7    1  0.2641580E-009  0.8360232E+02  0.7561462E-02  0.1319129E+00
         -2   -1    0    0    0  501 -0.00000000000E+00  0.00000000000E+00  0.94401380708E+02  0.94401380708E+02  0.00000000000E+00 0.  1.
          2   -1    0    0  501    0  0.00000000000E+00 -0.00000000000E+00 -0.19384286380E+03  0.19384286380E+03  0.00000000000E+00 0. -1.
         25    2    1    2    0    0 -0.75682368217E+02  0.42367614426E+01 -0.24289261800E+02  0.14826405715E+03  0.12508593605E+03 0.  0.
          5    1    3    3  502    0 -0.15906447601E+02  0.19743155810E+02 -0.67865660581E+02  0.72567400138E+02  0.41800000000E+01 0. -1.
         -5    1    3    3    0  502 -0.59775920616E+02 -0.15506394367E+02  0.43576398782E+02  0.75696657010E+02  0.41800000000E+01 0. -1.
        -11    1    1    2    0    0  0.62235042713E+01 -0.79008057139E+01  0.19841022863E+02  0.22244570676E+02  0.00000000000E+00 0.  1.
         11    1    1    2    0    0  0.69458863946E+02  0.36640442713E+01 -0.94993244158E+02  0.11773561669E+03  0.00000000000E+00 0. -1.
</event>
<event>
 7    1  0.2641580E-009  0.1804250E+03  0.7561462E-02  0.1167392E+00
          2   -1    0    0  501    0  0.00000000000E+00  0.00000000000E+00  0.13172548352E+03  0.13172548352E+03  0.00000000000E+00 0. -1.
         -2   -1    0    0    0  501 -0.00000000000E+00 -0.00000000000E+00 -0.30997667533E+03  0.30997667533E+03  0.00000000000E+00 0.  1.
         25    2    1    2    0    0  0.36666869767E+01  0.16006152671E+03 -0.31783775952E+02  0.20562969980E+03  0.12506089755E+03 0.  0.
          5    1    3    3  502    0  0.61973811705E+02  0.75205021597E+02 -0.31781283402E+02  0.10258689480E+03  0.41800000000E+01 0.  1.
         -5    1    3    3    0  502 -0.58307124728E+02  0.84856505116E+02 -0.24925502599E-02  0.10304280499E+03  0.41800000000E+01 0.  1.
        -11    1    1    2    0    0  0.18549491130E+01 -0.17317094915E+02  0.13182255134E+02  0.21842492141E+02  0.00000000000E+00 0. -1.
         11    1    1    2    0    0 -0.55216360898E+01 -0.14274443180E+03 -0.15964967099E+03  0.21422996691E+03  0.00000000000E+00 0.  1.
</event>
<event>
 6    1  0.2641580E-009  0.8952934E+02  0.7561462E-02  0.1303995E+00
          2   -1    0    0  501    0  0.00000000000E+00  0.00000000000E+00  0.11244998658E+04  0.11244998658E+04  0.00000000000E+00 0. -1.
         -2   -1    0    0    0  501 -0.00000000000E+00 -0.00000000000E+00 -0.15181387040E+02  0.15181387040E+02  0.00000000000E+00 0.  1.
          5    1    1    2  502    0  0.34104171117E+02  0.10047954419E+02  0.81298662550E+02  0.88831305338E+02  0.41800000000E+01 0. -1.
         -5    1    1    2    0  502 -0.54472846574E+02  0.20679638078E+02  0.79442258677E+03  0.79656742164E+03  0.41800000000E+01 0. -1.
        -11    1    1    2    0    0 -0.29199282292E+02 -0.15091725630E+02  0.31202425190E+02  0.45320520811E+02  0.00000000000E+00 0.  1.
         11    1    1    2    0    0  0.49567957749E+02 -0.15635866868E+02  0.20239480422E+03  0.20896200503E+03  0.00000000000E+00 0. -1.
</event>
<event>
 7    1  0.2641580E-009  0.1707239E+03  0.7561462E-02  0.1177095E+00
          1   -1    0    0  501    0  0.00000000000E+00  0.00000000000E+00  0.12852134984E+04  0.12852134984E+04  0.00000000000E+00 0. -1.
         -1   -1    0    0    0  501 -0.00000000000E+00 -0.00000000000E+00 -0.31248135771E+02  0.31248135771E+02  0.00000000000E+00 0.  1.
         25    2    1    2    0    0 -0.11705045965E+03 -0.10258105068E+03  0.87124236955E+03  0.89383127661E+03  0.12508957783E+03 0.  0.
          5    1    3    3  502    0 -0.52757734387E+02 -0.91730402060E+02  0.28643554294E+03  0.30538604725E+03  0.41800000000E+01 0. -1.
         -5    1    3    3    0  502 -0.64292725265E+02 -0.10850648621E+02  0.58480682662E+03  0.58844522936E+03  0.41800000000E+01 0. -1.
        -11    1    1    2    0    0  0.77640769969E+00  0.36423641863E+02  0.36993545583E+02  0.51921160526E+02  0.00000000000E+00 0.  1.
         11    1    1    2    0    0  0.11627405195E+03  0.66157408818E+02  0.34572944746E+03  0.37070919700E+03  0.00000000000E+00 0. -1.
</event>
<event>
 7    1  0.2641580E-009  0.1122736E+03  0.7561462E-02  0.1256416E+00
         -1   -1    0    0    0  501 -0.00000000000E+00  0.00000000000E+00  0.36822136441E+02  0.36822136441E+02  0.00000000000E+00 0.  1.
          1   -1    0    0  501    0  0.00000000000E+00 -0.00000000000E+00 -0.41621299562E+03  0.41621299562E+03  0.00000000000E+00 0. -1.
         25    2    1    2    0    0 -0.42149754545E+02 -0.40157713643E+02 -0.19601597645E+03  0.23970736426E+03  0.12509242056E+03 0.  0.
          5    1    3    3  502    0  0.27908472850E+02 -0.37830090978E+02 -0.22029021102E+02  0.52084055247E+02  0.41800000000E+01 0.  1.
         -5    1    3    3    0  502 -0.70058227395E+02 -0.23276226655E+01 -0.17398695535E+03  0.18762330901E+03  0.41800000000E+01 0.  1.
        -11    1    1    2    0    0  0.15801244240E+01  0.61341908313E+02 -0.12408274122E+03  0.13842634568E+03  0.00000000000E+00 0. -1.
         11    1    1    2    0    0  0.40569630120E+02 -0.21184194670E+02 -0.59292141510E+02  0.74901422128E+02  0.00000000000E+00 0.  1.
</event>
<event>
 7    1  0.2641580E-009  0.1405165E+03  0.7561462E-02  0.1212636E+00
          1   -1    0    0  501    0  0.00000000000E+00  0.00000000000E+00  0.49243007245E+02  0.49243007245E+02  0.00000000000E+00 0. -1.
         -1   -1    0    0    0  501 -0.00000000000E+00 -0.00000000000E+00 -0.50608428679E+03  0.50608428679E+03  0.00000000000E+00 0.  1.
         25    2    1    2    0    0  0.29183782626E+02 -0.10124114830E+03 -0.32301423602E+03  0.36206056419E+03  0.12509273435E+03 0.  0.
          5    1    3    3  502    0  0.37862992141E+02  0.52240059137E+01 -0.26054462626E+02  0.46445708460E+02  0.41800000000E+01 0.  1.
         -5    1    3    3    0  502 -0.86792095145E+01 -0.10646515421E+03 -0.29695977340E+03  0.31561485573E+03  0.41800000000E+01 0.  1.
        -11    1    1    2    0    0  0.13549545067E+02  0.90650222076E+02 -0.11008376760E+03  0.14324625239E+03  0.00000000000E+00 0.  1.
         11    1    1    2    0    0 -0.42733327693E+02  0.10590926225E+02 -0.23743275923E+02  0.50020477462E+02  0.00000000000E+00 0. -1.
</event>
<event>
 7    1  0.2641580E-009  0.1031597E+03  0.7561462E-02  0.1273788E+00
          1   -1    0    0  501    0  0.00000000000E+00  0.00000000000E+00  0.16101313278E+03  0.16101313278E+03  0.00000000000E+00 0. -1.
         -1   -1    0    0    0  501 -0.00000000000E+00 -0.00000000000E+00 -0.10856470171E+03  0.10856470171E+03  0.00000000000E+00 0.  1.
         25    2    1    2    0    0  0.36496573328E+02 -0.57904314145E+02  0.43257413838E+02  0.14900890816E+03  0.12509013310E+03 0.  0.
          5    1    3    3  502    0  0.54474275271E+02 -0.38082074311E+02  0.79535417599E+02  0.10373546213E+03  0.41800000000E+01 0.  1.
         -5    1    3    3    0  502 -0.17977701943E+02 -0.19822239834E+02 -0.36278003761E+02  0.45273446037E+02  0.41800000000E+01 0.  1.
        -11    1    1    2    0    0 -0.64655053873E+02  0.53940749090E+02  0.25257351010E+02  0.87907987030E+02  0.00000000000E+00 0.  1.
         11    1    1    2    0    0  0.28158480544E+02  0.39635650552E+01 -0.16066333779E+02  0.32660939294E+02  0.00000000000E+00 0. -1.
</event>
<event>
 7    1  0.2641580E-009  0.1639010E+03  0.7561462E-02  0.1184362E+00
          2   -1    0    0  501    0  0.00000000000E+00  0.00000000000E+00  0.31544321732E+03  0.31544321732E+03  0.00000000000E+00 0. -1.
         -2   -1    0    0    0  501 -0.00000000000E+00 -0.00000000000E+00 -0.11615741686E+03  0.11615741686E+03  0.00000000000E+00 0.  1.
         25    2    1    2    0    0 -0.92165013776E+01 -0.12732800961E+03  0.45328110583E-01  0.17873036091E+03  0.12508866427E+03 0.  0.
          5    1    3    3  502    0  0.10794251628E+02 -0.14773377236E+03  0.90846100152E+01  0.14846476317E+03  0.41800000000E+01 0.  1.
         -5    1    3    3    0  502 -0.20010753006E+02  0.20405762751E+02 -0.90392819046E+01  0.30265597741E+02  0.41800000000E+01 0.  1.
        -11    1    1    2    0    0  0.38222232652E+01  0.13838017304E+03  0.15913194394E+03  0.21091860341E+03  0.00000000000E+00 0.  1.
         11    1    1    2    0    0  0.53942781124E+01 -0.11052163436E+02  0.40108528409E+02  0.41951669861E+02  0.00000000000E+00 0. -1.
</event>
<event>
 7    1  0.2641580E-009  0.1055839E+03  0.7561462E-02  0.1268974E+00
          2   -1    0    0  501    0  0.00000000000E+00  0.00000000000E+00  0.18984148669E+03  0.18984148669E+03  0.00000000000E+00 0. -1.
         -2   -1    0    0    0  501 -0.00000000000E+00 -0.00000000000E+00 -0.88727252475E+02  0.88727252475E+02  0.00000000000E+00 0.  1.
         25    2    1    2    0    0  0.21459207151E+02  0.51833176788E+02  0.10127853013E+03  0.17043986552E+03  0.12508089904E+03 0.  0.
          5    1    3    3  502    0  0.53980044637E+02 -0.14167564383E+02  0.71876192353E+02  0.91094591095E+02  0.41800000000E+01 0.  1.
         -5    1    3    3    0  502 -0.32520837486E+02  0.66000741171E+02  0.29402337781E+02  0.79345274421E+02  0.41800000000E+01 0.  1.
        -11    1    1    2    0    0 -0.39363854691E+02 -0.18120480052E+02 -0.35571032525E+02  0.56063920736E+02  0.00000000000E+00 0.  1.
         11    1    1    2    0    0  0.17904647541E+02 -0.33712696736E+02  0.35406736604E+02  0.52064952911E+02  0.00000000000E+00 0. -1.
</event>
<event>
 7    1  0.2641580E-009  0.6572938E+02  0.7561462E-02  0.1375249E+00
          1   -1    0    0  501    0  0.00000000000E+00  0.00000000000E+00  0.60130885344E+03  0.60130885344E+03  0.00000000000E+00 0. -1.
         -1   -1    0    0    0  501 -0.00000000000E+00 -0.00000000000E+00 -0.26121077805E+02  0.26121077805E+02  0.00000000000E+00 0.  1.
         25    2    1    2    0    0  0.24878872865E+02  0.45957710520E+02  0.40751112276E+03  0.42946907535E+03  0.12508917633E+03 0.  0.
          5    1    3    3  502    0  0.32574823009E+02  0.51504554565E+02  0.41316823672E+03  0.41765931388E+03  0.41800000000E+01 0. -1.
         -5    1    3    3    0  502 -0.76959501440E+01 -0.55468440458E+01 -0.56571139622E+01  0.11809761465E+02  0.41800000000E+01 0. -1.
        -11    1    1    2    0    0 -0.14477922205E+02 -0.17387772630E+01 -0.79128802914E+01  0.16590577213E+02  0.00000000000E+00 0.  1.
         11    1    1    2    0    0 -0.10400950660E+02 -0.44218933257E+02  0.17558953317E+03  0.18137027869E+03  0.00000000000E+00 0. -1.
</event>
<event>
 7    1  0.2641580E-009  0.1147205E+03  0.7561462E-02  0.1252070E+00
          2   -1    0    0  501    0  0.00000000000E+00  0.00000000000E+00  0.14429934392E+03  0.14429934392E+03  0.00000000000E+00 0. -1.
         -2   -1    0    0    0  501 -0.00000000000E+00 -0.00000000000E+00 -0.16185372006E+03  0.16185372006E+03  0.00000000000E+00 0.  1.
         25    2    1    2    0    0  0.87455074742E+02  0.20722558388E+02  0.45898643701E+02  0.16071651759E+03  0.12508116968E+03 0.  0.
          5    1    3    3  502    0  0.10313052053E+02 -0.10551930192E+02  0.71815462775E+02  0.73434565206E+02  0.41800000000E+01 0. -1.
         -5    1    3    3    0  502  0.77142022689E+02  0.31274488580E+02 -0.25916819074E+02  0.87281952381E+02  0.41800000000E+01 0. -1.
        -11    1    1    2    0    0  0.11256944988E+02 -0.29582000130E+02 -0.17871659570E+02  0.36348449182E+02  0.00000000000E+00 0.  1.
         11    1    1    2    0    0 -0.98712019729E+02  0.88594417421E+01 -0.45581360272E+02  0.10908809720E+03  0.00000000000E+00 0. -1.
</event>
<event>
 7    1  0.2641580E-009  0.1415345E+03  0.7561462E-02  0.1211279E+00
          1   -1    0    0  501    0  0.00000000000E+00  0.00000000000E+00  0.91736928345E+02  0.91736928345E+02  0.00000000000E+00 0. -1.
         -1   -1    0    0    0  501 -0.00000000000E+00 -0.00000000000E+00 -0.26308247604E+03  0.26308247604E+03  0.00000000000E+00 0.  1.
         25    2    1    2    0    0 -0.70466580026E+02 -0.82423819334E+02 -0.64384677034E+02  0.17763055122E+03  0.12509197095E+03 0.  0.
          5    1    3    3  502    0 -0.34209615243E+01 -0.96535223503E+02 -0.42181063488E+02  0.10548680899E+03  0.41800000000E+01 0.  1.
         -5    1    3    3    0  502 -0.67045618501E+02  0.14111404169E+02 -0.22203613546E+02  0.72143742226E+02  0.41800000000E+01 0.  1.
        -11    1    1    2    0    0  0.35404058075E+02  0.92379276681E+01  0.70335112502E+01  0.37259319858E+02  0.00000000000E+00 0. -1.
         11    1    1    2    0    0  0.35062521950E+02  0.73185891666E+02 -0.11399438191E+03  0.13992953330E+03  0.00000000000E+00 0.  1.
</event>
<event>
 7    1  0.2641580E-009  0.1056599E+03  0.7561462E-02  0.1268825E+00
         -1   -1    0    0    0  501 -0.00000000000E+00  0.00000000000E+00  0.17693259399E+03  0.17693259399E+03  0.00000000000E+00 0.  1.
          1   -1    0    0  501    0  0.00000000000E+00 -0.00000000000E+00 -0.10399502670E+03  0.10399502670E+03  0.00000000000E+00 0. -1.
         25    2    1    2    0    0  0.19290483716E+02  0.29083408977E+02  0.11461207096E+03  0.17320719644E+03  0.12508732409E+03 0.  0.
          5    1    3    3  502    0 -0.42154033197E+02  0.27986198614E+02  0.96437471998E+02  0.10898554139E+03  0.41800000000E+01 0.  1.
         -5    1    3    3    0  502  0.61444516913E+02  0.10972103631E+01  0.18174598964E+02  0.64221655045E+02  0.41800000000E+01 0.  1.
        -11    1    1    2    0    0  0.36016252776E+02  0.92761185986E+00 -0.19745593123E+02  0.41084295973E+02  0.00000000000E+00 0.  1.
         11    1    1    2    0    0 -0.55306736492E+02 -0.30011020837E+02 -0.21928910548E+02  0.66636128271E+02  0.00000000000E+00 0. -1.
</event>
<event>
 7    1  0.2641580E-009  0.1635900E+03  0.7561462E-02  0.1184702E+00
         -1   -1    0    0    0  501 -0.00000000000E+00  0.00000000000E+00  0.49429580568E+03  0.49429580568E+03  0.00000000000E+00 0.  1.
          1   -1    0    0  501    0  0.00000000000E+00 -0.00000000000E+00 -0.86862175935E+02  0.86862175935E+02  0.00000000000E+00 0. -1.
         25    2    1    2    0    0  0.14026394518E+03  0.17626534772E+02  0.64497526066E+02  0.19948617193E+03  0.12510049112E+03 0.  0.
          5    1    3    3  502    0  0.13377723441E+02  0.33610664771E+02  0.61524996589E+02  0.71494320586E+02  0.41800000000E+01 0. -1.
         -5    1    3    3    0  502  0.12688622174E+03 -0.15984129999E+02  0.29725294769E+01  0.12799185135E+03  0.41800000000E+01 0. -1.
        -11    1    1    2    0    0  0.92134818614E+01  0.66609373776E+01  0.74575008199E+01  0.13596714796E+02  0.00000000000E+00 0. -1.
         11    1    1    2    0    0 -0.14947742704E+03 -0.24287472149E+02  0.33547860286E+03  0.36807509489E+03  0.00000000000E+00 0.  1.
</event>
<event>
 7    1  0.2641580E-009  0.1054414E+03  0.7561462E-02  0.1269252E+00
         -1   -1    0    0    0  501 -0.00000000000E+00  0.00000000000E+00  0.40692971694E+03  0.40692971694E+03  0.00000000000E+00 0.  1.
          1   -1    0    0  501    0  0.00000000000E+00 -0.00000000000E+00 -0.42527374389E+02  0.42527374389E+02  0.00000000000E+00 0. -1.
         25    2    1    2    0    0 -0.55186024791E+02  0.44959113529E+02  0.16238484842E+03  0.21698710182E+03  0.12509094346E+03 0.  0.
          5    1    3    3  502    0 -0.39119473793E+02 -0.29655689189E+02  0.11968810201E+03  0.12943147721E+03  0.41800000000E+01 0. -1.
         -5    1    3    3    0  502 -0.16066550998E+02  0.74614802718E+02  0.42696746411E+02  0.87555624603E+02  0.41800000000E+01 0. -1.
        -11    1    1    2    0    0  0.33933415788E+02  0.16258802857E+01  0.16704050189E+03  0.17046011107E+03  0.00000000000E+00 0.  1.
         11    1    1    2    0    0  0.21252609003E+02 -0.46584993815E+02  0.34976992241E+02  0.62009878442E+02  0.00000000000E+00 0. -1.
</event>
<event>
 7    1  0.2641580E-009  0.1737114E+03  0.7561462E-02  0.1174032E+00
          1   -1    0    0  501    0  0.00000000000E+00  0.00000000000E+00  0.11332284303E+03  0.11332284303E+03  0.00000000000E+00 0. -1.
         -1   -1    0    0    0  501 -0.00000000000E+00 -0.00000000000E+00 -0.26987331817E+03  0.26987331817E+03  0.00000000000E+00 0.  1.
         25    2    1    2    0    0  0.12995384564E+03  0.39986282110E+02 -0.87456688496E+02  0.20440889681E+03  0.12508964776E+03 0.  0.
          5    1    3    3  502    0  0.11659163828E+03 -0.23716963253E+02 -0.49405304181E+02  0.12889709439E+03  0.41800000000E+01 0. -1.
         -5    1    3    3    0  502  0.13362207362E+02  0.63703245363E+02 -0.38051384315E+02  0.75511802413E+02  0.41800000000E+01 0. -1.
        -11    1    1    2    0    0 -0.24966229666E+02  0.28428318024E+02 -0.54026737275E+01  0.38218722805E+02  0.00000000000E+00 0. -1.
         11    1    1    2    0    0 -0.10498761597E+03 -0.68414600134E+02 -0.63691112913E+02  0.14056854158E+03  0.00000000000E+00 0.  1.
</event>
<event>
 7    1  0.2641580E-009  0.9193786E+02  0.7561462E-02  0.1298226E+00
         -1   -1    0    0    0  501 -0.00000000000E+00  0.00000000000E+00  0.31935458094E+02  0.31935458094E+02  0.00000000000E+00 0.  1.
          1   -1    0    0  501    0  0.00000000000E+00 -0.00000000000E+00 -0.44378923256E+03  0.44378923256E+03  0.00000000000E+00 0. -1.
         25    2    1    2    0    0  0.12167726195E+02 -0.36761977286E+02 -0.28823487018E+03  0.31658489004E+03  0.12508859133E+03 0.  0.
          5    1    3    3  502    0  0.46231711349E+02 -0.53059023562E+02 -0.87897463726E+02  0.11267682834E+03  0.41800000000E+01 0. -1.
         -5    1    3    3    0  502 -0.34063985154E+02  0.16297046276E+02 -0.20033740646E+03  0.20390806170E+03  0.41800000000E+01 0. -1.
        -11    1    1    2    0    0 -0.32846366946E+02 -0.40870537269E+00 -0.51295307214E+01  0.33246999069E+02  0.00000000000E+00 0.  1.
         11    1    1    2    0    0  0.20678640752E+02  0.37170682659E+02 -0.11848937356E+03  0.12589280154E+03  0.00000000000E+00 0. -1.
</event>
<event>
 7    1  0.2641580E-009  0.1161904E+03  0.7561462E-02  0.1249517E+00
          1   -1    0    0  501    0  0.00000000000E+00  0.00000000000E+00  0.97964899027E+02  0.97964899027E+02  0.00000000000E+00 0. -1.
         -1   -1    0    0    0  501 -0.00000000000E+00 -0.00000000000E+00 -0.30874004267E+03  0.30874004267E+03  0.00000000000E+00 0.  1.
         25    2    1    2    0    0 -0.80314492846E+02 -0.55597845996E+02 -0.22111592742E+03  0.27217900132E+03  0.12509043593E+03 0.  0.
          5    1    3    3  502    0 -0.42772029436E+02 -0.33847499794E+02 -0.87669552827E+01  0.55402451655E+02  0.41800000000E+01 0.  1.
         -5    1    3    3    0  502 -0.37542463410E+02 -0.21750346202E+02 -0.21234897214E+03  0.21677654967E+03  0.41800000000E+01 0.  1.
        -11    1    1    2    0    0  0.93985303157E+02  0.20186108750E+02  0.59261787039E+01  0.96311140529E+02  0.00000000000E+00 0. -1.
         11    1    1    2    0    0 -0.13670810311E+02  0.35411737247E+02  0.44146050710E+01  0.38214799846E+02  0.00000000000E+00 0.  1.
</event>
<event>
 7    1  0.2641580E-009  0.1476910E+03  0.7561462E-02  0.1203339E+00
          2   -1    0    0  501    0  0.00000000000E+00  0.00000000000E+00  0.38007553295E+03  0.38007553295E+03  0.00000000000E+00 0. -1.
         -2   -1    0    0    0  501 -0.00000000000E+00 -0.00000000000E+00 -0.93291184705E+02  0.93291184705E+02  0.00000000000E+00 0.  1.
         25    2    1    2    0    0  0.75262592877E+02  0.76475576034E+02  0.13667312631E+02  0.16537126014E+03  0.12509151302E+03 0.  0.
          5    1    3    3  502    0  0.58862125328E+02 -0.23343500260E+02  0.80992574868E+01  0.63974519728E+02  0.41800000000E+01 0. -1.
         -5    1    3    3    0  502  0.16400467549E+02  0.99819076295E+02  0.55680551447E+01  0.10139674041E+03  0.41800000000E+01 0. -1.
        -11    1    1    2    0    0 -0.84569769611E+02 -0.40966138082E+02  0.13102622235E+03  0.16123939142E+03  0.00000000000E+00 0.  1.
         11    1    1    2    0    0  0.93071767338E+01 -0.35509437952E+02  0.14209081327E+03  0.14675606610E+03  0.00000000000E+00 0. -1.
</event>
<event>
 7    1  0.2641580E-009  0.1582923E+03  0.7561462E-02  0.1190638E+00
          1   -1    0    0  501    0  0.00000000000E+00  0.00000000000E+00  0.12080956203E+04  0.12080956203E+04  0.00000000000E+00 0. -1.
         -1   -1    0    0    0  501 -0.00000000000E+00 -0.00000000000E+00 -0.20815479793E+02  0.20815479793E+02  0.00000000000E+00 0.  1.
         25    2    1    2    0    0 -0.95755152467E+02 -0.67424401262E+02  0.65121083866E+03  0.67337816199E+03  0.12508994183E+03 0.  0.
          5    1    3    3  502    0 -0.83254413038E+02 -0.10322512346E+03  0.52663050238E+03  0.54308736114E+03  0.41800000000E+01 0.  1.
         -5    1    3    3    0  502 -0.12500739429E+02  0.35800722195E+02  0.12458033628E+03  0.13029080084E+03  0.41800000000E+01 0.  1.
        -11    1    1    2    0    0  0.10290232291E+03  0.29338586661E+02  0.39615827021E+03  0.41035474383E+03  0.00000000000E+00 0.  1.
         11    1    1    2    0    0 -0.71471704421E+01  0.38085814601E+02  0.13991103167E+03  0.14517819430E+03  0.00000000000E+00 0. -1.
</event>
<event>
 7    1  0.2641580E-009  0.9684768E+02  0.7561462E-02  0.1287068E+00
          2   -1    0    0  501    0  0.00000000000E+00  0.00000000000E+00  0.11237418799E+04  0.11237418799E+04  0.00000000000E+00 0. -1.
         -2   -1    0    0    0  501 -0.00000000000E+00 -0.00000000000E+00 -0.16060666048E+02  0.16060666048E+02  0.00000000000E+00 0.  1.
         25    2    1    2    0    0 -0.36157005552E+02  0.95534447417E+01  0.89949339672E+03  0.90891927098E+03  0.12508906049E+03 0.  0.
          5    1    3    3  502    0 -0.21912093880E+02  0.67300973920E+02  0.49876611014E+03  0.50378037474E+03  0.41800000000E+01 0.  1.
         -5    1    3    3    0  502 -0.14244911672E+02 -0.57747529179E+02  0.40072728658E+03  0.40513889624E+03  0.41800000000E+01 0.  1.
        -11    1    1    2    0    0 -0.62321739818E+01 -0.18779821109E+02  0.16689305426E+01  0.19857165019E+02  0.00000000000E+00 0.  1.
         11    1    1    2    0    0  0.42389179534E+02  0.92263763678E+01  0.20651888656E+03  0.21102610992E+03  0.00000000000E+00 0. -1.
</event>
<event>
 7    1  0.2641580E-009  0.1761651E+03  0.7561462E-02  0.1171567E+00
          1   -1    0    0  501    0  0.00000000000E+00  0.00000000000E+00  0.13676656565E+04  0.13676656565E+04  0.00000000000E+00 0. -1.
         -1   -1    0    0    0  501 -0.00000000000E+00 -0.00000000000E+00 -0.26739582564E+02  0.26739582564E+02  0.00000000000E+00 0.  1.
         25    2    1    2    0    0 -0.10953384099E+03  0.91669070267E+02  0.93554365623E+03  0.95461539176E+03  0.12509089777E+03 0.  0.
          5    1    3    3  502    0  0.13672043126E+02 -0.14573713308E+02  0.46278197567E+02  0.50581240128E+02  0.41800000000E+01 0. -1.
         -5    1    3    3    0  502 -0.12320588412E+03  0.10624278358E+03  0.88926545866E+03  0.90403415163E+03  0.41800000000E+01 0. -1.
        -11    1    1    2    0    0  0.35025993773E+02 -0.87841955712E+02  0.19874842382E+03  0.22009989867E+03  0.00000000000E+00 0.  1.
         11    1    1    2    0    0  0.74507847221E+02 -0.38271145548E+01  0.20663399390E+03  0.21968994865E+03  0.00000000000E+00 0. -1.
</event>
<event>
 7    1  0.2641580E-009  0.1535392E+03  0.7561462E-02  0.1196190E+00
          2   -1    0    0  501    0  0.00000000000E+00  0.00000000000E+00  0.24674305655E+03  0.24674305655E+03  0.00000000000E+00 0. -1.
         -2   -1    0    0    0  501 -0.00000000000E+00 -0.00000000000E+00 -0.16703201216E+03  0.16703201216E+03  0.00000000000E+00 0.  1.
         25    2    1    2    0    0 -0.14677801638E+03  0.22834601308E+01  0.12988748906E+03  0.23252335897E+03  0.12508937752E+03 0.  0.
          5    1    3    3  502    0 -0.11693666625E+02  0.17758408386E+01  0.91041143199E+02  0.91901347133E+02  0.41800000000E+01 0.  1.
         -5    1    3    3    0  502 -0.13508434975E+03  0.50761929223E+00  0.38846345862E+02  0.14062201184E+03  0.41800000000E+01 0.  1.
        -11    1    1    2    0    0  0.26721689314E+02  0.24637413192E+02  0.18030964495E+02  0.40572977328E+02  0.00000000000E+00 0.  1.
         11    1    1    2    0    0  0.12005632707E+03 -0.26920873323E+02 -0.68207409167E+02  0.14067873242E+03  0.00000000000E+00 0. -1.
</event>
<event>
 7    1  0.2641580E-009  0.1063372E+03  0.7561462E-02  0.1267507E+00
         -2   -1    0    0    0  501 -0.00000000000E+00  0.00000000000E+00  0.12081256461E+02  0.12081256461E+02  0.00000000000E+00 0. -1.
          2   -1    0    0  501    0  0.00000000000E+00 -0.00000000000E+00 -0.10519607788E+04  0.10519607788E+04  0.00000000000E+00 0.  1.
         25    2    1    2    0    0  0.23844003084E+02  0.19380160807E+02 -0.56826033098E+03  0.58267567374E+03  0.12508800855E+03 0.  0.
          5    1    3    3  502    0 -0.12385517411E+01  0.64878062485E+02 -0.43053398859E+03  0.43541667944E+03  0.41800000000E+01 0. -1.
         -5    1    3    3    0  502  0.25082554825E+02 -0.45497901678E+02 -0.13772634239E+03  0.14725899430E+03  0.41800000000E+01 0. -1.
        -11    1    1    2    0    0 -0.45049501334E+02 -0.44043485648E+02 -0.33998499482E+03  0.34577316683E+03  0.00000000000E+00 0. -1.
         11    1    1    2    0    0  0.21205498251E+02  0.24663324841E+02 -0.13163419653E+03  0.13559319469E+03  0.00000000000E+00 0.  1.
</event>
<event>
 7    1  0.2641580E-009  0.1147896E+03  0.7561462E-02  0.1251949E+00
         -2   -1    0    0    0  501 -0.00000000000E+00  0.00000000000E+00  0.22879903077E+03  0.22879903077E+03  0.00000000000E+00 0.  1.
          2   -1    0    0  501    0  0.00000000000E+00 -0.00000000000E+00 -0.65845279578E+02  0.65845279578E+02  0.00000000000E+00 0. -1.
         25    2    1    2    0    0 -0.50431120691E+02 -0.26544498520E+02  0.10413858234E+03  0.17245732531E+03  0.12509506938E+03 0.  0.
          5    1    3    3  502    0 -0.53547600983E+02  0.33190364816E+02  0.91513478360E+02  0.11118064134E+03  0.41800000000E+01 0. -1.
         -5    1    3    3    0  502  0.31164802917E+01 -0.59734863336E+02  0.12625103981E+02  0.61276683965E+02  0.41800000000E+01 0. -1.
        -11    1    1    2    0    0  0.30790058176E+02  0.60139914759E+02  0.43557971271E+02  0.80387398832E+02  0.00000000000E+00 0.  1.
         11    1    1    2    0    0  0.19641062516E+02 -0.33595416240E+02  0.15257197575E+02  0.41799586205E+02  0.00000000000E+00 0. -1.
</event>
<event>
 7    1  0.2641580E-009  0.1438398E+03  0.7561462E-02  0.1208254E+00
          1   -1    0    0  501    0  0.00000000000E+00  0.00000000000E+00  0.22519963356E+03  0.22519963356E+03  0.00000000000E+00 0. -1.
         -1   -1    0    0    0  501 -0.00000000000E+00 -0.00000000000E+00 -0.14409647286E+03  0.14409647286E+03  0.00000000000E+00 0.  1.
         25    2    1    2    0    0  0.84661877788E+02  0.76647571436E+02 -0.45902987387E+02  0.17549731490E+03  0.12509891897E+03 0.  0.
          5    1    3    3  502    0 -0.32647436549E+02  0.10543124166E+02 -0.68489527645E+01  0.35233409349E+02  0.41800000000E+01 0.  1.
         -5    1    3    3    0  502  0.11730931434E+03  0.66104447270E+02 -0.39054034623E+02  0.14026390555E+03  0.41800000000E+01 0.  1.
        -11    1    1    2    0    0 -0.54430035807E+02 -0.28217689776E+02  0.80291691586E+01  0.61833117111E+02  0.00000000000E+00 0.  1.
         11    1    1    2    0    0 -0.30231841981E+02 -0.48429881660E+02  0.11897697893E+03  0.13196567441E+03  0.00000000000E+00 0. -1.
</event>
<event>
 7    1  0.2641580E-009  0.1062820E+03  0.7561462E-02  0.1267614E+00
          3   -1    0    0  501    0  0.00000000000E+00  0.00000000000E+00  0.14951686920E+04  0.14951686920E+04  0.00000000000E+00 0. -1.
         -3   -1    0    0    0  501 -0.00000000000E+00 -0.00000000000E+00 -0.12160997456E+02  0.12160997456E+02  0.00000000000E+00 0.  1.
         25    2    1    2    0    0 -0.10899864000E+02  0.26767924488E+02  0.12229908233E+04  0.12297108431E+04  0.12508746834E+03 0.  0.
          5    1    3    3  502    0 -0.48292624056E+02  0.60725029382E+02  0.73825377571E+03  0.74233133875E+03  0.41800000000E+01 0.  1.
         -5    1    3    3    0  502  0.37392760056E+02 -0.33957104893E+02  0.48473704762E+03  0.48737950430E+03  0.41800000000E+01 0.  1.
        -11    1    1    2    0    0  0.43659251574E+02 -0.27163699290E+02  0.83311073268E+02  0.97901643174E+02  0.00000000000E+00 0.  1.
         11    1    1    2    0    0 -0.32759387573E+02  0.39577480188E+00  0.17670579797E+03  0.17971720326E+03  0.00000000000E+00 0. -1.
</event>
<event>
 7    1  0.2641580E-009  0.1537187E+03  0.7561462E-02  0.1195977E+00
          2   -1    0    0  501    0  0.00000000000E+00  0.00000000000E+00  0.10418797953E+04  0.10418797953E+04  0.00000000000E+00 0. -1.
         -2   -1    0    0    0  501 -0.00000000000E+00 -0.00000000000E+00 -0.33899573843E+02  0.33899573843E+02  0.00000000000E+00 0.  1.
         25    2    1    2    0    0 -0.66971339710E+02 -0.13190154124E+03  0.39832499034E+03  0.44293869659E+03  0.12509482036E+03 0.  0.
          5    1    3    3  502    0 -0.71753449159E+02 -0.91523458441E+02  0.38129502526E+03  0.39865833692E+03  0.41800000000E+01 0.  1.
         -5    1    3    3    0  502  0.47821094485E+01 -0.40378082800E+02  0.17029965083E+02  0.44280359666E+02  0.41800000000E+01 0.  1.
        -11    1    1    2    0    0  0.16647001554E+02  0.61092372404E+02  0.12143428351E+03  0.13695139955E+03  0.00000000000E+00 0.  1.
         11    1    1    2    0    0  0.50324338156E+02  0.70809168837E+02  0.48822094762E+03  0.49588927302E+03  0.00000000000E+00 0. -1.
</event>
<event>
 7    1  0.2641580E-009  0.1038328E+03  0.7561462E-02  0.1272436E+00
         -4   -1    0    0    0  501 -0.00000000000E+00  0.00000000000E+00  0.16976615835E+03  0.16976615835E+03  0.00000000000E+00 0.  1.
          4   -1    0    0  501    0  0.00000000000E+00 -0.00000000000E+00 -0.14265704779E+03  0.14265704779E+03  0.00000000000E+00 0. -1.
         25    2    1    2    0    0 -0.75989107285E+02 -0.47184558026E+02 -0.51747823512E+02  0.16225401100E+03  0.12509116638E+03 0.  0.
          5    1    3    3  502    0 -0.51225900205E+02  0.86347145742E+01 -0.79490428516E+02  0.95051837296E+02  0.41800000000E+01 0.  1.
         -5    1    3    3    0  502 -0.24763207079E+02 -0.55819272600E+02  0.27742605005E+02  0.67202173707E+02  0.41800000000E+01 0.  1.
        -11    1    1    2    0    0  0.76208770872E+01  0.18852279650E+02 -0.18762662344E+02  0.27668099209E+02  0.00000000000E+00 0. -1.
         11    1    1    2    0    0  0.68368230197E+02  0.28332278376E+02  0.97619596416E+02  0.12250109592E+03  0.00000000000E+00 0.  1.
</event>
<event>
 7    1  0.2641580E-009  0.1072745E+03  0.7561462E-02  0.1265702E+00
          2   -1    0    0  501    0  0.00000000000E+00  0.00000000000E+00  0.69647314149E+02  0.69647314149E+02  0.00000000000E+00 0. -1.
         -2   -1    0    0    0  501 -0.00000000000E+00 -0.00000000000E+00 -0.18995238810E+03  0.18995238810E+03  0.00000000000E+00 0.  1.
         25    2    1    2    0    0 -0.79516731861E+01 -0.12742674222E+02 -0.30396213280E+02  0.12960477580E+03  0.12509141967E+03 0.  0.
          5    1    3    3  502    0  0.30215717226E+02 -0.57762918450E+02 -0.59804272631E+01  0.65595596084E+02  0.41800000000E+01 0.  1.
         -5    1    3    3    0  502 -0.38167390413E+02  0.45020244229E+02 -0.24415786017E+02  0.64009179718E+02  0.41800000000E+01 0.  1.
        -11    1    1    2    0    0 -0.38195353907E+02  0.20364005706E+02 -0.61719149469E+02  0.75384555445E+02  0.00000000000E+00 0.  1.
         11    1    1    2    0    0  0.46147027093E+02 -0.76213314847E+01 -0.28189711198E+02  0.54610370999E+02  0.00000000000E+00 0. -1.
</event>
<event>
 7    1  0.2641580E-009  0.1476212E+03  0.7561462E-02  0.1203427E+00
         -1   -1    0    0    0  501 -0.00000000000E+00  0.00000000000E+00  0.66427287211E+03  0.66427287211E+03  0.00000000000E+00 0.  1.
          1   -1    0    0  501    0  0.00000000000E+00 -0.00000000000E+00 -0.48958785361E+02  0.48958785361E+02  0.00000000000E+00 0. -1.
         25    2    1    2    0    0  0.13081012281E+03 -0.51623924554E+01  0.42917829300E+03  0.46581030261E+03  0.12508913748E+03 0.  0.
          5    1    3    3  502    0  0.97550026404E+02 -0.11033420060E+02  0.41888523460E+03  0.43025580319E+03  0.41800000000E+01 0. -1.
         -5    1    3    3    0  502  0.33260096408E+02  0.58710276049E+01  0.10293058395E+02  0.35554499424E+02  0.41800000000E+01 0. -1.
        -11    1    1    2    0    0 -0.11420488368E+03 -0.35034509422E+02  0.13355675263E+03  0.17918587690E+03  0.00000000000E+00 0. -1.
         11    1    1    2    0    0 -0.16605239132E+02  0.40196901877E+02  0.52579041124E+02  0.68235477962E+02  0.00000000000E+00 0.  1.
</event>
<event>
 7    1  0.2641580E-009  0.1537571E+03  0.7561462E-02  0.1195931E+00
         -2   -1    0    0    0  501 -0.00000000000E+00  0.00000000000E+00  0.97477964564E+02  0.97477964564E+02  0.00000000000E+00 0.  1.
          2   -1    0    0  501    0  0.00000000000E+00 -0.00000000000E+00 -0.25697865826E+03  0.25697865826E+03  0.00000000000E+00 0. -1.
         25    2    1    2    0    0  0.78890740664E+02 -0.83039920407E+02 -0.80734411193E+02  0.18784370882E+03  0.12509131244E+03 0.  0.
          5    1    3    3  502    0  0.88355862912E+02 -0.10994274090E+02 -0.16254284841E+02  0.90605224735E+02  0.41800000000E+01 0. -1.
         -5    1    3    3    0  502 -0.94651222483E+01 -0.72045646317E+02 -0.64480126352E+02  0.97238484083E+02  0.41800000000E+01 0. -1.
        -11    1    1    2    0    0 -0.67366035259E+02  0.59288048763E+01 -0.25921261324E+02  0.72424065216E+02  0.00000000000E+00 0.  1.
         11    1    1    2    0    0 -0.11524705405E+02  0.77111115531E+02 -0.52845021181E+02  0.94188848792E+02  0.00000000000E+00 0. -1.
</event>
<event>
 7    1  0.2641580E-009  0.1167882E+03  0.7561462E-02  0.1248492E+00
         -4   -1    0    0    0  501 -0.00000000000E+00  0.00000000000E+00  0.57816822662E+02  0.57816822662E+02  0.00000000000E+00 0.  1.
          4   -1    0    0  501    0  0.00000000000E+00 -0.00000000000E+00 -0.39738986145E+03  0.39738986145E+03  0.00000000000E+00 0. -1.
         25    2    1    2    0    0 -0.54202812498E+02 -0.40719616099E+02 -0.68777914939E+02  0.15803635675E+03  0.12509618880E+03 0.  0.
          5    1    3    3  502    0 -0.68632291307E+02  0.21621722804E+02 -0.13411754397E+02  0.73316013688E+02  0.41800000000E+01 0.  1.
         -5    1    3    3    0  502  0.14429478809E+02 -0.62341338903E+02 -0.55366160542E+02  0.84720343060E+02  0.41800000000E+01 0.  1.
        -11    1    1    2    0    0 -0.41829676346E+01  0.38726552580E+02 -0.29386317211E+02  0.48793429191E+02  0.00000000000E+00 0.  1.
         11    1    1    2    0    0  0.58385780133E+02  0.19930635190E+01 -0.24140880664E+03  0.24837689818E+03  0.00000000000E+00 0. -1.
</event>
<event>
 7    1  0.2641580E-009  0.2038183E+03  0.7561462E-02  0.1146557E+00
          2   -1    0    0  501    0  0.00000000000E+00  0.00000000000E+00  0.39437357358E+03  0.39437357358E+03  0.00000000000E+00 0. -1.
         -2   -1    0    0    0  501 -0.00000000000E+00 -0.00000000000E+00 -0.13099277830E+03  0.13099277830E+03  0.00000000000E+00 0.  1.
         25    2    1    2    0    0 -0.12708596479E+03 -0.14326843926E+03  0.71401655234E+02  0.23962990621E+03  0.12509039710E+03 0.  0.
          5    1    3    3  502    0 -0.55204416492E+02 -0.31241031749E+02  0.84583185769E+02  0.10580792683E+03  0.41800000000E+01 0. -1.
         -5    1    3    3    0  502 -0.71881548297E+02 -0.11202740751E+03 -0.13181530535E+02  0.13382197938E+03  0.41800000000E+01 0. -1.
        -11    1    1    2    0    0  0.10430027986E+03  0.51462859846E+02  0.93943019962E+02  0.14950674006E+03  0.00000000000E+00 0. -1.
         11    1    1    2    0    0  0.22785684924E+02  0.91805579413E+02  0.98036120080E+02  0.13622970560E+03  0.00000000000E+00 0.  1.
</event>
<event>
 7    1  0.2784799E-009  0.1621090E+03  0.7561462E-02  0.1186336E+00
         -4   -1    0    0    0  501 -0.00000000000E+00  0.00000000000E+00  0.11447412148E+03  0.11447412148E+03  0.00000000000E+00 0.  1.
          4   -1    0    0  501    0  0.00000000000E+00 -0.00000000000E+00 -0.31475128440E+03  0.31475128440E+03  0.00000000000E+00 0. -1.
         25    2    1    2    0    0 -0.11612666752E+03  0.69846683398E+02 -0.19109361183E+03  0.26557284101E+03  0.12509277880E+03 0.  0.
          5    1    3    3  502    0 -0.89754980233E+02  0.10609910129E+03 -0.15134592951E+03  0.20551408359E+03  0.41800000000E+01 0.  1.
         -5    1    3    3    0  502 -0.26371687285E+02 -0.36252417897E+02 -0.39747682319E+02  0.60058757424E+02  0.41800000000E+01 0.  1.
        -11    1    1    2    0    0  0.74887198992E+02 -0.24331791679E+02 -0.46829726396E+02  0.91614147016E+02  0.00000000000E+00 0.  1.
         11    1    1    2    0    0  0.41239468525E+02 -0.45514891719E+02  0.37646175304E+02  0.72038417858E+02  0.00000000000E+00 0. -1.
</event>
<event>
 7    1  0.2641580E-009  0.1363773E+03  0.7561462E-02  0.1218288E+00
         -1   -1    0    0    0  501 -0.00000000000E+00  0.00000000000E+00  0.98151576041E+02  0.98151576041E+02  0.00000000000E+00 0.  1.
          1   -1    0    0  501    0  0.00000000000E+00 -0.00000000000E+00 -0.23856919284E+03  0.23856919284E+03  0.00000000000E+00 0. -1.
         25    2    1    2    0    0  0.84945127635E+02 -0.99677497661E+01 -0.45920351808E+01  0.15160237459E+03  0.12508861839E+03 0.  0.
          5    1    3    3  502    0  0.11274378543E+03 -0.26979980822E+02  0.83153779315E+01  0.11630003623E+03  0.41800000000E+01 0. -1.
         -5    1    3    3    0  502 -0.27798657791E+02  0.17012231056E+02 -0.12907413112E+02  0.35302338360E+02  0.41800000000E+01 0. -1.
        -11    1    1    2    0    0 -0.26619430019E+02  0.47560525773E+02 -0.44145175551E+02  0.70138393129E+02  0.00000000000E+00 0. -1.
         11    1    1    2    0    0 -0.58325697617E+02 -0.37592776006E+02 -0.91680406068E+02  0.11498000116E+03  0.00000000000E+00 0.  1.
</event>
<event>
 7    1  0.2641580E-009  0.2078739E+03  0.7561462E-02  0.1143261E+00
         -1   -1    0    0    0  501 -0.00000000000E+00  0.00000000000E+00  0.80116658480E+02  0.80116658480E+02  0.00000000000E+00 0.  1.
          1   -1    0    0  501    0  0.00000000000E+00 -0.00000000000E+00 -0.73749474320E+03  0.73749474320E+03  0.00000000000E+00 0. -1.
         25    2    1    2    0    0 -0.66483921388E+02  0.17563427408E+03 -0.15526682708E+03  0.27392137922E+03  0.12513042943E+03 0.  0.
          5    1    3    3  502    0 -0.17423539446E+02  0.15182088967E+03 -0.15708779093E+03  0.21919673521E+03  0.41800000000E+01 0.  1.
         -5    1    3    3    0  502 -0.49060381942E+02  0.23813384405E+02  0.18209638456E+01  0.54724644014E+02  0.41800000000E+01 0.  1.
        -11    1    1    2    0    0  0.79043743590E+02 -0.17856852084E+03 -0.46266907659E+03  0.50219249742E+03  0.00000000000E+00 0.  1.
         11    1    1    2    0    0 -0.12559822201E+02  0.29342467616E+01 -0.39442181046E+02  0.41497525029E+02  0.00000000000E+00 0. -1.
</event>
<event>
 7    1  0.4433139E-009  0.6538022E+02  0.7561462E-02  0.1376547E+00
          2   -1    0    0  501    0  0.00000000000E+00  0.00000000000E+00  0.17533810285E+03  0.17533810285E+03  0.00000000000E+00 0.  1.
         -2   -1    0    0    0  501 -0.00000000000E+00 -0.00000000000E+00 -0.76045254557E+02  0.76045254557E+02  0.00000000000E+00 0. -1.
         25    2    1    2    0    0 -0.54210503879E+01 -0.29094458897E+02  0.26957459406E+02  0.13136426539E+03  0.12511590737E+03 0.  0.
          5    1    3    3  502    0  0.17551357786E+01 -0.63264274541E+02  0.56877198054E+02  0.85193526710E+02  0.41800000000E+01 0.  1.
         -5    1    3    3    0  502 -0.71761861665E+01  0.34169815645E+02 -0.29919738648E+02  0.46170738676E+02  0.41800000000E+01 0.  1.
        -11    1    1    2    0    0  0.95421455714E+01  0.18864643254E+02  0.93657364354E+02  0.96013692799E+02  0.00000000000E+00 0.  1.
         11    1    1    2    0    0 -0.41210951835E+01  0.10229815643E+02 -0.21321975471E+02  0.24005399217E+02  0.00000000000E+00 0. -1.
</event>
<event>
 7    1  0.2641580E-009  0.1180141E+03  0.7561462E-02  0.1246410E+00
          1   -1    0    0  501    0  0.00000000000E+00  0.00000000000E+00  0.68667756950E+02  0.68667756950E+02  0.00000000000E+00 0. -1.
         -1   -1    0    0    0  501 -0.00000000000E+00 -0.00000000000E+00 -0.31172899449E+03  0.31172899449E+03  0.00000000000E+00 0.  1.
         25    2    1    2    0    0 -0.42046477485E+02 -0.82586398397E+02 -0.16824771479E+03  0.22922258971E+03  0.12508909878E+03 0.  0.
          5    1    3    3  502    0 -0.57837795204E+02 -0.42830172676E+01 -0.21319224221E+02  0.61931708457E+02  0.41800000000E+01 0.  1.
         -5    1    3    3    0  502  0.15791317719E+02 -0.78303381129E+02 -0.14692849057E+03  0.16729088126E+03  0.41800000000E+01 0.  1.
        -11    1    1    2    0    0  0.30185127123E+02  0.25283977099E+02 -0.83211498412E+02  0.92057454154E+02  0.00000000000E+00 0.  1.
         11    1    1    2    0    0  0.11861350362E+02  0.57302421298E+02  0.83979756591E+01  0.59116707572E+02  0.00000000000E+00 0. -1.
</event>
<event>
 7    1  0.2641580E-009  0.6699551E+02  0.7561462E-02  0.1370619E+00
         -1   -1    0    0    0  501 -0.00000000000E+00  0.00000000000E+00  0.32502366338E+02  0.32502366338E+02  0.00000000000E+00 0.  1.
          1   -1    0    0  501    0  0.00000000000E+00 -0.00000000000E+00 -0.43132935020E+03  0.43132935020E+03  0.00000000000E+00 0. -1.
         25    2    1    2    0    0  0.70069253920E+01 -0.36547354889E+02 -0.15795345691E+03  0.20489575043E+03  0.12509263704E+03 0.  0.
          5    1    3    3  502    0  0.11941422521E+02  0.21126525869E+02  0.10466423344E+02  0.26757168847E+02  0.41800000000E+01 0.  1.
         -5    1    3    3    0  502 -0.49344971291E+01 -0.57673880757E+02 -0.16841988025E+03  0.17813858158E+03  0.41800000000E+01 0.  1.
        -11    1    1    2    0    0  0.10545630261E+02 -0.26358433363E+00  0.35525947660E+01  0.11131070203E+02  0.00000000000E+00 0.  1.
         11    1    1    2    0    0 -0.17552555652E+02  0.36810939222E+02 -0.24442612172E+03  0.24780489591E+03  0.00000000000E+00 0. -1.
</event>
<event>
 7    1  0.2641580E-009  0.8496891E+02  0.7561462E-02  0.1315514E+00
         -2   -1    0    0    0  501 -0.00000000000E+00  0.00000000000E+00  0.13146949698E+03  0.13146949698E+03  0.00000000000E+00 0.  1.
          2   -1    0    0  501    0  0.00000000000E+00 -0.00000000000E+00 -0.89994634325E+02  0.89994634325E+02  0.00000000000E+00 0. -1.
         25    2    1    2    0    0 -0.21276162312E+02 -0.29368390295E+01  0.21697249004E+02  0.12876086009E+03  0.12508912171E+03 0.  0.
          5    1    3    3  502    0  0.47675709563E+02 -0.19788772829E+02 -0.66511862481E+01  0.52213786406E+02  0.41800000000E+01 0. -1.
         -5    1    3    3    0  502 -0.68951871874E+02  0.16851933800E+02  0.28348435252E+02  0.76547073680E+02  0.41800000000E+01 0. -1.
        -11    1    1    2    0    0  0.19558378813E+02  0.21117584385E+02  0.49825175190E+02  0.57541555721E+02  0.00000000000E+00 0.  1.
         11    1    1    2    0    0  0.17177834990E+01 -0.18180745356E+02 -0.30047561543E+02  0.35161715494E+02  0.00000000000E+00 0. -1.
</event>
<event>
 7    1  0.2641580E-009  0.2281701E+03  0.7561462E-02  0.1127934E+00
         -1   -1    0    0    0  501 -0.00000000000E+00  0.00000000000E+00  0.34857636928E+02  0.34857636928E+02  0.00000000000E+00 0.  1.
          1   -1    0    0  501    0  0.00000000000E+00 -0.00000000000E+00 -0.20912517155E+04  0.20912517155E+04  0.00000000000E+00 0. -1.
         25    2    1    2    0    0 -0.16677608038E+03 -0.11414046827E+03 -0.16041248321E+04  0.16216368435E+04  0.12508904036E+03 0.  0.
          5    1    3    3  502    0 -0.94749822230E+02  0.86596741647E+01 -0.63451907789E+03  0.64162641106E+03  0.41800000000E+01 0.  1.
         -5    1    3    3    0  502 -0.72026258153E+02 -0.12280014244E+03 -0.96960575416E+03  0.98001043247E+03  0.41800000000E+01 0.  1.
        -11    1    1    2    0    0  0.95064017104E+02  0.11203902005E+03 -0.34957787815E+03  0.37920258735E+03  0.00000000000E+00 0. -1.
         11    1    1    2    0    0  0.71712063279E+02  0.21014482253E+01 -0.10269136834E+03  0.12526992152E+03  0.00000000000E+00 0.  1.
</event>
<event>
 7    1  0.2641580E-009  0.9421729E+02  0.7561462E-02  0.1292949E+00
          1   -1    0    0  501    0  0.00000000000E+00  0.00000000000E+00  0.15681064020E+03  0.15681064020E+03  0.00000000000E+00 0.  1.
         -1   -1    0    0    0  501 -0.00000000000E+00 -0.00000000000E+00 -0.20448429482E+03  0.20448429482E+03  0.00000000000E+00 0. -1.
         25    2    1    2    0    0  0.21928614623E+02  0.29839297260E+02 -0.16364732378E+03  0.20928256107E+03  0.12508995158E+03 0.  0.
          5    1    3    3  502    0  0.37322832464E+02  0.51794070307E+02 -0.26120998263E+02  0.69104258135E+02  0.41800000000E+01 0. -1.
         -5    1    3    3    0  502 -0.15394217841E+02 -0.21954773046E+02 -0.13752632552E+03  0.14017830293E+03  0.41800000000E+01 0. -1.
        -11    1    1    2    0    0  0.11743549318E+02  0.28016556728E+02  0.46434490625E+02  0.55488740489E+02  0.00000000000E+00 0.  1.
         11    1    1    2    0    0 -0.33672163941E+02 -0.57855853988E+02  0.69539178539E+02  0.96523633464E+02  0.00000000000E+00 0. -1.
</event>
<event>
 7    1  0.2641580E-009  0.5879677E+02  0.7561462E-02  0.1402952E+00
          1   -1    0    0  501    0  0.00000000000E+00  0.00000000000E+00  0.13118666957E+03  0.13118666957E+03  0.00000000000E+00 0. -1.
         -1   -1    0    0    0  501 -0.00000000000E+00 -0.00000000000E+00 -0.10075464287E+03  0.10075464287E+03  0.00000000000E+00 0.  1.
         25    2    1    2    0    0 -0.12738184297E+01  0.15214619242E+02  0.58310366299E+02  0.13885684404E+03  0.12509203439E+03 0.  0.
          5    1    3    3  502    0 -0.19592640242E+01  0.26572364622E+02  0.95764521010E+02  0.99489924924E+02  0.41800000000E+01 0.  1.
         -5    1    3    3    0  502  0.68544559452E+00 -0.11357745381E+02 -0.37454154711E+02  0.39366919119E+02  0.41800000000E+01 0.  1.
        -11    1    1    2    0    0  0.27884004374E+02  0.20034881959E+02 -0.34207699432E+02  0.48467317808E+02  0.00000000000E+00 0.  1.
         11    1    1    2    0    0 -0.26610185944E+02 -0.35249501200E+02  0.63293598414E+01  0.44617150591E+02  0.00000000000E+00 0. -1.
</event>
<event>
 7    1  0.2641580E-009  0.1036607E+03  0.7561462E-02  0.1272781E+00
         -1   -1    0    0    0  501 -0.00000000000E+00  0.00000000000E+00  0.14600842781E+03  0.14600842781E+03  0.00000000000E+00 0.  1.
          1   -1    0    0  501    0  0.00000000000E+00 -0.00000000000E+00 -0.13561154159E+03  0.13561154159E+03  0.00000000000E+00 0. -1.
         25    2    1    2    0    0 -0.32416871345E+02  0.54487427113E+02  0.67920603026E+02  0.15582269669E+03  0.12509105175E+03 0.  0.
          5    1    3    3  502    0  0.45284706033E+02  0.81888268055E+01  0.39869353057E+02  0.61031133023E+02  0.41800000000E+01 0. -1.
         -5    1    3    3    0  502 -0.77701577378E+02  0.46298600307E+02  0.28051249969E+02  0.94791563666E+02  0.41800000000E+01 0. -1.
        -11    1    1    2    0    0  0.21777954763E+02 -0.85214430645E+01  0.22787705238E+02  0.32652317154E+02  0.00000000000E+00 0.  1.
         11    1    1    2    0    0  0.10638916582E+02 -0.45965984048E+02 -0.80311422045E+02  0.93144955561E+02  0.00000000000E+00 0. -1.
</event>
<event>
 7    1  0.2641580E-009  0.1114232E+03  0.7561462E-02  0.1257957E+00
          2   -1    0    0  501    0  0.00000000000E+00  0.00000000000E+00  0.93609477229E+03  0.93609477229E+03  0.00000000000E+00 0. -1.
         -2   -1    0    0    0  501 -0.00000000000E+00 -0.00000000000E+00 -0.13453595410E+02  0.13453595410E+02  0.00000000000E+00 0.  1.
         25    2    1    2    0    0  0.95711614346E+01  0.32206616059E+01  0.50087940238E+03  0.51636716575E+03  0.12511152761E+03 0.  0.
          5    1    3    3  502    0  0.23185359015E+02 -0.57329650232E+02  0.28754815436E+03  0.29415244882E+03  0.41800000000E+01 0. -1.
         -5    1    3    3    0  502 -0.13614197580E+02  0.60550311838E+02  0.21333124802E+03  0.22221471693E+03  0.41800000000E+01 0. -1.
        -11    1    1    2    0    0  0.33926957249E+02  0.28918125841E+02  0.17893424929E+03  0.18440380148E+03  0.00000000000E+00 0.  1.
         11    1    1    2    0    0 -0.43498118684E+02 -0.32138787447E+02  0.24282752521E+03  0.24877740047E+03  0.00000000000E+00 0. -1.
</event>
<event>
 7    1  0.2641580E-009  0.9499443E+02  0.7561462E-02  0.1291189E+00
          1   -1    0    0  501    0  0.00000000000E+00  0.00000000000E+00  0.39947891305E+02  0.39947891305E+02  0.00000000000E+00 0. -1.
         -1   -1    0    0    0  501 -0.00000000000E+00 -0.00000000000E+00 -0.35843508866E+03  0.35843508866E+03  0.00000000000E+00 0.  1.
         25    2    1    2    0    0  0.28477555975E+02  0.40781398211E+02 -0.15273830321E+03  0.20359075378E+03  0.12508441999E+03 0.  0.
          5    1    3    3  502    0 -0.95330512067E+01 -0.20033355030E+02 -0.12429179083E+03  0.12632551622E+03  0.41800000000E+01 0.  1.
         -5    1    3    3    0  502  0.38010607182E+02  0.60814753241E+02 -0.28446512380E+02  0.77265237570E+02  0.41800000000E+01 0.  1.
        -11    1    1    2    0    0  0.17613801495E+02 -0.45934706579E+02 -0.50218833665E+02  0.70300601180E+02  0.00000000000E+00 0. -1.
         11    1    1    2    0    0 -0.46091357471E+02  0.51533083681E+01 -0.11553006048E+03  0.12449162500E+03  0.00000000000E+00 0.  1.
</event>
<event>
 7    1  0.2641580E-009  0.1661979E+03  0.7561462E-02  0.1181872E+00
          2   -1    0    0  501    0  0.00000000000E+00  0.00000000000E+00  0.19350463765E+03  0.19350463765E+03  0.00000000000E+00 0. -1.
         -2   -1    0    0    0  501 -0.00000000000E+00 -0.00000000000E+00 -0.18549026603E+03  0.18549026603E+03  0.00000000000E+00 0.  1.
         25    2    1    2    0    0  0.26984643564E+02  0.14920396340E+03 -0.25824326650E+02  0.19825208880E+03  0.12508797377E+03 0.  0.
          5    1    3    3  502    0  0.46703173172E+02  0.51536352193E+02  0.38476720841E+02  0.79593419504E+02  0.41800000000E+01 0.  1.
         -5    1    3    3    0  502 -0.19718529609E+02  0.97667611210E+02 -0.64301047491E+02  0.11865866929E+03  0.41800000000E+01 0.  1.
        -11    1    1    2    0    0 -0.46057884038E+02 -0.96044912336E+02 -0.13082176456E+02  0.10731773949E+03  0.00000000000E+00 0.  1.
         11    1    1    2    0    0  0.19073240474E+02 -0.53159051067E+02  0.46920874726E+02  0.73425075401E+02  0.00000000000E+00 0. -1.
</event>
<event>
 7    1  0.2641580E-009  0.1588664E+03  0.7561462E-02  0.1189983E+00
         -1   -1    0    0    0  501 -0.00000000000E+00  0.00000000000E+00  0.10737375976E+03  0.10737375976E+03  0.00000000000E+00 0.  1.
          1   -1    0    0  501    0  0.00000000000E+00 -0.00000000000E+00 -0.30099989453E+03  0.30099989453E+03  0.00000000000E+00 0. -1.
         25    2    1    2    0    0  0.76299005710E+02  0.10269452712E+03 -0.17457258561E+03  0.24996941044E+03  0.12506564011E+03 0.  0.
          5    1    3    3  502    0  0.11025520173E+03  0.86041316480E+02 -0.14726094079E+03  0.20313191461E+03  0.41800000000E+01 0.  1.
         -5    1    3    3    0  502 -0.33956196020E+02  0.16653210643E+02 -0.27311644818E+02  0.46837495829E+02  0.41800000000E+01 0.  1.
        -11    1    1    2    0    0 -0.22930653739E+02  0.12036021140E+01  0.24654155308E+02  0.33691110294E+02  0.00000000000E+00 0.  1.
         11    1    1    2    0    0 -0.53368351971E+02 -0.10389812924E+03 -0.43707704481E+02  0.12471313356E+03  0.00000000000E+00 0. -1.
</event>
<event>
 7    1  0.2641580E-009  0.1245860E+03  0.7561462E-02  0.1235718E+00
         -2   -1    0    0    0  501 -0.00000000000E+00  0.00000000000E+00  0.15545932286E+03  0.15545932286E+03  0.00000000000E+00 0.  1.
          2   -1    0    0  501    0  0.00000000000E+00 -0.00000000000E+00 -0.22297075718E+03  0.22297075718E+03  0.00000000000E+00 0. -1.
         25    2    1    2    0    0 -0.10374474001E+03 -0.20447311370E+02 -0.14382177858E+03  0.21797213607E+03  0.12508430951E+03 0.  0.
          5    1    3    3  502    0 -0.70565247974E+01 -0.10379615966E+02 -0.11602780452E+03  0.11677951358E+03  0.41800000000E+01 0. -1.
         -5    1    3    3    0  502 -0.96688215217E+02 -0.10067695404E+02 -0.27793974065E+02  0.10119262249E+03  0.41800000000E+01 0. -1.
        -11    1    1    2    0    0  0.68351933718E+02 -0.31918841255E+02  0.26402227788E+02  0.79924194723E+02  0.00000000000E+00 0.  1.
         11    1    1    2    0    0  0.35392806297E+02  0.52366152625E+02  0.49908116473E+02  0.80533749249E+02  0.00000000000E+00 0. -1.
</event>
<event>
 7    1  0.2641580E-009  0.3862002E+03  0.7561462E-02  0.1048666E+00
          1   -1    0    0  501    0  0.00000000000E+00  0.00000000000E+00  0.79434712326E+03  0.79434712326E+03  0.00000000000E+00 0. -1.
         -1   -1    0    0    0  501 -0.00000000000E+00 -0.00000000000E+00 -0.24183264629E+03  0.24183264629E+03  0.00000000000E+00 0.  1.
         25    2    1    2    0    0  0.29071625485E+03 -0.24788342681E+03  0.60351582789E+02  0.40651269191E+03  0.12509244986E+03 0.  0.
          5    1    3    3  502    0  0.14987023630E+03 -0.17357112351E+03 -0.15883312310E+02  0.22990818744E+03  0.41800000000E+01 0.  1.
         -5    1    3    3    0  502  0.14084601856E+03 -0.74312303305E+02  0.76234895099E+02  0.17660450446E+03  0.41800000000E+01 0.  1.
        -11    1    1    2    0    0 -0.71696784207E+02  0.41720647787E+02  0.16853952389E+03  0.18784731148E+03  0.00000000000E+00 0. -1.
         11    1    1    2    0    0 -0.21901947065E+03  0.20616277903E+03  0.32362337029E+03  0.44181976617E+03  0.00000000000E+00 0.  1.
</event>
<event>
 7    1  0.2641580E-009  0.7844053E+02  0.7561462E-02  0.1333536E+00
          1   -1    0    0  501    0  0.00000000000E+00  0.00000000000E+00  0.53985914407E+03  0.53985914407E+03  0.00000000000E+00 0. -1.
         -1   -1    0    0    0  501 -0.00000000000E+00 -0.00000000000E+00 -0.29297934769E+02  0.29297934769E+02  0.00000000000E+00 0.  1.
         25    2    1    2    0    0  0.30794144771E+01 -0.21374448771E+02  0.43277679014E+03  0.45100487462E+03  0.12507316658E+03 0.  0.
          5    1    3    3  502    0  0.46265285024E+02 -0.17303723730E+02  0.70885700466E+02  0.86499424181E+02  0.41800000000E+01 0. -1.
         -5    1    3    3    0  502 -0.43185870546E+02 -0.40707250417E+01  0.36189108967E+03  0.36450545044E+03  0.41800000000E+01 0. -1.
        -11    1    1    2    0    0  0.28241430783E+02  0.14148836941E+02 -0.24860454780E+01  0.31685145125E+02  0.00000000000E+00 0.  1.
         11    1    1    2    0    0 -0.31320845260E+02  0.72256118305E+01  0.80270464646E+02  0.86467059096E+02  0.00000000000E+00 0. -1.
</event>
<event>
 7    1  0.2641580E-009  0.1754139E+03  0.7561462E-02  0.1172317E+00
          1   -1    0    0  501    0  0.00000000000E+00  0.00000000000E+00  0.38077744906E+03  0.38077744906E+03  0.00000000000E+00 0. -1.
         -1   -1    0    0    0  501 -0.00000000000E+00 -0.00000000000E+00 -0.12786862919E+03  0.12786862919E+03  0.00000000000E+00 0.  1.
         25    2    1    2    0    0 -0.16276965708E+03  0.35866175337E+02  0.23199669874E+03  0.31184891661E+03  0.12508770829E+03 0.  0.
          5    1    3    3  502    0 -0.16924803599E+03  0.41766086772E+02  0.15217496768E+03  0.23143897010E+03  0.41800000000E+01 0.  1.
         -5    1    3    3    0  502  0.64783789163E+01 -0.58999114349E+01  0.79821731062E+02  0.80409946512E+02  0.41800000000E+01 0.  1.
        -11    1    1    2    0    0  0.93155919579E+02 -0.18082068688E+02 -0.39633866607E+02  0.10283885425E+03  0.00000000000E+00 0.  1.
         11    1    1    2    0    0  0.69613737499E+02 -0.17784106649E+02  0.60545987734E+02  0.93958307395E+02  0.00000000000E+00 0. -1.
</event>
<event>
 7    1  0.2641580E-009  0.1037828E+03  0.7561462E-02  0.1272536E+00
         -2   -1    0    0    0  501 -0.00000000000E+00  0.00000000000E+00  0.27064101351E+03  0.27064101351E+03  0.00000000000E+00 0.  1.
          2   -1    0    0  501    0  0.00000000000E+00 -0.00000000000E+00 -0.79132816958E+02  0.79132816958E+02  0.00000000000E+00 0. -1.
         25    2    1    2    0    0 -0.60125576267E+02 -0.31675306074E+02  0.18942374049E+02  0.14361295346E+03  0.12508979547E+03 0.  0.
          5    1    3    3  502    0 -0.53754810659E+02  0.35316666802E+02  0.36323748503E+02  0.73984685769E+02  0.41800000000E+01 0.  1.
         -5    1    3    3    0  502 -0.63707656077E+01 -0.66991972875E+02 -0.17381374454E+02  0.69628267694E+02  0.41800000000E+01 0.  1.
        -11    1    1    2    0    0  0.30371829994E+02  0.34305087443E+02  0.17013035981E+03  0.17619201574E+03  0.00000000000E+00 0.  1.
         11    1    1    2    0    0  0.29753746273E+02 -0.26297813690E+01  0.24354626976E+01  0.29968861271E+02  0.00000000000E+00 0. -1.
</event>
<event>
 7    1  0.2641580E-009  0.6889145E+02  0.7561462E-02  0.1363904E+00
          1   -1    0    0  501    0  0.00000000000E+00  0.00000000000E+00  0.60342762960E+03  0.60342762960E+03  0.00000000000E+00 0. -1.
         -1   -1    0    0    0  501 -0.00000000000E+00 -0.00000000000E+00 -0.30748709075E+02  0.30748709075E+02  0.00000000000E+00 0.  1.
         25    2    1    2    0    0 -0.69042377258E+01 -0.41712196446E+02  0.14961653286E+03  0.19955080610E+03  0.12509133256E+03 0.  0.
          5    1    3    3  502    0 -0.65981557680E+01 -0.95419674573E+01  0.16371425682E+03  0.16417799819E+03  0.41800000000E+01 0. -1.
         -5    1    3    3    0  502 -0.30608195776E+00 -0.32170228988E+02 -0.14097723958E+02  0.35372807919E+02  0.41800000000E+01 0. -1.
        -11    1    1    2    0    0  0.35435381738E+02 -0.74109054114E+01  0.94668422404E+02  0.10135431909E+03  0.00000000000E+00 0.  1.
         11    1    1    2    0    0 -0.28531144012E+02  0.49123101857E+02  0.32839396526E+03  0.33327121348E+03  0.00000000000E+00 0. -1.
</event>
<event>
 7    1  0.2641580E-009  0.3097235E+03  0.7561462E-02  0.1080478E+00
         -2   -1    0    0    0  501 -0.00000000000E+00  0.00000000000E+00  0.16170716684E+03  0.16170716684E+03  0.00000000000E+00 0.  1.
          2   -1    0    0  501    0  0.00000000000E+00 -0.00000000000E+00 -0.70778384480E+03  0.70778384480E+03  0.00000000000E+00 0. -1.
         25    2    1    2    0    0 -0.26857045452E+03  0.17507933060E+02 -0.93253872671E+02  0.31109446749E+03  0.12508743410E+03 0.  0.
          5    1    3    3  502    0 -0.47949701443E+02  0.54822555336E+02 -0.20669725724E+02  0.75824774339E+02  0.41800000000E+01 0.  1.
         -5    1    3    3    0  502 -0.22062075308E+03 -0.37314622276E+02 -0.72584146948E+02  0.23526969315E+03  0.41800000000E+01 0.  1.
        -11    1    1    2    0    0  0.26977835466E+03 -0.63126997062E+02 -0.41568745618E+03  0.49956124712E+03  0.00000000000E+00 0.  1.
         11    1    1    2    0    0 -0.12079001352E+01  0.45619064002E+02 -0.37135349107E+02  0.58835297028E+02  0.00000000000E+00 0. -1.
</event>
<event>
 7    1  0.2751521E-009  0.1614678E+03  0.7561462E-02  0.1187050E+00
         -2   -1    0    0    0  501 -0.00000000000E+00  0.00000000000E+00  0.29653880785E+02  0.29653880785E+02  0.00000000000E+00 0.  1.
          2   -1    0    0  501    0  0.00000000000E+00 -0.00000000000E+00 -0.11129288282E+04  0.11129288282E+04  0.00000000000E+00 0. -1.
         25    2    1    2    0    0  0.12002651837E+03 -0.54592797354E+02 -0.76491356143E+03  0.78620993590E+03  0.12508624307E+03 0.  0.
          5    1    3    3  502    0  0.87727047390E+02  0.26701729463E+02 -0.32784373571E+03  0.34045264669E+03  0.41800000000E+01 0.  1.
         -5    1    3    3    0  502  0.32299470983E+02 -0.81294526817E+02 -0.43706982573E+03  0.44575728920E+03  0.41800000000E+01 0.  1.
        -11    1    1    2    0    0 -0.90151742285E+02  0.11147841906E+02 -0.26983714869E+03  0.28471687310E+03  0.00000000000E+00 0. -1.
         11    1    1    2    0    0 -0.29874776089E+02  0.43444955448E+02 -0.48524237341E+02  0.71655900034E+02  0.00000000000E+00 0.  1.
</event>
<event>
 7    1  0.2641580E-009  0.1083798E+03  0.7561462E-02  0.1263600E+00
         -2   -1    0    0    0  501 -0.00000000000E+00  0.00000000000E+00  0.28210413711E+02  0.28210413711E+02  0.00000000000E+00 0.  1.
          2   -1    0    0  501    0  0.00000000000E+00 -0.00000000000E+00 -0.51867397218E+03  0.51867397218E+03  0.00000000000E+00 0. -1.
         25    2    1    2    0    0  0.19499837168E+02 -0.23408256628E+02 -0.17524435572E+03  0.21745665171E+03  0.12509444845E+03 0.  0.
          5    1    3    3  502    0  0.45247135242E+02  0.34823972810E+02 -0.46450319207E+02  0.73723245210E+02  0.41800000000E+01 0. -1.
         -5    1    3    3    0  502 -0.25747298074E+02 -0.58232229438E+02 -0.12879403651E+03  0.14373340650E+03  0.41800000000E+01 0. -1.
        -11    1    1    2    0    0  0.35572906793E+02  0.19314327419E+02 -0.13216630284E+03  0.13822592575E+03  0.00000000000E+00 0.  1.
         11    1    1    2    0    0 -0.55072743961E+02  0.40939292096E+01 -0.18305289991E+03  0.19120180843E+03  0.00000000000E+00 0. -1.
</event>
<event>
 7    1  0.2641580E-009  0.1169726E+03  0.7561462E-02  0.1248176E+00
         -2   -1    0    0    0  501 -0.00000000000E+00  0.00000000000E+00  0.21626795615E+03  0.21626795615E+03  0.00000000000E+00 0.  1.
          2   -1    0    0  501    0  0.00000000000E+00 -0.00000000000E+00 -0.90522589546E+02  0.90522589546E+02  0.00000000000E+00 0. -1.
         25    2    1    2    0    0  0.55784206715E+02  0.12204438037E+02  0.14279289748E+03  0.19823802820E+03  0.12509068001E+03 0.  0.
          5    1    3    3  502    0  0.58719506621E+02 -0.43177524349E+02  0.45069221252E+02  0.85796189723E+02  0.41800000000E+01 0.  1.
         -5    1    3    3    0  502 -0.29352999054E+01  0.55381962387E+02  0.97723676232E+02  0.11244183848E+03  0.41800000000E+01 0.  1.
        -11    1    1    2    0    0  0.23442754693E+02  0.56395891097E+01  0.45070326279E+01  0.24529187839E+02  0.00000000000E+00 0. -1.
         11    1    1    2    0    0 -0.79226961408E+02 -0.17844027147E+02 -0.21554563510E+02  0.84023329658E+02  0.00000000000E+00 0.  1.
</event>
<event>
 6    1  0.2641580E-009  0.2977141E+03  0.7561462E-02  0.1086389E+00
          2   -1    0    0  501    0  0.00000000000E+00  0.00000000000E+00  0.56337071062E+02  0.56337071062E+02  0.00000000000E+00 0. -1.
         -2   -1    0    0    0  501 -0.00000000000E+00 -0.00000000000E+00 -0.16508411396E+04  0.16508411396E+04  0.00000000000E+00 0.  1.
          5    1    1    2  502    0 -0.56137614259E+02 -0.74757302323E+02 -0.16203484011E+03  0.18711720337E+03  0.41800000000E+01 0.  1.
         -5    1    1    2    0  502  0.45231353767E+02 -0.20538340659E+03 -0.51414149151E+03  0.55550622388E+03  0.41800000000E+01 0.  1.
        -11    1    1    2    0    0 -0.32464664415E+02  0.73403028021E+02 -0.19114479071E+03  0.20731205940E+03  0.00000000000E+00 0. -1.
         11    1    1    2    0    0  0.43370924908E+02  0.20673768090E+03 -0.72718294617E+03  0.75724272399E+03  0.00000000000E+00 0.  1.
</event>
<event>
 7    1  0.2641580E-009  0.1250643E+03  0.7561462E-02  0.1234969E+00
          1   -1    0    0  501    0  0.00000000000E+00  0.00000000000E+00  0.21399278286E+02  0.21399278286E+02  0.00000000000E+00 0. -1.
         -1   -1    0    0    0  501 -0.00000000000E+00 -0.00000000000E+00 -0.77432817048E+03  0.77432817048E+03  0.00000000000E+00 0.  1.
         25    2    1    2    0    0  0.31042680101E+02  0.64377655510E+02 -0.38091457450E+03  0.40725051996E+03  0.12509573304E+03 0.  0.
          5    1    3    3  502    0 -0.26546375305E+02 -0.22832476165E+02 -0.14436303594E+03  0.14860750504E+03  0.41800000000E+01 0. -1.
         -5    1    3    3    0  502  0.57589055405E+02  0.87210131675E+02 -0.23655153856E+03  0.25864301491E+03  0.41800000000E+01 0. -1.
        -11    1    1    2    0    0  0.10738998549E+02 -0.67524181582E+02 -0.26136242138E+03  0.27015765119E+03  0.00000000000E+00 0. -1.
         11    1    1    2    0    0 -0.41781678649E+02  0.31465260721E+01 -0.11065189632E+03  0.11831927762E+03  0.00000000000E+00 0.  1.
</event>
<event>
 7    1  0.2641580E-009  0.2126180E+03  0.7561462E-02  0.1139509E+00
          2   -1    0    0  501    0  0.00000000000E+00  0.00000000000E+00  0.31279278007E+03  0.31279278007E+03  0.00000000000E+00 0. -1.
         -2   -1    0    0    0  501 -0.00000000000E+00 -0.00000000000E+00 -0.16499485075E+03  0.16499485075E+03  0.00000000000E+00 0.  1.
         25    2    1    2    0    0  0.17448331092E+03 -0.72609310593E+02  0.14291917165E+03  0.26793677822E+03  0.12509072597E+03 0.  0.
          5    1    3    3  502    0  0.11557605964E+03  0.94211099157E+01  0.11432452781E+03  0.16289307209E+03  0.41800000000E+01 0. -1.
         -5    1    3    3    0  502  0.58907251280E+02 -0.82030420509E+02  0.28594643833E+02  0.10504370613E+03  0.41800000000E+01 0. -1.
        -11    1    1    2    0    0 -0.36124057057E+02 -0.20326419081E+02  0.11594814077E+02  0.43041265367E+02  0.00000000000E+00 0. -1.
         11    1    1    2    0    0 -0.13835925386E+03  0.92935729674E+02 -0.67160564094E+01  0.16680958723E+03  0.00000000000E+00 0.  1.
</event>
<event>
 7    1  0.2641580E-009  0.1706803E+03  0.7561462E-02  0.1177140E+00
          1   -1    0    0  501    0  0.00000000000E+00  0.00000000000E+00  0.67521111905E+03  0.67521111905E+03  0.00000000000E+00 0. -1.
         -1   -1    0    0    0  501 -0.00000000000E+00 -0.00000000000E+00 -0.52517630823E+02  0.52517630823E+02  0.00000000000E+00 0.  1.
         25    2    1    2    0    0  0.12469102301E+03 -0.77588289561E+02  0.40111499643E+03  0.44507717331E+03  0.12503062003E+03 0.  0.
          5    1    3    3  502    0  0.13029555742E+03 -0.20345460061E+02  0.23885036920E+03  0.27286964158E+03  0.41800000000E+01 0. -1.
         -5    1    3    3    0  502 -0.56045344089E+01 -0.57242829500E+02  0.16226462722E+03  0.17220753173E+03  0.41800000000E+01 0. -1.
        -11    1    1    2    0    0 -0.18099643854E+02 -0.27073491272E+01 -0.56326736145E+01  0.19148207722E+02  0.00000000000E+00 0.  1.
         11    1    1    2    0    0 -0.10659137916E+03  0.80295638688E+02  0.22721116541E+03  0.26350336884E+03  0.00000000000E+00 0. -1.
</event>
<event>
 7    1  0.2641580E-009  0.9115925E+02  0.7561462E-02  0.1300068E+00
          4   -1    0    0  501    0  0.00000000000E+00  0.00000000000E+00  0.12862979846E+03  0.12862979846E+03  0.00000000000E+00 0. -1.
         -4   -1    0    0    0  501 -0.00000000000E+00 -0.00000000000E+00 -0.18385695521E+03  0.18385695521E+03  0.00000000000E+00 0.  1.
         25    2    1    2    0    0 -0.33165147479E+02  0.23854061366E+02  0.71688630212E+02  0.14984228704E+03  0.12507800779E+03 0.  0.
          5    1    3    3  502    0 -0.51463440286E+02  0.31840841925E+02  0.98786586490E+02  0.11592491954E+03  0.41800000000E+01 0. -1.
         -5    1    3    3    0  502  0.18298292807E+02 -0.79867805590E+01 -0.27097956278E+02  0.33917367495E+02  0.41800000000E+01 0. -1.
        -11    1    1    2    0    0  0.51936616820E+02  0.18338424999E+02 -0.76634410889E+02  0.94374482412E+02  0.00000000000E+00 0. -1.
         11    1    1    2    0    0 -0.18771469341E+02 -0.42192486365E+02 -0.50281376066E+02  0.68269984224E+02  0.00000000000E+00 0.  1.
</event>
<event>
 7    1  0.2641580E-009  0.9999575E+02  0.7561462E-02  0.1280305E+00
          1   -1    0    0  501    0  0.00000000000E+00  0.00000000000E+00  0.39705659502E+02  0.39705659502E+02  0.00000000000E+00 0. -1.
         -1   -1    0    0    0  501 -0.00000000000E+00 -0.00000000000E+00 -0.40355478533E+03  0.40355478533E+03  0.00000000000E+00 0.  1.
         25    2    1    2    0    0 -0.47880795093E+02 -0.21868286125E+02 -0.18081944711E+03  0.22608380058E+03  0.12508964767E+03 0.  0.
          5    1    3    3  502    0 -0.75886047406E+02  0.13604305014E+02 -0.62427081421E+02  0.99289386143E+02  0.41800000000E+01 0.  1.
         -5    1    3    3    0  502  0.28005252313E+02 -0.35472591139E+02 -0.11839236568E+03  0.12679441443E+03  0.41800000000E+01 0.  1.
        -11    1    1    2    0    0  0.33653267951E+02 -0.15764009359E+02 -0.17127834522E+03  0.17526356716E+03  0.00000000000E+00 0.  1.
         11    1    1    2    0    0  0.14227527142E+02  0.37632295484E+02 -0.11751333503E+02  0.41913077089E+02  0.00000000000E+00 0. -1.
</event>
<event>
 7    1  0.2641580E-009  0.9261253E+02  0.7561462E-02  0.1296646E+00
         -2   -1    0    0    0  501 -0.00000000000E+00  0.00000000000E+00  0.14473796600E+03  0.14473796600E+03  0.00000000000E+00 0. -1.
          2   -1    0    0  501    0  0.00000000000E+00 -0.00000000000E+00 -0.11493965805E+03  0.11493965805E+03  0.00000000000E+00 0.  1.
         25    2    1    2    0    0 -0.46045357461E+01  0.44199354813E+02  0.68574076734E+02  0.14941644618E+03  0.12509230861E+03 0.  0.
          5    1    3    3  502    0 -0.93026639016E+01 -0.26594864126E+02 -0.20769453597E+02  0.35251509986E+02  0.41800000000E+01 0.  1.
         -5    1    3    3    0  502  0.46981281556E+01  0.70794218939E+02  0.89343530332E+02  0.11416493619E+03  0.41800000000E+01 0.  1.
        -11    1    1    2    0    0 -0.28773922562E+02  0.18057277531E+01 -0.44619348434E+02  0.53123304933E+02  0.00000000000E+00 0.  1.
         11    1    1    2    0    0  0.33378458308E+02 -0.46005082566E+02  0.58435796523E+01  0.57137872940E+02  0.00000000000E+00 0. -1.
</event>
<event>
 7    1  0.2641580E-009  0.9433777E+02  0.7561462E-02  0.1292675E+00
          3   -1    0    0  501    0  0.00000000000E+00  0.00000000000E+00  0.93453397380E+02  0.93453397380E+02  0.00000000000E+00 0. -1.
         -3   -1    0    0    0  501 -0.00000000000E+00 -0.00000000000E+00 -0.16619818700E+03  0.16619818700E+03  0.00000000000E+00 0.  1.
         25    2    1    2    0    0  0.45184488548E+02 -0.29627378911E+02 -0.67710078586E+02  0.15215511702E+03  0.12508838998E+03 0.  0.
          5    1    3    3  502    0  0.71924328414E+02 -0.12141471842E+02 -0.87769649189E+02  0.11419942239E+03  0.41800000000E+01 0. -1.
         -5    1    3    3    0  502 -0.26739839865E+02 -0.17485907069E+02  0.20059570603E+02  0.37955694630E+02  0.41800000000E+01 0. -1.
        -11    1    1    2    0    0 -0.58454730780E+02  0.36020933818E+02 -0.32778495080E+02  0.76084774846E+02  0.00000000000E+00 0.  1.
         11    1    1    2    0    0  0.13270242232E+02 -0.63935549064E+01  0.27743784045E+02  0.31411692511E+02  0.00000000000E+00 0. -1.
</event>
<event>
 7    1  0.2641580E-009  0.8274147E+02  0.7561462E-02  0.1321447E+00
          2   -1    0    0  501    0  0.00000000000E+00  0.00000000000E+00  0.19281772754E+03  0.19281772754E+03  0.00000000000E+00 0. -1.
         -2   -1    0    0    0  501 -0.00000000000E+00 -0.00000000000E+00 -0.73338684962E+02  0.73338684962E+02  0.00000000000E+00 0.  1.
         25    2    1    2    0    0 -0.15803666339E+02 -0.31397796116E+02  0.10522594754E+03  0.16719859462E+03  0.12508913836E+03 0.  0.
          5    1    3    3  502    0 -0.16410714642E+02 -0.63397801366E+02  0.11591225214E+03  0.13319803065E+03  0.41800000000E+01 0. -1.
         -5    1    3    3    0  502  0.60704830296E+00  0.32000005250E+02 -0.10686304606E+02  0.34000563962E+02  0.41800000000E+01 0. -1.
        -11    1    1    2    0    0  0.27580521221E+02  0.42979081857E+02  0.42364943649E+02  0.66352656906E+02  0.00000000000E+00 0. -1.
         11    1    1    2    0    0 -0.11776854882E+02 -0.11581285741E+02 -0.28111848609E+02  0.32605160980E+02  0.00000000000E+00 0.  1.
</event>
<event>
 7    1  0.2641580E-009  0.1184787E+03  0.7561462E-02  0.1245628E+00
         -1   -1    0    0    0  501 -0.00000000000E+00  0.00000000000E+00  0.39877683035E+03  0.39877683035E+03  0.00000000000E+00 0.  1.
          1   -1    0    0  501    0  0.00000000000E+00 -0.00000000000E+00 -0.35712087082E+02  0.35712087082E+02  0.00000000000E+00 0. -1.
         25    2    1    2    0    0 -0.47814561770E+02  0.18813425949E+02  0.20533841828E+03  0.24586870588E+03  0.12508947676E+03 0.  0.
          5    1    3    3  502    0  0.41564618167E+02  0.18282626422E+02  0.63860110591E+02  0.78469472007E+02  0.41800000000E+01 0. -1.
         -5    1    3    3    0  502 -0.89379179937E+02  0.53079952684E+00  0.14147830769E+03  0.16739923387E+03  0.41800000000E+01 0. -1.
        -11    1    1    2    0    0  0.35928663022E+02  0.32961217225E+02  0.59275269309E+02  0.76751991630E+02  0.00000000000E+00 0. -1.
         11    1    1    2    0    0  0.11885898748E+02 -0.51774643174E+02  0.98451055678E+02  0.11186821992E+03  0.00000000000E+00 0.  1.
</event>
<event>
 7    1  0.2641580E-009  0.1286414E+03  0.7561462E-02  0.1229486E+00
          1   -1    0    0  501    0  0.00000000000E+00  0.00000000000E+00  0.31284233727E+03  0.31284233727E+03  0.00000000000E+00 0. -1.
         -1   -1    0    0    0  501 -0.00000000000E+00 -0.00000000000E+00 -0.10716729292E+03  0.10716729292E+03  0.00000000000E+00 0.  1.
         25    2    1    2    0    0  0.39679937675E+02 -0.58915907499E+02  0.25602635247E+03  0.29366925575E+03  0.12508619829E+03 0.  0.
          5    1    3    3  502    0  0.19092484155E+02 -0.96512952421E+02  0.15235336028E+03  0.18140642691E+03  0.41800000000E+01 0.  1.
         -5    1    3    3    0  502  0.20587453520E+02  0.37597044922E+02  0.10367299219E+03  0.11226282884E+03  0.41800000000E+01 0.  1.
        -11    1    1    2    0    0 -0.68931390941E+02  0.32018615294E+02 -0.35893362185E+02  0.84053922165E+02  0.00000000000E+00 0.  1.
         11    1    1    2    0    0  0.29251453266E+02  0.26897292205E+02 -0.14457945931E+02  0.42286452283E+02  0.00000000000E+00 0. -1.
</event>
<event>
 7    1  0.2641580E-009  0.1117493E+03  0.7561462E-02  0.1257364E+00
          3   -1    0    0  501    0  0.00000000000E+00  0.00000000000E+00  0.22614640819E+03  0.22614640819E+03  0.00000000000E+00 0. -1.
         -3   -1    0    0    0  501 -0.00000000000E+00 -0.00000000000E+00 -0.12155060056E+03  0.12155060056E+03  0.00000000000E+00 0.  1.
         25    2    1    2    0    0  0.85126089752E+02  0.25548730437E+02 -0.37027706885E+02  0.15785532696E+03  0.12509222354E+03 0.  0.
          5    1    3    3  502    0  0.39785222323E+02  0.31816369056E+02  0.42185026576E+02  0.66273630672E+02  0.41800000000E+01 0.  1.
         -5    1    3    3    0  502  0.45340867428E+02 -0.62676386188E+01 -0.79212733460E+02  0.91581696290E+02  0.41800000000E+01 0.  1.
        -11    1    1    2    0    0 -0.94656429247E+02 -0.44964801592E+02  0.11732293613E+03  0.15730970829E+03  0.00000000000E+00 0.  1.
         11    1    1    2    0    0  0.95303394954E+01  0.19416071154E+02  0.24300578381E+02  0.32531973497E+02  0.00000000000E+00 0. -1.
</event>
<event>
 7    1  0.2641580E-009  0.2269066E+03  0.7561462E-02  0.1128836E+00
          1   -1    0    0  501    0  0.00000000000E+00  0.00000000000E+00  0.23799068093E+03  0.23799068093E+03  0.00000000000E+00 0.  1.
         -1   -1    0    0    0  501 -0.00000000000E+00 -0.00000000000E+00 -0.26614345402E+03  0.26614345402E+03  0.00000000000E+00 0. -1.
         25    2    1    2    0    0  0.20092597141E+03 -0.94701381715E+02  0.30388938667E+02  0.25672665322E+03  0.12508192992E+03 0.  0.
          5    1    3    3  502    0  0.90875984758E+02 -0.68839299058E+02  0.73450815745E+02  0.13568267551E+03  0.41800000000E+01 0.  1.
         -5    1    3    3    0  502  0.11004998665E+03 -0.25862082657E+02 -0.43061877078E+02  0.12104397771E+03  0.41800000000E+01 0.  1.
        -11    1    1    2    0    0 -0.31790565009E+02 -0.18640770681E+01  0.19780400881E+02  0.37488385748E+02  0.00000000000E+00 0.  1.
         11    1    1    2    0    0 -0.16913540640E+03  0.96565458783E+02 -0.78322112646E+02  0.20991909598E+03  0.00000000000E+00 0. -1.
</event>
<event>
 7    1  0.2641580E-009  0.1530672E+03  0.7561462E-02  0.1196754E+00
         -2   -1    0    0    0  501 -0.00000000000E+00  0.00000000000E+00  0.63229130029E+02  0.63229130029E+02  0.00000000000E+00 0. -1.
          2   -1    0    0  501    0  0.00000000000E+00 -0.00000000000E+00 -0.41805879085E+03  0.41805879085E+03  0.00000000000E+00 0.  1.
         25    2    1    2    0    0  0.91516108524E+02 -0.74757695833E+02 -0.14455288917E+03  0.22473725248E+03  0.12508950267E+03 0.  0.
          5    1    3    3  502    0  0.93902890153E+02 -0.43431236346E+01 -0.11403039376E+03  0.14784119386E+03  0.41800000000E+01 0. -1.
         -5    1    3    3    0  502 -0.23867816290E+01 -0.70414572198E+02 -0.30522495415E+02  0.76896058616E+02  0.41800000000E+01 0. -1.
        -11    1    1    2    0    0 -0.63699406987E+02  0.21834663716E+01 -0.13016561052E+03  0.14493263310E+03  0.00000000000E+00 0.  1.
         11    1    1    2    0    0 -0.27816701537E+02  0.72574229461E+02 -0.80111161124E+02  0.11161803529E+03  0.00000000000E+00 0. -1.
</event>
<event>
 7    1  0.2641580E-009  0.1221818E+03  0.7561462E-02  0.1239541E+00
         -2   -1    0    0    0  501 -0.00000000000E+00  0.00000000000E+00  0.10707627464E+03  0.10707627464E+03  0.00000000000E+00 0.  1.
          2   -1    0    0  501    0  0.00000000000E+00 -0.00000000000E+00 -0.25299487541E+03  0.25299487541E+03  0.00000000000E+00 0. -1.
         25    2    1    2    0    0  0.10692675189E+03  0.51443445943E+01 -0.15811250268E+03  0.22826797739E+03  0.12508761508E+03 0.  0.
          5    1    3    3  502    0  0.67971701866E+02 -0.14694819634E+02 -0.16919413126E+03  0.18297599960E+03  0.41800000000E+01 0. -1.
         -5    1    3    3    0  502  0.38955050028E+02  0.19839164228E+02  0.11081628578E+02  0.45291977787E+02  0.41800000000E+01 0. -1.
        -11    1    1    2    0    0 -0.57377219726E+02 -0.40222364389E+02  0.12012958531E+02  0.71093565906E+02  0.00000000000E+00 0. -1.
         11    1    1    2    0    0 -0.49549532168E+02  0.35078019795E+02  0.18094337660E+00  0.60709606746E+02  0.00000000000E+00 0.  1.
</event>
<event>
 7    1  0.2641580E-009  0.9614096E+02  0.7561462E-02  0.1288627E+00
          2   -1    0    0  501    0  0.00000000000E+00  0.00000000000E+00  0.14268438247E+03  0.14268438247E+03  0.00000000000E+00 0. -1.
         -2   -1    0    0    0  501 -0.00000000000E+00 -0.00000000000E+00 -0.94117294408E+02  0.94117294408E+02  0.00000000000E+00 0.  1.
         25    2    1    2    0    0 -0.20488834184E+02  0.27246640357E+02  0.12989703339E+02  0.13030588110E+03  0.12509483810E+03 0.  0.
          5    1    3    3  502    0 -0.69695014070E+02  0.27715409380E+01  0.24415913939E+02  0.74018144254E+02  0.41800000000E+01 0. -1.
         -5    1    3    3    0  502  0.49206179886E+02  0.24475099419E+02 -0.11426210600E+02  0.56287736846E+02  0.41800000000E+01 0. -1.
        -11    1    1    2    0    0  0.40553636129E+02 -0.12658212452E+02  0.58782129918E+02  0.72527005615E+02  0.00000000000E+00 0. -1.
         11    1    1    2    0    0 -0.20064801945E+02 -0.14588427906E+02 -0.23204745192E+02  0.33968790165E+02  0.00000000000E+00 0.  1.
</event>
<event>
 7    1  0.2641580E-009  0.1051461E+03  0.7561462E-02  0.1269832E+00
          2   -1    0    0  501    0  0.00000000000E+00  0.00000000000E+00  0.26041616702E+03  0.26041616702E+03  0.00000000000E+00 0. -1.
         -2   -1    0    0    0  501 -0.00000000000E+00 -0.00000000000E+00 -0.64668408924E+02  0.64668408924E+02  0.00000000000E+00 0.  1.
         25    2    1    2    0    0 -0.61727754030E+02 -0.49794588452E+01  0.59586158230E+02  0.15177427574E+03  0.12509920022E+03 0.  0.
          5    1    3    3  502    0 -0.38441097653E+02 -0.63075737032E+02  0.16874043175E+02  0.75884598727E+02  0.41800000000E+01 0.  1.
         -5    1    3    3    0  502 -0.23286656376E+02  0.58096278187E+02  0.42712115055E+02  0.75889677011E+02  0.41800000000E+01 0.  1.
        -11    1    1    2    0    0  0.45421821022E+02 -0.14958808063E+02  0.16012227054E+02  0.50431133031E+02  0.00000000000E+00 0.  1.
         11    1    1    2    0    0  0.16305933008E+02  0.19938266908E+02  0.12014937281E+03  0.12287916718E+03  0.00000000000E+00 0. -1.
</event>
<event>
 7    1  0.2641580E-009  0.8529267E+02  0.7561462E-02  0.1314669E+00
         -2   -1    0    0    0  501 -0.00000000000E+00  0.00000000000E+00  0.84714904615E+02  0.84714904615E+02  0.00000000000E+00 0.  1.
          2   -1    0    0  501    0  0.00000000000E+00 -0.00000000000E+00 -0.17411021394E+03  0.17411021394E+03  0.00000000000E+00 0. -1.
         25    2    1    2    0    0 -0.34735770327E+02 -0.39907913372E+02 -0.69610504586E+02  0.15261584280E+03  0.12508700106E+03 0.  0.
          5    1    3    3  502    0 -0.14788672439E+01  0.16595981456E+02 -0.83682980630E+02  0.85427907009E+02  0.41800000000E+01 0. -1.
         -5    1    3    3    0  502 -0.33256903083E+02 -0.56503894828E+02  0.14072476044E+02  0.67187935788E+02  0.41800000000E+01 0. -1.
        -11    1    1    2    0    0  0.55752244834E+02  0.35910069144E+02  0.12495693589E+02  0.67483244055E+02  0.00000000000E+00 0.  1.
         11    1    1    2    0    0 -0.21016474507E+02  0.39978442286E+01 -0.32280498333E+02  0.38726031707E+02  0.00000000000E+00 0. -1.
</event>
<event>
 7    1  0.2641580E-009  0.1677314E+03  0.7561462E-02  0.1180235E+00
          2   -1    0    0  501    0  0.00000000000E+00  0.00000000000E+00  0.17169991083E+03  0.17169991083E+03  0.00000000000E+00 0. -1.
         -2   -1    0    0    0  501 -0.00000000000E+00 -0.00000000000E+00 -0.40142505076E+03  0.40142505076E+03  0.00000000000E+00 0.  1.
         25    2    1    2    0    0  0.82930829097E+02 -0.13351195363E+03 -0.31505835377E+03  0.37363908083E+03  0.12506571177E+03 0.  0.
          5    1    3    3  502    0  0.16831770838E+02 -0.68625293951E+02 -0.25138920153E+03  0.26116420605E+03  0.41800000000E+01 0.  1.
         -5    1    3    3    0  502  0.66099058259E+02 -0.64886659680E+02 -0.63669152248E+02  0.11247487477E+03  0.41800000000E+01 0.  1.
        -11    1    1    2    0    0 -0.37949045852E+01  0.71031109953E+02  0.63693873501E+01  0.71417007619E+02  0.00000000000E+00 0.  1.
         11    1    1    2    0    0 -0.79135924512E+02  0.62480843678E+02  0.78963826492E+02  0.12806887315E+03  0.00000000000E+00 0. -1.
</event>
<event>
 7    1  0.2641580E-009  0.1012192E+03  0.7561462E-02  0.1277753E+00
         -1   -1    0    0    0  501 -0.00000000000E+00  0.00000000000E+00  0.23866906958E+03  0.23866906958E+03  0.00000000000E+00 0.  1.
          1   -1    0    0  501    0  0.00000000000E+00 -0.00000000000E+00 -0.74522164855E+02  0.74522164855E+02  0.00000000000E+00 0. -1.
         25    2    1    2    0    0  0.66963986099E+02 -0.15104387216E+02  0.13930171985E+03  0.19941023983E+03  0.12508859520E+03 0.  0.
          5    1    3    3  502    0  0.44178054966E+02  0.39135201623E+02  0.12563173464E+03  0.13886709364E+03  0.41800000000E+01 0. -1.
         -5    1    3    3    0  502  0.22785931133E+02 -0.54239588839E+02  0.13669985208E+02  0.60543146190E+02  0.41800000000E+01 0. -1.
        -11    1    1    2    0    0 -0.28785620362E+02 -0.17838866157E+02 -0.25601185555E+02  0.42453006810E+02  0.00000000000E+00 0. -1.
         11    1    1    2    0    0 -0.38178365737E+02  0.32943253373E+02  0.50446370426E+02  0.71327987791E+02  0.00000000000E+00 0.  1.
</event>
<event>
 7    1  0.2641580E-009  0.1211295E+03  0.7561462E-02  0.1241245E+00
         -2   -1    0    0    0  501 -0.00000000000E+00  0.00000000000E+00  0.38058522052E+03  0.38058522052E+03  0.00000000000E+00 0.  1.
          2   -1    0    0  501    0  0.00000000000E+00 -0.00000000000E+00 -0.71852585198E+02  0.71852585198E+02  0.00000000000E+00 0. -1.
         25    2    1    2    0    0 -0.51378967046E+02 -0.62892936086E+02  0.29381443874E+03  0.32949944838E+03  0.12509053683E+03 0.  0.
          5    1    3    3  502    0 -0.63455549951E+02 -0.18766517783E+01  0.23618166883E+03  0.24460045325E+03  0.41800000000E+01 0. -1.
         -5    1    3    3    0  502  0.12076582905E+02 -0.61016284308E+02  0.57632769917E+02  0.84898995128E+02  0.41800000000E+01 0. -1.
        -11    1    1    2    0    0  0.19969659133E+02  0.78658601474E+02  0.27383132164E+02  0.85649277866E+02  0.00000000000E+00 0.  1.
         11    1    1    2    0    0  0.31409307913E+02 -0.15765665389E+02 -0.12464935586E+02  0.37289079472E+02  0.00000000000E+00 0. -1.
</event>
<event>
 7    1  0.2641580E-009  0.1341688E+03  0.7561462E-02  0.1221398E+00
         -2   -1    0    0    0  501 -0.00000000000E+00  0.00000000000E+00  0.13110290065E+03  0.13110290065E+03  0.00000000000E+00 0.  1.
          2   -1    0    0  501    0  0.00000000000E+00 -0.00000000000E+00 -0.22515788278E+03  0.22515788278E+03  0.00000000000E+00 0. -1.
         25    2    1    2    0    0 -0.10240629371E+03 -0.20209971183E+02  0.36064488870E+02  0.16686756029E+03  0.12509453781E+03 0.  0.
          5    1    3    3  502    0 -0.12261097602E+03 -0.44973704038E+02  0.27755050111E+02  0.13358106416E+03  0.41800000000E+01 0. -1.
         -5    1    3    3    0  502  0.20204682304E+02  0.24763732855E+02  0.83094387590E+01  0.33286496127E+02  0.41800000000E+01 0. -1.
        -11    1    1    2    0    0  0.66845638519E+02  0.58942598349E+01 -0.15970298800E+02  0.68979215216E+02  0.00000000000E+00 0.  1.
         11    1    1    2    0    0  0.35560655196E+02  0.14315711348E+02 -0.11414917220E+03  0.12041400792E+03  0.00000000000E+00 0. -1.
</event>
<event>
 7    1  0.2641580E-009  0.3760089E+03  0.7561462E-02  0.1052419E+00
          2   -1    0    0  501    0  0.00000000000E+00  0.00000000000E+00  0.24588897250E+04  0.24588897250E+04  0.00000000000E+00 0. -1.
         -2   -1    0    0    0  501 -0.00000000000E+00 -0.00000000000E+00 -0.58613851677E+02  0.58613851677E+02  0.00000000000E+00 0.  1.
         25    2    1    2    0    0 -0.10409555274E+03 -0.34811600051E+03  0.11821017274E+04  0.12429928584E+04  0.12508444470E+03 0.  0.
          5    1    3    3  502    0 -0.49743249404E+02 -0.23746245457E+02  0.16151649999E+03  0.17071416814E+03  0.41800000000E+01 0.  1.
         -5    1    3    3    0  502 -0.54352303337E+02 -0.32436975505E+03  0.10205852274E+04  0.10722786903E+04  0.41800000000E+01 0.  1.
        -11    1    1    2    0    0  0.56551132790E+02  0.27393225660E+03  0.81000074790E+03  0.85693530877E+03  0.00000000000E+00 0.  1.
         11    1    1    2    0    0  0.47544419950E+02  0.74183743911E+02  0.40817339803E+03  0.41757540947E+03  0.00000000000E+00 0. -1.
</event>
<event>
 7    1  0.2641580E-009  0.1606724E+03  0.7561462E-02  0.1187940E+00
          2   -1    0    0  501    0  0.00000000000E+00  0.00000000000E+00  0.62041736627E+03  0.62041736627E+03  0.00000000000E+00 0. -1.
         -2   -1    0    0    0  501 -0.00000000000E+00 -0.00000000000E+00 -0.53488640007E+02  0.53488640007E+02  0.00000000000E+00 0.  1.
         25    2    1    2    0    0  0.17092309492E+01  0.14342339953E+03  0.34419778269E+03  0.39331174930E+03  0.12509526581E+03 0.  0.
          5    1    3    3  502    0 -0.35354762776E+02  0.13484677619E+03  0.31710712161E+03  0.34642172460E+03  0.41800000000E+01 0. -1.
         -5    1    3    3    0  502  0.37063993725E+02  0.85766233419E+01  0.27090661074E+02  0.46890024699E+02  0.41800000000E+01 0. -1.
        -11    1    1    2    0    0 -0.39264930629E+01 -0.12287907178E+03  0.10684960523E+03  0.16288499553E+03  0.00000000000E+00 0.  1.
         11    1    1    2    0    0  0.22172621137E+01 -0.20544327745E+02  0.11588133835E+03  0.11770926145E+03  0.00000000000E+00 0. -1.
</event>
<event>
 7    1  0.2641580E-009  0.9353213E+02  0.7561462E-02  0.1294517E+00
         -1   -1    0    0    0  501 -0.00000000000E+00  0.00000000000E+00  0.35909002809E+02  0.35909002809E+02  0.00000000000E+00 0. -1.
          1   -1    0    0  501    0  0.00000000000E+00 -0.00000000000E+00 -0.42682797299E+03  0.42682797299E+03  0.00000000000E+00 0.  1.
         25    2    1    2    0    0 -0.41321247203E+01 -0.31960529367E+02 -0.31074276685E+03  0.33652098051E+03  0.12508698285E+03 0.  0.
          5    1    3    3  502    0  0.23748467281E+02 -0.52690452226E+02 -0.29023113970E+03  0.29595922068E+03  0.41800000000E+01 0. -1.
         -5    1    3    3    0  502 -0.27880592001E+02  0.20729922859E+02 -0.20511627157E+02  0.40561759833E+02  0.41800000000E+01 0. -1.
        -11    1    1    2    0    0  0.41351008774E+02 -0.50238089374E+01 -0.19481759034E+02  0.45985688185E+02  0.00000000000E+00 0. -1.
         11    1    1    2    0    0 -0.37218884053E+02  0.36984338304E+02 -0.60694444297E+02  0.80230307107E+02  0.00000000000E+00 0.  1.
</event>
<event>
 7    1  0.2641580E-009  0.1341760E+03  0.7561462E-02  0.1221388E+00
          1   -1    0    0  501    0  0.00000000000E+00  0.00000000000E+00  0.62732534068E+03  0.62732534068E+03  0.00000000000E+00 0. -1.
         -1   -1    0    0    0  501 -0.00000000000E+00 -0.00000000000E+00 -0.29254823358E+02  0.29254823358E+02  0.00000000000E+00 0.  1.
         25    2    1    2    0    0 -0.70370389979E+02  0.38176150640E+02  0.30542959364E+03  0.33962329136E+03  0.12508930050E+03 0.  0.
          5    1    3    3  502    0  0.98109269362E+01 -0.36529927737E+02  0.94793658330E+02  0.10214695281E+03  0.41800000000E+01 0. -1.
         -5    1    3    3    0  502 -0.80181316915E+02  0.74706078377E+02  0.21063593531E+03  0.23747633855E+03  0.41800000000E+01 0. -1.
        -11    1    1    2    0    0  0.80251312619E+02  0.96605093517E+00  0.17353158367E+03  0.19119209440E+03  0.00000000000E+00 0.  1.
         11    1    1    2    0    0 -0.98809226397E+01 -0.39142201575E+02  0.11910934001E+03  0.12576477828E+03  0.00000000000E+00 0. -1.
</event>
<event>
 7    1  0.2641580E-009  0.1174516E+03  0.7561462E-02  0.1247361E+00
         -3   -1    0    0    0  501 -0.00000000000E+00  0.00000000000E+00  0.63361497335E+02  0.63361497335E+02  0.00000000000E+00 0.  1.
          3   -1    0    0  501    0  0.00000000000E+00 -0.00000000000E+00 -0.25155908637E+03  0.25155908637E+03  0.00000000000E+00 0. -1.
         25    2    1    2    0    0 -0.35187623279E+02 -0.40654106352E+02 -0.13152836936E+03  0.18930868303E+03  0.12508852996E+03 0.  0.
          5    1    3    3  502    0 -0.69585364076E+02 -0.51976077042E+02 -0.50738211454E+02  0.10067509116E+03  0.41800000000E+01 0.  1.
         -5    1    3    3    0  502  0.34397740797E+02  0.11321970691E+02 -0.80790157910E+02  0.88633591868E+02  0.41800000000E+01 0.  1.
        -11    1    1    2    0    0  0.14769719172E+02  0.72322393533E+02 -0.43599316053E+02  0.85729653977E+02  0.00000000000E+00 0. -1.
         11    1    1    2    0    0  0.20417904108E+02 -0.31668287181E+02 -0.13069903615E+02  0.39882246698E+02  0.00000000000E+00 0.  1.
</event>
<event>
 7    1  0.2641580E-009  0.1217290E+03  0.7561462E-02  0.1240272E+00
          4   -1    0    0  501    0  0.00000000000E+00  0.00000000000E+00  0.46419105072E+03  0.46419105072E+03  0.00000000000E+00 0. -1.
         -4   -1    0    0    0  501 -0.00000000000E+00 -0.00000000000E+00 -0.67019337447E+02  0.67019337447E+02  0.00000000000E+00 0.  1.
         25    2    1    2    0    0 -0.71365351177E+02 -0.43148095316E+02  0.37721530394E+03  0.40607049975E+03  0.12508834383E+03 0.  0.
          5    1    3    3  502    0 -0.77313280574E+02  0.23185229282E+01  0.33420011164E+03  0.34305962444E+03  0.41800000000E+01 0.  1.
         -5    1    3    3    0  502  0.59479293969E+01 -0.45466618245E+02  0.43015192302E+02  0.63010875311E+02  0.41800000000E+01 0.  1.
        -11    1    1    2    0    0 -0.88400453880E+01  0.38621007109E+02 -0.73439218083E+01  0.40294686748E+02  0.00000000000E+00 0.  1.
         11    1    1    2    0    0  0.80205396565E+02  0.45270882071E+01  0.27300331143E+02  0.84845201670E+02  0.00000000000E+00 0. -1.
</event>
<event>
 7    1  0.2641580E-009  0.1143281E+03  0.7561462E-02  0.1252759E+00
         -2   -1    0    0    0  501 -0.00000000000E+00  0.00000000000E+00  0.32980078836E+03  0.32980078836E+03  0.00000000000E+00 0.  1.
          2   -1    0    0  501    0  0.00000000000E+00 -0.00000000000E+00 -0.53072177099E+02  0.53072177099E+02  0.00000000000E+00 0. -1.
         25    2    1    2    0    0 -0.57407566198E+02 -0.26162733942E+02  0.22793714239E+03  0.26754958920E+03  0.12508926611E+03 0.  0.
          5    1    3    3  502    0 -0.59910382774E+02  0.32181576130E+02  0.64030369541E+02  0.93500098556E+02  0.41800000000E+01 0.  1.
         -5    1    3    3    0  502  0.25028165760E+01 -0.58344310072E+02  0.16390677285E+03  0.17404949064E+03  0.41800000000E+01 0.  1.
        -11    1    1    2    0    0  0.40653029872E+02 -0.25279466334E+02  0.10412619523E+02  0.48991253314E+02  0.00000000000E+00 0. -1.
         11    1    1    2    0    0  0.16754536326E+02  0.51442200276E+02  0.38378849346E+02  0.66332122941E+02  0.00000000000E+00 0.  1.
</event>
<event>
 7    1  0.2641580E-009  0.1064192E+03  0.7561462E-02  0.1267348E+00
         -2   -1    0    0    0  501 -0.00000000000E+00  0.00000000000E+00  0.33803742493E+02  0.33803742493E+02  0.00000000000E+00 0.  1.
          2   -1    0    0  501    0  0.00000000000E+00 -0.00000000000E+00 -0.45781568128E+03  0.45781568128E+03  0.00000000000E+00 0. -1.
         25    2    1    2    0    0 -0.39097924967E+02 -0.45817261114E+02 -0.25605022439E+03  0.29126849470E+03  0.12509096467E+03 0.  0.
          5    1    3    3  502    0 -0.13354498961E+02 -0.73445550295E+02 -0.23749521630E+03  0.24898602705E+03  0.41800000000E+01 0.  1.
         -5    1    3    3    0  502 -0.25743426007E+02  0.27628289181E+02 -0.18555008094E+02  0.42282467655E+02  0.41800000000E+01 0.  1.
        -11    1    1    2    0    0  0.61775642918E+02  0.46609238820E+02 -0.87785170868E+02  0.11702515723E+03  0.00000000000E+00 0.  1.
         11    1    1    2    0    0 -0.22677717950E+02 -0.79197770584E+00 -0.80176543528E+02  0.83325771837E+02  0.00000000000E+00 0. -1.
</event>
<event>
 7    1  0.2641580E-009  0.1083988E+03  0.7561462E-02  0.1263564E+00
         -1   -1    0    0    0  501 -0.00000000000E+00  0.00000000000E+00  0.63217950015E+02  0.63217950015E+02  0.00000000000E+00 0.  1.
          1   -1    0    0  501    0  0.00000000000E+00 -0.00000000000E+00 -0.25919983013E+03  0.25919983013E+03  0.00000000000E+00 0. -1.
         25    2    1    2    0    0 -0.24847325359E+02  0.14328476526E+02 -0.32487075138E+02  0.13238401051E+03  0.12508965333E+03 0.  0.
          5    1    3    3  502    0 -0.44314102999E+02  0.61661007269E+02 -0.11506772132E+02  0.76913573229E+02  0.41800000000E+01 0. -1.
         -5    1    3    3    0  502  0.19466777640E+02 -0.47332530743E+02 -0.20980303006E+02  0.55470437283E+02  0.41800000000E+01 0. -1.
        -11    1    1    2    0    0 -0.11900407565E+02  0.29732666119E+02 -0.97300055375E+02  0.10243511073E+03  0.00000000000E+00 0. -1.
         11    1    1    2    0    0  0.36747732924E+02 -0.44061142645E+02 -0.66194749598E+02  0.87598658897E+02  0.00000000000E+00 0.  1.
</event>
<event>
 7    1  0.2641580E-009  0.1167024E+03  0.7561462E-02  0.1248638E+00
         -2   -1    0    0    0  501 -0.00000000000E+00  0.00000000000E+00  0.26139057910E+02  0.26139057910E+02  0.00000000000E+00 0.  1.
          2   -1    0    0  501    0  0.00000000000E+00 -0.00000000000E+00 -0.62298100553E+03  0.62298100553E+03  0.00000000000E+00 0. -1.
         25    2    1    2    0    0 -0.53977626762E+02  0.32042553763E+02 -0.27565009164E+03  0.30914373821E+03  0.12508624391E+03 0.  0.
          5    1    3    3  502    0  0.32799135485E+02 -0.73457377875E+01 -0.28644061523E+02  0.44358739981E+02  0.41800000000E+01 0. -1.
         -5    1    3    3    0  502 -0.86776762246E+02  0.39388291550E+02 -0.24700603011E+03  0.26478499823E+03  0.41800000000E+01 0. -1.
        -11    1    1    2    0    0 -0.22388602196E+02 -0.10929735326E+02 -0.34616065944E+02  0.42649509306E+02  0.00000000000E+00 0. -1.
         11    1    1    2    0    0  0.76366228958E+02 -0.21112818436E+02 -0.28657579004E+03  0.29732681592E+03  0.00000000000E+00 0.  1.
</event>
<event>
 7    1  0.2641580E-009  0.1865831E+03  0.7561462E-02  0.1161580E+00
         -1   -1    0    0    0  501 -0.00000000000E+00  0.00000000000E+00  0.29322705676E+03  0.29322705676E+03  0.00000000000E+00 0.  1.
          1   -1    0    0  501    0  0.00000000000E+00 -0.00000000000E+00 -0.12863982969E+03  0.12863982969E+03  0.00000000000E+00 0. -1.
         25    2    1    2    0    0  0.31741206737E+02  0.15782286854E+03  0.79764884406E+02  0.21891912993E+03  0.12509031388E+03 0.  0.
          5    1    3    3  502    0 -0.47486736744E+02  0.68370526147E+02  0.43243523424E+02  0.93898848397E+02  0.41800000000E+01 0. -1.
         -5    1    3    3    0  502  0.79227943480E+02  0.89452342391E+02  0.36521360982E+02  0.12502028154E+03  0.41800000000E+01 0. -1.
        -11    1    1    2    0    0 -0.45266799474E+02 -0.86209828824E+02  0.86215789049E+02  0.13005529594E+03  0.00000000000E+00 0.  1.
         11    1    1    2    0    0  0.13525592737E+02 -0.71613039714E+02 -0.13934463929E+01  0.72892460576E+02  0.00000000000E+00 0. -1.
</event>
<event>
 7    1  0.2641580E-009  0.1023288E+03  0.7561462E-02  0.1275474E+00
         -1   -1    0    0    0  501 -0.00000000000E+00  0.00000000000E+00  0.80121681778E+01  0.80121681778E+01  0.00000000000E+00 0.  1.
          1   -1    0    0  501    0  0.00000000000E+00 -0.00000000000E+00 -0.18673141635E+04  0.18673141635E+04  0.00000000000E+00 0. -1.
         25    2    1    2    0    0  0.58986778707E+01 -0.11781346397E+02 -0.14883122181E+04  0.14936181145E+04  0.12509284150E+03 0.  0.
          5    1    3    3  502    0  0.58898172695E+02 -0.18960981530E+02 -0.49682246569E+03  0.50067808858E+03  0.41800000000E+01 0. -1.
         -5    1    3    3    0  502 -0.52999494824E+02  0.71796351333E+01 -0.99148975241E+03  0.99294002596E+03  0.41800000000E+01 0. -1.
        -11    1    1    2    0    0  0.17041816862E+02 -0.33863244648E+02 -0.18407669180E+03  0.18793980771E+03  0.00000000000E+00 0.  1.
         11    1    1    2    0    0 -0.22940494732E+02  0.45644591044E+02 -0.18691308540E+03  0.19376840941E+03  0.00000000000E+00 0. -1.
</event>
<event>
 7    1  0.2641580E-009  0.1012911E+03  0.7561462E-02  0.1277604E+00
          1   -1    0    0  501    0  0.00000000000E+00  0.00000000000E+00  0.11348838366E+03  0.11348838366E+03  0.00000000000E+00 0.  1.
         -1   -1    0    0    0  501 -0.00000000000E+00 -0.00000000000E+00 -0.21308147730E+03  0.21308147730E+03  0.00000000000E+00 0. -1.
         25    2    1    2    0    0 -0.12098639322E+02  0.36430272936E+02 -0.16336398491E+03  0.20930520607E+03  0.12508931155E+03 0.  0.
          5    1    3    3  502    0  0.44908618587E+02  0.15649696624E+02 -0.13303583925E+03  0.14134250582E+03  0.41800000000E+01 0. -1.
         -5    1    3    3    0  502 -0.57007257909E+02  0.20780576312E+02 -0.30328145660E+02  0.67962700250E+02  0.41800000000E+01 0. -1.
        -11    1    1    2    0    0  0.72748622854E+01 -0.64818734068E+02  0.27080634000E+02  0.70624023146E+02  0.00000000000E+00 0.  1.
         11    1    1    2    0    0  0.48237770363E+01  0.28388461132E+02  0.36690257271E+02  0.46640631739E+02  0.00000000000E+00 0. -1.
</event>
<event>
 7    1  0.2641580E-009  0.1506573E+03  0.7561462E-02  0.1199668E+00
          2   -1    0    0  501    0  0.00000000000E+00  0.00000000000E+00  0.11793183186E+04  0.11793183186E+04  0.00000000000E+00 0. -1.
         -2   -1    0    0    0  501 -0.00000000000E+00 -0.00000000000E+00 -0.27648656889E+02  0.27648656889E+02  0.00000000000E+00 0.  1.
         25    2    1    2    0    0 -0.12262232976E+03 -0.46504050870E+02  0.42086722735E+03  0.45823114224E+03  0.12509074371E+03 0.  0.
          5    1    3    3  502    0 -0.82396446623E+02 -0.83667076476E+01  0.38075735378E+03  0.38968296225E+03  0.41800000000E+01 0.  1.
         -5    1    3    3    0  502 -0.40225883139E+02 -0.38137343223E+02  0.40109873573E+02  0.68548179994E+02  0.41800000000E+01 0.  1.
        -11    1    1    2    0    0  0.13441284994E+03  0.22809111488E+02  0.62087524617E+03  0.63566747683E+03  0.00000000000E+00 0. -1.
         11    1    1    2    0    0 -0.11790520176E+02  0.23694939382E+02  0.10992718822E+03  0.11306835645E+03  0.00000000000E+00 0.  1.
</event>
<event>
 7    1  0.2641580E-009  0.1052419E+03  0.7561462E-02  0.1269644E+00
          2   -1    0    0  501    0  0.00000000000E+00  0.00000000000E+00  0.12894173386E+03  0.12894173386E+03  0.00000000000E+00 0. -1.
         -2   -1    0    0    0  501 -0.00000000000E+00 -0.00000000000E+00 -0.16897756545E+03  0.16897756545E+03  0.00000000000E+00 0.  1.
         25    2    1    2    0    0  0.44791710539E+02  0.85280246339E+02 -0.27408349965E+02  0.16023487669E+03  0.12507989572E+03 0.  0.
          5    1    3    3  502    0  0.20795445362E+02  0.16621622386E+02  0.48211463807E+02  0.55231752833E+02  0.41800000000E+01 0.  1.
         -5    1    3    3    0  502  0.23996265177E+02  0.68658623953E+02 -0.75619813772E+02  0.10500312386E+03  0.41800000000E+01 0.  1.
        -11    1    1    2    0    0 -0.57276968320E+02 -0.63003811706E+02 -0.45115412657E+02  0.96361464542E+02  0.00000000000E+00 0.  1.
         11    1    1    2    0    0  0.12485257781E+02 -0.22276434633E+02  0.32487931029E+02  0.41322958078E+02  0.00000000000E+00 0. -1.
</event>
<event>
 7    1  0.2641580E-009  0.1001846E+03  0.7561462E-02  0.1279908E+00
         -2   -1    0    0    0  501 -0.00000000000E+00  0.00000000000E+00  0.30334382348E+02  0.30334382348E+02  0.00000000000E+00 0. -1.
          2   -1    0    0  501    0  0.00000000000E+00 -0.00000000000E+00 -0.46348330932E+03  0.46348330932E+03  0.00000000000E+00 0.  1.
         25    2    1    2    0    0  0.11553524642E+02  0.37788907975E+02 -0.28372937172E+03  0.31259047561E+03  0.12509581756E+03 0.  0.
          5    1    3    3  502    0  0.41183592000E+02  0.73614758788E+02 -0.17838117922E+03  0.19736397458E+03  0.41800000000E+01 0. -1.
         -5    1    3    3    0  502 -0.29630067358E+02 -0.35825850812E+02 -0.10534819250E+03  0.11522650103E+03  0.41800000000E+01 0. -1.
        -11    1    1    2    0    0  0.96376715846E+01 -0.45632398923E+02 -0.15151819397E+03  0.15853379340E+03  0.00000000000E+00 0.  1.
         11    1    1    2    0    0 -0.21191196227E+02  0.78434909473E+01  0.20986387092E+01  0.22693422664E+02  0.00000000000E+00 0. -1.
</event>
<event>
 7    1  0.2641580E-009  0.2025963E+03  0.7561462E-02  0.1147567E+00
          1   -1    0    0  501    0  0.00000000000E+00  0.00000000000E+00  0.48465439312E+03  0.48465439312E+03  0.00000000000E+00 0. -1.
         -1   -1    0    0    0  501 -0.00000000000E+00 -0.00000000000E+00 -0.12416269877E+03  0.12416269877E+03  0.00000000000E+00 0.  1.
         25    2    1    2    0    0 -0.14578742456E+03  0.10436078113E+03  0.34026916168E+03  0.40444461415E+03  0.12508875941E+03 0.  0.
          5    1    3    3  502    0 -0.13576326088E+03  0.24938423364E+02  0.20404070235E+03  0.24638114494E+03  0.41800000000E+01 0. -1.
         -5    1    3    3    0  502 -0.10024163680E+02  0.79422357764E+02  0.13622845932E+03  0.15806346921E+03  0.41800000000E+01 0. -1.
        -11    1    1    2    0    0  0.12479312355E+03 -0.10869862392E+03  0.45101898488E+02  0.17153103444E+03  0.00000000000E+00 0.  1.
         11    1    1    2    0    0  0.20994301009E+02  0.43378427968E+01 -0.24879365814E+02  0.32841443304E+02  0.00000000000E+00 0. -1.
</event>
<event>
 7    1  0.2641580E-009  0.1229407E+03  0.7561462E-02  0.1238323E+00
          1   -1    0    0  501    0  0.00000000000E+00  0.00000000000E+00  0.14968798104E+03  0.14968798104E+03  0.00000000000E+00 0. -1.
         -1   -1    0    0    0  501 -0.00000000000E+00 -0.00000000000E+00 -0.12999477991E+03  0.12999477991E+03  0.00000000000E+00 0.  1.
         25    2    1    2    0    0 -0.69190267035E+02  0.52276798432E+01  0.67139301823E+02  0.15801275234E+03  0.12508286199E+03 0.  0.
          5    1    3    3  502    0 -0.99592196173E+02  0.21140044598E+02  0.27754064525E+02  0.10560903144E+03  0.41800000000E+01 0.  1.
         -5    1    3    3    0  502  0.30401929138E+02 -0.15912364754E+02  0.39385237298E+02  0.52403720902E+02  0.41800000000E+01 0.  1.
        -11    1    1    2    0    0  0.55720788341E+02 -0.42309827503E+02 -0.42620441922E+02  0.81923316744E+02  0.00000000000E+00 0.  1.
         11    1    1    2    0    0  0.13469478694E+02  0.37082147660E+02 -0.48256587651E+01  0.39746691861E+02  0.00000000000E+00 0. -1.
</event>
<event>
 7    1  0.2869700E-009  0.9784428E+02  0.7561462E-02  0.1284896E+00
         -1   -1    0    0    0  501 -0.00000000000E+00  0.00000000000E+00  0.40309687243E+02  0.40309687243E+02  0.00000000000E+00 0.  1.
          1   -1    0    0  501    0  0.00000000000E+00 -0.00000000000E+00 -0.37226913604E+03  0.37226913604E+03  0.00000000000E+00 0. -1.
         25    2    1    2    0    0 -0.49407511415E+02  0.26456839540E+02 -0.19805123001E+03  0.24086057863E+03  0.12509381314E+03 0.  0.
          5    1    3    3  502    0 -0.74646025333E+02  0.19627405810E+02 -0.19989397857E+03  0.21431831286E+03  0.41800000000E+01 0. -1.
         -5    1    3    3    0  502  0.25238513917E+02  0.68294337297E+01  0.18427485625E+01  0.26542265768E+02  0.41800000000E+01 0. -1.
        -11    1    1    2    0    0  0.68326462297E+02 -0.15540595742E+02 -0.52846758633E+02  0.87765571063E+02  0.00000000000E+00 0.  1.
         11    1    1    2    0    0 -0.18918950882E+02 -0.10916243797E+02 -0.81061460151E+02  0.83952673590E+02  0.00000000000E+00 0. -1.
</event>
<event>
 7    1  0.2641580E-009  0.2454260E+03  0.7561462E-02  0.1116230E+00
          2   -1    0    0  501    0  0.00000000000E+00  0.00000000000E+00  0.37012995037E+03  0.37012995037E+03  0.00000000000E+00 0.  1.
         -2   -1    0    0    0  501 -0.00000000000E+00 -0.00000000000E+00 -0.30375852243E+03  0.30375852243E+03  0.00000000000E+00 0. -1.
         25    2    1    2    0    0  0.16089384154E+03 -0.15580120147E+03  0.25824326647E+03  0.36400193342E+03  0.12508789004E+03 0.  0.
          5    1    3    3  502    0  0.89498125962E+02 -0.15793922389E+03  0.21044256254E+03  0.27795369672E+03  0.41800000000E+01 0.  1.
         -5    1    3    3    0  502  0.71395715576E+02  0.21380224287E+01  0.47800703930E+02  0.86048236698E+02  0.41800000000E+01 0.  1.
        -11    1    1    2    0    0 -0.99714527272E+01  0.55775291771E+02 -0.19567036467E+02  0.59943156054E+02  0.00000000000E+00 0.  1.
         11    1    1    2    0    0 -0.15092238881E+03  0.10002590969E+03 -0.17230480206E+03  0.24994338332E+03  0.00000000000E+00 0. -1.
</event>
<event>
 7    1  0.2641580E-009  0.1841283E+03  0.7561462E-02  0.1163866E+00
          2   -1    0    0  501    0  0.00000000000E+00  0.00000000000E+00  0.37609503897E+03  0.37609503897E+03  0.00000000000E+00 0.  1.
         -2   -1    0    0    0  501 -0.00000000000E+00 -0.00000000000E+00 -0.99214973655E+02  0.99214973655E+02  0.00000000000E+00 0. -1.
         25    2    1    2    0    0  0.15854566484E+03  0.24414207606E+02  0.12681538269E+03  0.23971896989E+03  0.12510100666E+03 0.  0.
          5    1    3    3  502    0 -0.74945738163E+00 -0.30513983026E+02  0.38885368563E+02  0.49610574828E+02  0.41800000000E+01 0. -1.
         -5    1    3    3    0  502  0.15929512222E+03  0.54928190632E+02  0.87930014130E+02  0.19010839506E+03  0.41800000000E+01 0. -1.
        -11    1    1    2    0    0 -0.75757961721E+02  0.14963588488E+02  0.11264506423E+03  0.13657264822E+03  0.00000000000E+00 0.  1.
         11    1    1    2    0    0 -0.82787703117E+02 -0.39377796094E+02  0.37419618389E+02  0.99018394519E+02  0.00000000000E+00 0. -1.
</event>
<event>
 7    1  0.2641580E-009  0.1373562E+03  0.7561462E-02  0.1216931E+00
         -4   -1    0    0    0  501 -0.00000000000E+00  0.00000000000E+00  0.53890925659E+03  0.53890925659E+03  0.00000000000E+00 0.  1.
          4   -1    0    0  501    0  0.00000000000E+00 -0.00000000000E+00 -0.44683702904E+02  0.44683702904E+02  0.00000000000E+00 0. -1.
         25    2    1    2    0    0  0.75592012561E+02  0.78982664220E+02  0.29820278147E+03  0.34135708702E+03  0.12508936155E+03 0.  0.
          5    1    3    3  502    0  0.98471981038E+02  0.79903738922E+02  0.29022991724E+03  0.31675260978E+03  0.41800000000E+01 0.  1.
         -5    1    3    3    0  502 -0.22879968477E+02 -0.92107470227E+00  0.79728642307E+01  0.24604477238E+02  0.41800000000E+01 0.  1.
        -11    1    1    2    0    0 -0.52631353675E+01 -0.47001705123E+02  0.22673664466E+02  0.52449556134E+02  0.00000000000E+00 0. -1.
         11    1    1    2    0    0 -0.70328877194E+02 -0.31980959097E+02  0.17334910775E+03  0.18978631634E+03  0.00000000000E+00 0.  1.
</event>
<event>
 7    1  0.2641580E-009  0.9878742E+02  0.7561462E-02  0.1282867E+00
         -1   -1    0    0    0  501 -0.00000000000E+00  0.00000000000E+00  0.16195926095E+02  0.16195926095E+02  0.00000000000E+00 0. -1.
          1   -1    0    0  501    0  0.00000000000E+00 -0.00000000000E+00 -0.11423254207E+04  0.11423254207E+04  0.00000000000E+00 0.  1.
         25    2    1    2    0    0  0.63939528462E+02  0.44961443345E+02 -0.51917119501E+03  0.53971419758E+03  0.12507154212E+03 0.  0.
          5    1    3    3  502    0  0.60577525524E+02  0.41583123513E+02 -0.12190665317E+03  0.14239907741E+03  0.41800000000E+01 0.  1.
         -5    1    3    3    0  502  0.33620029382E+01  0.33783198321E+01 -0.39726454185E+03  0.39731512017E+03  0.41800000000E+01 0.  1.
        -11    1    1    2    0    0 -0.49353395860E+02 -0.71781034037E+02 -0.50187719124E+03  0.50938098671E+03  0.00000000000E+00 0.  1.
         11    1    1    2    0    0 -0.14586132602E+02  0.26819590692E+02 -0.10508110833E+03  0.10942616249E+03  0.00000000000E+00 0. -1.
</event>
<event>
 7    1  0.2641580E-009  0.1494118E+03  0.7561462E-02  0.1201198E+00
         -2   -1    0    0    0  501 -0.00000000000E+00  0.00000000000E+00  0.71613612499E+03  0.71613612499E+03  0.00000000000E+00 0.  1.
          2   -1    0    0  501    0  0.00000000000E+00 -0.00000000000E+00 -0.43290263049E+02  0.43290263049E+02  0.00000000000E+00 0. -1.
         25    2    1    2    0    0 -0.10486628784E+03 -0.81449417325E+02  0.43634246110E+03  0.47293774385E+03  0.12507765706E+03 0.  0.
          5    1    3    3  502    0 -0.62140151909E+02 -0.26830108325E+02  0.60975385850E+02  0.91196070483E+02  0.41800000000E+01 0. -1.
         -5    1    3    3    0  502 -0.42726135930E+02 -0.54619309000E+02  0.37536707525E+03  0.38174167337E+03  0.41800000000E+01 0. -1.
        -11    1    1    2    0    0  0.52007432955E+02 -0.12726809633E+02  0.84194494413E+02  0.99777039721E+02  0.00000000000E+00 0. -1.
         11    1    1    2    0    0  0.52858854884E+02  0.94176226958E+02  0.15230890643E+03  0.18671160446E+03  0.00000000000E+00 0.  1.
</event>
<event>
 7    1  0.2641580E-009  0.1525242E+03  0.7561462E-02  0.1197405E+00
         -1   -1    0    0    0  501 -0.00000000000E+00  0.00000000000E+00  0.24076937211E+03  0.24076937211E+03  0.00000000000E+00 0.  1.
          1   -1    0    0  501    0  0.00000000000E+00 -0.00000000000E+00 -0.15767298732E+03  0.15767298732E+03  0.00000000000E+00 0. -1.
         25    2    1    2    0    0 -0.10178318043E+03 -0.91399786921E+02  0.13085402342E+03  0.22690059336E+03  0.12508943582E+03 0.  0.
          5    1    3    3  502    0 -0.51078553873E+02  0.53400534710E+01 -0.58658702451E+01  0.51859576459E+02  0.41800000000E+01 0. -1.
         -5    1    3    3    0  502 -0.50704626557E+02 -0.96739840392E+02  0.13671989366E+03  0.17504101690E+03  0.41800000000E+01 0. -1.
        -11    1    1    2    0    0  0.48621313288E+02  0.73496641848E+02  0.12739267375E+02  0.89039751808E+02  0.00000000000E+00 0. -1.
         11    1    1    2    0    0  0.53161867142E+02  0.17903145073E+02 -0.60496906006E+02  0.82502014265E+02  0.00000000000E+00 0.  1.
</event>
<event>
 7    1  0.2641580E-009  0.1179846E+03  0.7561462E-02  0.1246459E+00
          2   -1    0    0  501    0  0.00000000000E+00  0.00000000000E+00  0.11420389237E+04  0.11420389237E+04  0.00000000000E+00 0. -1.
         -2   -1    0    0    0  501 -0.00000000000E+00 -0.00000000000E+00 -0.14430075300E+02  0.14430075300E+02  0.00000000000E+00 0.  1.
         25    2    1    2    0    0 -0.58358833810E+01  0.45494243770E+02  0.81784834079E+03  0.82862557819E+03  0.12506261046E+03 0.  0.
          5    1    3    3  502    0  0.14413285962E+02  0.85456782120E+02  0.59363012379E+03  0.59993733064E+03  0.41800000000E+01 0. -1.
         -5    1    3    3    0  502 -0.20249169343E+02 -0.39962538350E+02  0.22421821701E+03  0.22868824755E+03  0.41800000000E+01 0. -1.
        -11    1    1    2    0    0 -0.43701341788E+02 -0.26791187636E+02  0.11300460650E+03  0.12408713108E+03  0.00000000000E+00 0. -1.
         11    1    1    2    0    0  0.49537225169E+02 -0.18703056134E+02  0.19675590108E+03  0.20375628971E+03  0.00000000000E+00 0.  1.
</event>
<event>
 7    1  0.2641580E-009  0.1335676E+03  0.7561462E-02  0.1222256E+00
          2   -1    0    0  501    0  0.00000000000E+00  0.00000000000E+00  0.57011961571E+03  0.57011961571E+03  0.00000000000E+00 0. -1.
         -2   -1    0    0    0  501 -0.00000000000E+00 -0.00000000000E+00 -0.33232521534E+02  0.33232521534E+02  0.00000000000E+00 0.  1.
         25    2    1    2    0    0 -0.56963455911E+02  0.58039695346E+02  0.24230684286E+03  0.28455815236E+03  0.12508914593E+03 0.  0.
          5    1    3    3  502    0  0.31372077278E+02 -0.12376607918E+02  0.78404439346E+02  0.85452420478E+02  0.41800000000E+01 0.  1.
         -5    1    3    3    0  502 -0.88335533188E+02  0.70416303265E+02  0.16390240351E+03  0.19910573188E+03  0.41800000000E+01 0.  1.
        -11    1    1    2    0    0  0.45478634007E+02 -0.81870097040E+02  0.24986285143E+03  0.26683789735E+03  0.00000000000E+00 0.  1.
         11    1    1    2    0    0  0.11484821904E+02  0.23830401693E+02  0.44717399885E+02  0.51956087531E+02  0.00000000000E+00 0. -1.
</event>
<event>
 7    1  0.2641580E-009  0.1319405E+03  0.7561462E-02  0.1224605E+00
         -1   -1    0    0    0  501 -0.00000000000E+00  0.00000000000E+00  0.19787128913E+02  0.19787128913E+02  0.00000000000E+00 0.  1.
          1   -1    0    0  501    0  0.00000000000E+00 -0.00000000000E+00 -0.14164660564E+04  0.14164660564E+04  0.00000000000E+00 0. -1.
         25    2    1    2    0    0  0.54365239136E+02 -0.10255608209E+03 -0.97803072529E+03  0.99280619132E+03  0.12508678873E+03 0.  0.
          5    1    3    3  502    0 -0.22493258172E+02 -0.33651400255E+02 -0.89818734427E+02  0.98606495001E+02  0.41800000000E+01 0. -1.
         -5    1    3    3    0  502  0.76858497308E+02 -0.68904681839E+02 -0.88821199086E+03  0.89419969632E+03  0.41800000000E+01 0. -1.
        -11    1    1    2    0    0  0.25673196580E+01  0.16488664564E+02 -0.54455131481E+01  0.17553370125E+02  0.00000000000E+00 0.  1.
         11    1    1    2    0    0 -0.56932558794E+02  0.86067417530E+02 -0.41320268902E+03  0.42589362384E+03  0.00000000000E+00 0. -1.
</event>
<event>
 7    1  0.2641580E-009  0.1480922E+03  0.7561462E-02  0.1202837E+00
         -2   -1    0    0    0  501 -0.00000000000E+00  0.00000000000E+00  0.36010333096E+02  0.36010333096E+02  0.00000000000E+00 0.  1.
          2   -1    0    0  501    0  0.00000000000E+00 -0.00000000000E+00 -0.72190686208E+03  0.72190686208E+03  0.00000000000E+00 0. -1.
         25    2    1    2    0    0  0.11039526371E+03  0.45614652203E+02 -0.38407449832E+03  0.42122242081E+03  0.12508915534E+03 0.  0.
          5    1    3    3  502    0 -0.22084016093E+02  0.20283975306E+01 -0.16209871649E+02  0.27785796772E+02  0.41800000000E+01 0.  1.
         -5    1    3    3    0  502  0.13247927981E+03  0.43586254672E+02 -0.36786462667E+03  0.39343662403E+03  0.41800000000E+01 0.  1.
        -11    1    1    2    0    0 -0.36542793907E+02  0.14046100679E+02 -0.31700141831E+02  0.50374276401E+02  0.00000000000E+00 0. -1.
         11    1    1    2    0    0 -0.73852469808E+02 -0.59660752882E+02 -0.27012188884E+03  0.28632049797E+03  0.00000000000E+00 0.  1.
</event>
<event>
 7    1  0.2641580E-009  0.1044785E+03  0.7561462E-02  0.1271151E+00
         -3   -1    0    0    0  501 -0.00000000000E+00  0.00000000000E+00  0.75394457728E+02  0.75394457728E+02  0.00000000000E+00 0. -1.
          3   -1    0    0  501    0  0.00000000000E+00 -0.00000000000E+00 -0.19828209373E+03  0.19828209373E+03  0.00000000000E+00 0.  1.
         25    2    1    2    0    0 -0.93588791002E+01 -0.48338563524E+02 -0.11081547379E+03  0.17421633744E+03  0.12508819953E+03 0.  0.
          5    1    3    3  502    0 -0.11342039071E+02  0.32198205444E+02 -0.81371730177E+02  0.88341367185E+02  0.41800000000E+01 0. -1.
         -5    1    3    3    0  502  0.19831599712E+01 -0.80536768968E+02 -0.29443743608E+02  0.85874970259E+02  0.41800000000E+01 0. -1.
        -11    1    1    2    0    0 -0.78780704612E+01 -0.21008874736E+02 -0.16522100548E+02  0.27864253416E+02  0.00000000000E+00 0. -1.
         11    1    1    2    0    0  0.17236949561E+02  0.69347438261E+02  0.44499383263E+01  0.71595960603E+02  0.00000000000E+00 0.  1.
</event>
<event>
 7    1  0.2641580E-009  0.1313199E+03  0.7561462E-02  0.1225510E+00
         -1   -1    0    0    0  501 -0.00000000000E+00  0.00000000000E+00  0.78415062554E+02  0.78415062554E+02  0.00000000000E+00 0.  1.
          1   -1    0    0  501    0  0.00000000000E+00 -0.00000000000E+00 -0.26158436091E+03  0.26158436091E+03  0.00000000000E+00 0. -1.
         25    2    1    2    0    0 -0.71859245093E+02  0.54975175080E+02 -0.72444585514E+02  0.17053580836E+03  0.12509285743E+03 0.  0.
          5    1    3    3  502    0 -0.54829747445E+02 -0.20287486179E+02  0.78022117229E+01  0.59128928691E+02  0.41800000000E+01 0. -1.
         -5    1    3    3    0  502 -0.17029497647E+02  0.75262661259E+02 -0.80246797237E+02  0.11140687967E+03  0.41800000000E+01 0. -1.
        -11    1    1    2    0    0  0.22051089638E+02 -0.71064526473E+02 -0.77660795493E+02  0.10755285507E+03  0.00000000000E+00 0. -1.
         11    1    1    2    0    0  0.49808155454E+02  0.16089351393E+02 -0.33063917351E+02  0.61910760039E+02  0.00000000000E+00 0.  1.
</event>
<event>
 7    1  0.2641580E-009  0.1743361E+03  0.7561462E-02  0.1173400E+00
         -2   -1    0    0    0  501 -0.00000000000E+00  0.00000000000E+00  0.35065216885E+02  0.35065216885E+02  0.00000000000E+00 0.  1.
          2   -1    0    0  501    0  0.00000000000E+00 -0.00000000000E+00 -0.91653136822E+03  0.91653136822E+03  0.00000000000E+00 0. -1.
         25    2    1    2    0    0  0.51379242852E+02 -0.13022589416E+03 -0.53718783687E+03  0.56904922026E+03  0.12509049882E+03 0.  0.
          5    1    3    3  502    0  0.81741334789E+02 -0.13274923893E+03 -0.42450568185E+03  0.45224611946E+03  0.41800000000E+01 0.  1.
         -5    1    3    3    0  502 -0.30362091937E+02  0.25233447713E+01 -0.11268215502E+03  0.11680310080E+03  0.41800000000E+01 0.  1.
        -11    1    1    2    0    0  0.18675753240E+02  0.59729965382E+02 -0.90760263581E+02  0.11024462785E+03  0.00000000000E+00 0.  1.
         11    1    1    2    0    0 -0.70054996092E+02  0.70495928778E+02 -0.25351805088E+03  0.27230273700E+03  0.00000000000E+00 0. -1.
</event>
<event>
 6    1  0.2641580E-009  0.1096700E+03  0.7561462E-02  0.1261182E+00
          2   -1    0    0  501    0  0.00000000000E+00  0.00000000000E+00  0.38281508402E+03  0.38281508402E+03  0.00000000000E+00 0.  1.
         -2   -1    0    0    0  501 -0.00000000000E+00 -0.00000000000E+00 -0.54631840700E+02  0.54631840700E+02  0.00000000000E+00 0. -1.
          5    1    1    2  502    0 -0.73045698274E+02  0.75053904133E+02  0.41514711047E+02  0.11273733275E+03  0.41800000000E+01 0. -1.
         -5    1    1    2    0  502  0.23658108703E+02 -0.58978632461E+01  0.72797467796E+02  0.76885854459E+02  0.41800000000E+01 0. -1.
        -11    1    1    2    0    0  0.16688295239E+02 -0.48055366838E+02  0.20022186793E+03  0.20658318876E+03  0.00000000000E+00 0.  1.
         11    1    1    2    0    0  0.32699294332E+02 -0.21100674049E+02  0.13649196543E+02  0.41240548752E+02  0.00000000000E+00 0. -1.
</event>
<event>
 7    1  0.2641580E-009  0.1006534E+03  0.7561462E-02  0.1278928E+00
         -2   -1    0    0    0  501 -0.00000000000E+00  0.00000000000E+00  0.11669155614E+02  0.11669155614E+02  0.00000000000E+00 0.  1.
          2   -1    0    0  501    0  0.00000000000E+00 -0.00000000000E+00 -0.15134364767E+04  0.15134364767E+04  0.00000000000E+00 0. -1.
         25    2    1    2    0    0  0.51329913882E+02 -0.12000030293E+02 -0.11408058622E+04  0.11488534434E+04  0.12508980077E+03 0.  0.
          5    1    3    3  502    0  0.87427179211E+00  0.30341342012E+02 -0.75159165084E+02  0.81164856203E+02  0.41800000000E+01 0. -1.
         -5    1    3    3    0  502  0.50455642089E+02 -0.42341372305E+02 -0.10656466971E+04  0.10676885872E+04  0.41800000000E+01 0. -1.
        -11    1    1    2    0    0 -0.21343689447E+02  0.51107699285E+02 -0.22223317631E+03  0.22903085962E+03  0.00000000000E+00 0.  1.
         11    1    1    2    0    0 -0.29986224435E+02 -0.39107668992E+02 -0.13872828252E+03  0.14722132930E+03  0.00000000000E+00 0. -1.
</event>
<event>
 7    1  0.2641580E-009  0.1179750E+03  0.7561462E-02  0.1246476E+00
          1   -1    0    0  501    0  0.00000000000E+00  0.00000000000E+00  0.14278864440E+03  0.14278864440E+03  0.00000000000E+00 0. -1.
         -1   -1    0    0    0  501 -0.00000000000E+00 -0.00000000000E+00 -0.14415829522E+03  0.14415829522E+03  0.00000000000E+00 0.  1.
         25    2    1    2    0    0 -0.72615902792E+01  0.54751637644E+02 -0.77729917366E+02  0.15728764747E+03  0.12508793497E+03 0.  0.
          5    1    3    3  502    0 -0.60039009803E+02  0.49987223700E+02 -0.24308764126E+02  0.81925537195E+02  0.41800000000E+01 0.  1.
         -5    1    3    3    0  502  0.52777419524E+02  0.47644139443E+01 -0.53421153240E+02  0.75362110277E+02  0.41800000000E+01 0.  1.
        -11    1    1    2    0    0 -0.33562352323E+02  0.31512161388E+01  0.20652983133E+02  0.39533623271E+02  0.00000000000E+00 0. -1.
         11    1    1    2    0    0  0.40823942603E+02 -0.57902853783E+02  0.55707283408E+02  0.90125668877E+02  0.00000000000E+00 0.  1.
</event>
<event>
 7    1  0.2641580E-009  0.9943346E+02  0.7561462E-02  0.1281492E+00
          1   -1    0    0  501    0  0.00000000000E+00  0.00000000000E+00  0.53157063377E+03  0.53157063377E+03  0.00000000000E+00 0. -1.
         -1   -1    0    0    0  501 -0.00000000000E+00 -0.00000000000E+00 -0.24525080410E+02  0.24525080410E+02  0.00000000000E+00 0.  1.
         25    2    1    2    0    0  0.11891406829E+02  0.25106605039E+02  0.32719931000E+03  0.35139343313E+03  0.12508480807E+03 0.  0.
          5    1    3    3  502    0  0.13938375561E+02  0.62166382613E+02  0.29575754910E+03  0.30257054994E+03  0.41800000000E+01 0. -1.
         -5    1    3    3    0  502 -0.20469687327E+01 -0.37059777573E+02  0.31441760897E+02  0.48822883191E+02  0.41800000000E+01 0. -1.
        -11    1    1    2    0    0 -0.42661208038E+02 -0.44221690912E+02  0.11751513415E+03  0.13260974087E+03  0.00000000000E+00 0. -1.
         11    1    1    2    0    0  0.30769801209E+02  0.19115085873E+02  0.62331109209E+02  0.72092540180E+02  0.00000000000E+00 0.  1.
</event>
<event>
 7    1  0.3095274E-009  0.8381357E+02  0.7561462E-02  0.1318565E+00
          1   -1    0    0  501    0  0.00000000000E+00  0.00000000000E+00  0.10752100896E+03  0.10752100896E+03  0.00000000000E+00 0. -1.
         -1   -1    0    0    0  501 -0.00000000000E+00 -0.00000000000E+00 -0.13419911833E+03  0.13419911833E+03  0.00000000000E+00 0.  1.
         25    2    1    2    0    0  0.43377508781E+02  0.19737584709E+02 -0.33676898422E+02  0.13803268096E+03  0.12509079506E+03 0.  0.
          5    1    3    3  502    0  0.26864003834E+02 -0.19823261321E+02 -0.72575288043E+02  0.79995507536E+02  0.41800000000E+01 0. -1.
         -5    1    3    3    0  502  0.16513504947E+02  0.39560846030E+02  0.38898389620E+02  0.58037173426E+02  0.41800000000E+01 0. -1.
        -11    1    1    2    0    0 -0.61091453621E+02 -0.32383021123E+02 -0.17088406688E+02  0.71223868230E+02  0.00000000000E+00 0.  1.
         11    1    1    2    0    0  0.17713944840E+02  0.12645436415E+02  0.24087195746E+02  0.32463578096E+02  0.00000000000E+00 0. -1.
</event>
<event>
 7    1  0.2641580E-009  0.1172457E+03  0.7561462E-02  0.1247711E+00
          2   -1    0    0  501    0  0.00000000000E+00  0.00000000000E+00  0.27279983085E+02  0.27279983085E+02  0.00000000000E+00 0. -1.
         -2   -1    0    0    0  501 -0.00000000000E+00 -0.00000000000E+00 -0.60212552384E+03  0.60212552384E+03  0.00000000000E+00 0.  1.
         25    2    1    2    0    0  0.46482640161E+02 -0.27348146686E+02 -0.21616009351E+03  0.25551045653E+03  0.12510735553E+03 0.  0.
          5    1    3    3  502    0 -0.81495138107E+01 -0.64329058228E+02 -0.14202946215E+03  0.15618733248E+03  0.41800000000E+01 0.  1.
         -5    1    3    3    0  502  0.54632153971E+02  0.36980911542E+02 -0.74130631353E+02  0.99323124049E+02  0.41800000000E+01 0.  1.
        -11    1    1    2    0    0  0.20555719603E+02  0.29944640132E+02 -0.16401791525E+03  0.16799135574E+03  0.00000000000E+00 0. -1.
         11    1    1    2    0    0 -0.67038359763E+02 -0.25964934455E+01 -0.19466753200E+03  0.20590369465E+03  0.00000000000E+00 0.  1.
</event>
<event>
 7    1  0.2641580E-009  0.2328498E+03  0.7561462E-02  0.1124650E+00
         -1   -1    0    0    0  501 -0.00000000000E+00  0.00000000000E+00  0.52635853301E+02  0.52635853301E+02  0.00000000000E+00 0.  1.
          1   -1    0    0  501    0  0.00000000000E+00 -0.00000000000E+00 -0.12962247223E+04  0.12962247223E+04  0.00000000000E+00 0. -1.
         25    2    1    2    0    0  0.10041097355E+03  0.18388397199E+03 -0.92793722582E+03  0.95948454287E+03  0.12508962456E+03 0.  0.
          5    1    3    3  502    0  0.58117758091E+02  0.19111471978E+03 -0.79550425456E+03  0.82021155890E+03  0.41800000000E+01 0.  1.
         -5    1    3    3    0  502  0.42293215454E+02 -0.72307477915E+01 -0.13243297126E+03  0.13927298397E+03  0.41800000000E+01 0.  1.
        -11    1    1    2    0    0  0.44073521271E+01 -0.61484585417E+02 -0.53326678850E+02  0.81507752232E+02  0.00000000000E+00 0.  1.
         11    1    1    2    0    0 -0.10481832567E+03 -0.12239938657E+03 -0.26232496432E+03  0.30786828050E+03  0.00000000000E+00 0. -1.
</event>
<event>
 7    1  0.2641580E-009  0.1112068E+03  0.7561462E-02  0.1258351E+00
         -2   -1    0    0    0  501 -0.00000000000E+00  0.00000000000E+00  0.23620033767E+02  0.23620033767E+02  0.00000000000E+00 0.  1.
          2   -1    0    0  501    0  0.00000000000E+00 -0.00000000000E+00 -0.60855455698E+03  0.60855455698E+03  0.00000000000E+00 0. -1.
         25    2    1    2    0    0  0.27127847677E+02 -0.45493857212E+02 -0.31786625526E+03  0.34567778444E+03  0.12509421753E+03 0.  0.
          5    1    3    3  502    0 -0.24534678582E+02 -0.71344708117E+02 -0.21104979738E+03  0.22416847950E+03  0.41800000000E+01 0.  1.
         -5    1    3    3    0  502  0.51662526259E+02  0.25850850905E+02 -0.10681645788E+03  0.12150930494E+03  0.41800000000E+01 0.  1.
        -11    1    1    2    0    0 -0.51768489303E+02  0.30313552588E+02 -0.97509078463E+02  0.11448540666E+03  0.00000000000E+00 0.  1.
         11    1    1    2    0    0  0.24640641626E+02  0.15180304624E+02 -0.16955918949E+03  0.17201139965E+03  0.00000000000E+00 0. -1.
</event>
<event>
 7    1  0.3142189E-009  0.1148077E+03  0.7561462E-02  0.1251917E+00
          1   -1    0    0  501    0  0.00000000000E+00  0.00000000000E+00  0.86599432338E+03  0.86599432338E+03  0.00000000000E+00 0. -1.
         -1   -1    0    0    0  501 -0.00000000000E+00 -0.00000000000E+00 -0.20270148864E+02  0.20270148864E+02  0.00000000000E+00 0.  1.
         25    2    1    2    0    0 -0.53587889634E+02  0.40060414119E+02  0.34930899941E+03  0.37701463917E+03  0.12508701927E+03 0.  0.
          5    1    3    3  502    0  0.31257028887E+02 -0.10332906529E+01  0.18384790562E+03  0.18653577229E+03  0.41800000000E+01 0. -1.
         -5    1    3    3    0  502 -0.84844918522E+02  0.41093704772E+02  0.16546109379E+03  0.19047886688E+03  0.41800000000E+01 0. -1.
        -11    1    1    2    0    0  0.27257088894E+02 -0.63083961658E+02  0.41482225290E+03  0.42047596437E+03  0.00000000000E+00 0. -1.
         11    1    1    2    0    0  0.26330800740E+02  0.23023547540E+02  0.81592922208E+02  0.88773868696E+02  0.00000000000E+00 0.  1.
</event>
<event>
 7    1  0.2641580E-009  0.1632142E+03  0.7561462E-02  0.1185115E+00
          2   -1    0    0  501    0  0.00000000000E+00  0.00000000000E+00  0.28725035159E+03  0.28725035159E+03  0.00000000000E+00 0. -1.
         -2   -1    0    0    0  501 -0.00000000000E+00 -0.00000000000E+00 -0.11680109096E+03  0.11680109096E+03  0.00000000000E+00 0.  1.
         25    2    1    2    0    0  0.60509023241E+02  0.11854801029E+03  0.15736854719E+03  0.24109495026E+03  0.12508774025E+03 0.  0.
          5    1    3    3  502    0  0.76312227347E+02  0.29553794184E+02  0.35482012054E+02  0.89294055640E+02  0.41800000000E+01 0.  1.
         -5    1    3    3    0  502 -0.15803204106E+02  0.88994216108E+02  0.12188653514E+03  0.15180089462E+03  0.41800000000E+01 0.  1.
        -11    1    1    2    0    0  0.42239302851E+01 -0.76930862902E+02  0.32447128664E+02  0.83600331414E+02  0.00000000000E+00 0.  1.
         11    1    1    2    0    0 -0.64732953526E+02 -0.41617147390E+02 -0.19366415222E+02  0.79356160868E+02  0.00000000000E+00 0. -1.
</event>
<event>
 7    1  0.2641580E-009  0.9643871E+02  0.7561462E-02  0.1287968E+00
          2   -1    0    0  501    0  0.00000000000E+00  0.00000000000E+00  0.46213812336E+03  0.46213812336E+03  0.00000000000E+00 0. -1.
         -2   -1    0    0    0  501 -0.00000000000E+00 -0.00000000000E+00 -0.30536784869E+02  0.30536784869E+02  0.00000000000E+00 0.  1.
         25    2    1    2    0    0 -0.22154582745E+01  0.15354584373E+02  0.34222611873E+03  0.36470220721E+03  0.12509321357E+03 0.  0.
          5    1    3    3  502    0  0.49311329088E+02 -0.12048976125E+02  0.71877080745E+02  0.88094109556E+02  0.41800000000E+01 0.  1.
         -5    1    3    3    0  502 -0.51526787363E+02  0.27403560498E+02  0.27034903799E+03  0.27660809765E+03  0.41800000000E+01 0.  1.
        -11    1    1    2    0    0  0.41439052025E+02 -0.15404908687E+02  0.73263426168E+02  0.85568895390E+02  0.00000000000E+00 0. -1.
         11    1    1    2    0    0 -0.39223593751E+02  0.50324313993E-01  0.16111793584E+02  0.42403805628E+02  0.00000000000E+00 0.  1.
</event>
<event>
 7    1  0.2641580E-009  0.1169691E+03  0.7561462E-02  0.1248182E+00
         -1   -1    0    0    0  501 -0.00000000000E+00  0.00000000000E+00  0.17971390250E+03  0.17971390250E+03  0.00000000000E+00 0.  1.
          1   -1    0    0  501    0  0.00000000000E+00 -0.00000000000E+00 -0.10873683032E+03  0.10873683032E+03  0.00000000000E+00 0. -1.
         25    2    1    2    0    0 -0.58823681502E+01  0.56718535111E+02  0.10825356598E+03  0.17497933950E+03  0.12508932897E+03 0.  0.
          5    1    3    3  502    0  0.36483339462E+02  0.76144248783E+02  0.93189635781E+02  0.12582035327E+03  0.41800000000E+01 0. -1.
         -5    1    3    3    0  502 -0.42365707613E+02 -0.19425713672E+02  0.15063930202E+02  0.49158986221E+02  0.41800000000E+01 0. -1.
        -11    1    1    2    0    0 -0.56259081207E+01  0.22175766391E+02  0.47165949504E+01  0.23359403355E+02  0.00000000000E+00 0.  1.
         11    1    1    2    0    0  0.11508276271E+02 -0.78894301502E+02 -0.41993088757E+02  0.90111989966E+02  0.00000000000E+00 0. -1.
</event>
<event>
 7    1  0.2641580E-009  0.7504086E+02  0.7561462E-02  0.1343745E+00
          2   -1    0    0  501    0  0.00000000000E+00  0.00000000000E+00  0.97198519190E+02  0.97198519190E+02  0.00000000000E+00 0. -1.
         -2   -1    0    0    0  501 -0.00000000000E+00 -0.00000000000E+00 -0.13197382177E+03  0.13197382177E+03  0.00000000000E+00 0.  1.
         25    2    1    2    0    0 -0.27400950661E+02  0.14284780644E+00 -0.44288600816E+02  0.13549986567E+03  0.12509157019E+03 0.  0.
          5    1    3    3  502    0 -0.72642077836E+02 -0.11964702979E+02 -0.48551110258E+02  0.88287645212E+02  0.41800000000E+01 0. -1.
         -5    1    3    3    0  502  0.45241127175E+02  0.12107550786E+02  0.42625094423E+01  0.47212220461E+02  0.41800000000E+01 0. -1.
        -11    1    1    2    0    0  0.13333884431E+02  0.51488569876E+01  0.49200549849E+02  0.51234727556E+02  0.00000000000E+00 0. -1.
         11    1    1    2    0    0  0.14067066230E+02 -0.52917047940E+01 -0.39687251617E+02  0.42437747736E+02  0.00000000000E+00 0.  1.
</event>
<event>
 7    1  0.2641580E-009  0.9962575E+02  0.7561462E-02  0.1281085E+00
         -1   -1    0    0    0  501 -0.00000000000E+00  0.00000000000E+00  0.44783966476E+02  0.44783966476E+02  0.00000000000E+00 0.  1.
          1   -1    0    0  501    0  0.00000000000E+00 -0.00000000000E+00 -0.32434058748E+03  0.32434058748E+03  0.00000000000E+00 0. -1.
         25    2    1    2    0    0  0.39592964481E+02  0.90711462597E+01 -0.22053129793E+03  0.25677104007E+03  0.12508966831E+03 0.  0.
          5    1    3    3  502    0  0.48972355352E+02 -0.41943340665E+02 -0.60594694541E+02  0.88581740903E+02  0.41800000000E+01 0. -1.
         -5    1    3    3    0  502 -0.93793908718E+01  0.51014486924E+02 -0.15993660339E+03  0.16818929916E+03  0.41800000000E+01 0. -1.
        -11    1    1    2    0    0  0.20247681885E+02  0.55578833821E+01  0.69233518589E+01  0.22108629319E+02  0.00000000000E+00 0.  1.
         11    1    1    2    0    0 -0.59840646365E+02 -0.14629029642E+02 -0.65948674928E+02  0.90244884567E+02  0.00000000000E+00 0. -1.
</event>
<event>
 7    1  0.2641580E-009  0.1091637E+03  0.7561462E-02  0.1262126E+00
          3   -1    0    0  501    0  0.00000000000E+00  0.00000000000E+00  0.87531034468E+03  0.87531034468E+03  0.00000000000E+00 0. -1.
         -3   -1    0    0    0  501 -0.00000000000E+00 -0.00000000000E+00 -0.28913529692E+02  0.28913529692E+02  0.00000000000E+00 0.  1.
         25    2    1    2    0    0  0.56396163075E+02  0.19572652208E+02  0.73313455231E+03  0.74612361598E+03  0.12510220865E+03 0.  0.
          5    1    3    3  502    0  0.56105027887E+02  0.59761337813E+02  0.63052788319E+03  0.63584752538E+03  0.41800000000E+01 0.  1.
         -5    1    3    3    0  502  0.29113518828E+00 -0.40188685606E+02  0.10260666912E+03  0.11027609060E+03  0.41800000000E+01 0.  1.
        -11    1    1    2    0    0 -0.54003855317E+02 -0.45005463946E+02  0.40830729937E+02  0.81296104957E+02  0.00000000000E+00 0.  1.
         11    1    1    2    0    0 -0.23923077587E+01  0.25432811738E+02  0.72431532744E+02  0.76804153436E+02  0.00000000000E+00 0. -1.
</event>
<event>
 7    1  0.2641580E-009  0.1803527E+03  0.7561462E-02  0.1167462E+00
          1   -1    0    0  501    0  0.00000000000E+00  0.00000000000E+00  0.79391799363E+03  0.79391799363E+03  0.00000000000E+00 0. -1.
         -1   -1    0    0    0  501 -0.00000000000E+00 -0.00000000000E+00 -0.60392310558E+02  0.60392310558E+02  0.00000000000E+00 0.  1.
         25    2    1    2    0    0 -0.95366230501E+02  0.15072637270E+03  0.25739154743E+03  0.33720599680E+03  0.12507724911E+03 0.  0.
          5    1    3    3  502    0 -0.59725684552E+01  0.49881209909E+00 -0.13166974577E+02  0.15058619026E+02  0.41800000000E+01 0. -1.
         -5    1    3    3    0  502 -0.89393662045E+02  0.15022756060E+03  0.27055852200E+03  0.32214737777E+03  0.41800000000E+01 0. -1.
        -11    1    1    2    0    0  0.34768794929E+02 -0.48028502279E+02  0.29037031012E+03  0.29636214861E+03  0.00000000000E+00 0. -1.
         11    1    1    2    0    0  0.60597435572E+02 -0.10269787042E+03  0.18576382552E+03  0.22074215877E+03  0.00000000000E+00 0.  1.
</event>
<event>
 7    1  0.2641580E-009  0.1069052E+03  0.7561462E-02  0.1266411E+00
          2   -1    0    0  501    0  0.00000000000E+00  0.00000000000E+00  0.23117958545E+04  0.23117958545E+04  0.00000000000E+00 0.  1.
         -2   -1    0    0    0  501 -0.00000000000E+00 -0.00000000000E+00 -0.83576860036E+01  0.83576860036E+01  0.00000000000E+00 0. -1.
         25    2    1    2    0    0 -0.83455367589E+00  0.55243547207E+02  0.18051876508E+04  0.18103598047E+04  0.12509045477E+03 0.  0.
          5    1    3    3  502    0 -0.69937039505E+01 -0.27439040660E+02  0.10891027818E+04  0.10894788454E+04  0.41800000000E+01 0. -1.
         -5    1    3    3    0  502  0.61591502746E+01  0.82682587867E+02  0.71608486909E+03  0.72088095938E+03  0.41800000000E+01 0. -1.
        -11    1    1    2    0    0  0.38960539049E+02 -0.50452238905E+02  0.38398825747E+03  0.38924328368E+03  0.00000000000E+00 0.  1.
         11    1    1    2    0    0 -0.38125985373E+02 -0.47913083019E+01  0.11426226019E+03  0.12055045209E+03  0.00000000000E+00 0. -1.
</event>
<event>
 7    1  0.2641580E-009  0.1093619E+03  0.7561462E-02  0.1261756E+00
         -1   -1    0    0    0  501 -0.00000000000E+00  0.00000000000E+00  0.32653690457E+02  0.32653690457E+02  0.00000000000E+00 0.  1.
          1   -1    0    0  501    0  0.00000000000E+00 -0.00000000000E+00 -0.36701713033E+03  0.36701713033E+03  0.00000000000E+00 0. -1.
         25    2    1    2    0    0 -0.64575759694E+01  0.26270621072E+02 -0.19480109060E+03  0.23308565004E+03  0.12509839942E+03 0.  0.
          5    1    3    3  502    0  0.88948920955E+01 -0.49525092104E+02 -0.80123394030E+02  0.94705250774E+02  0.41800000000E+01 0.  1.
         -5    1    3    3    0  502 -0.15352468065E+02  0.75795713176E+02 -0.11467769657E+03  0.13838039927E+03  0.41800000000E+01 0.  1.
        -11    1    1    2    0    0  0.31596685328E+02 -0.48060647610E+02 -0.83431982796E+02  0.10133643040E+03  0.00000000000E+00 0.  1.
         11    1    1    2    0    0 -0.25139109358E+02  0.21790026538E+02 -0.56130366483E+02  0.65248740351E+02  0.00000000000E+00 0. -1.
</event>
<event>
 7    1  0.2641580E-009  0.1193985E+03  0.7561462E-02  0.1244093E+00
         -2   -1    0    0    0  501 -0.00000000000E+00  0.00000000000E+00  0.16168223649E+03  0.16168223649E+03  0.00000000000E+00 0.  1.
          2   -1    0    0  501    0  0.00000000000E+00 -0.00000000000E+00 -0.11959919469E+03  0.11959919469E+03  0.00000000000E+00 0. -1.
         25    2    1    2    0    0 -0.25532608912E+02  0.73187546772E+02 -0.16179336028E+02  0.14804462918E+03  0.12508840951E+03 0.  0.
          5    1    3    3  502    0  0.32575810009E+02 -0.11956107826E+02  0.18062947372E+02  0.39343034706E+02  0.41800000000E+01 0. -1.
         -5    1    3    3    0  502 -0.58108418921E+02  0.85143654598E+02 -0.34242283400E+02  0.10870159447E+03  0.41800000000E+01 0. -1.
        -11    1    1    2    0    0  0.57765172960E+01 -0.79675086524E+02  0.97766883519E+01  0.80480253478E+02  0.00000000000E+00 0. -1.
         11    1    1    2    0    0  0.19756091616E+02  0.64875397518E+01  0.48485689481E+02  0.52756548527E+02  0.00000000000E+00 0.  1.
</event>
<event>
 7    1  0.2641580E-009  0.1331082E+03  0.7561462E-02  0.1222915E+00
          1   -1    0    0  501    0  0.00000000000E+00  0.00000000000E+00  0.91465975574E+03  0.91465975574E+03  0.00000000000E+00 0. -1.
         -1   -1    0    0    0  501 -0.00000000000E+00 -0.00000000000E+00 -0.19905954595E+02  0.19905954595E+02  0.00000000000E+00 0.  1.
         25    2    1    2    0    0  0.79451237657E+02  0.96959994234E+01  0.43264923961E+03  0.45742521063E+03  0.12508376078E+03 0.  0.
          5    1    3    3  502    0 -0.68893026533E+01 -0.44721746978E+02  0.11081059432E+03  0.11976626135E+03  0.41800000000E+01 0. -1.
         -5    1    3    3    0  502  0.86340540311E+02  0.54417746402E+02  0.32183864530E+03  0.33765894928E+03  0.41800000000E+01 0. -1.
        -11    1    1    2    0    0 -0.33014675097E+02 -0.48120749024E+02  0.24143086390E+03  0.24838364942E+03  0.00000000000E+00 0.  1.
         11    1    1    2    0    0 -0.46436562561E+02  0.38424749601E+02  0.22067369763E+03  0.22875685028E+03  0.00000000000E+00 0. -1.
</event>
<event>
 7    1  0.2641580E-009  0.1143362E+03  0.7561462E-02  0.1252744E+00
          1   -1    0    0  501    0  0.00000000000E+00  0.00000000000E+00  0.36060233120E+03  0.36060233120E+03  0.00000000000E+00 0. -1.
         -1   -1    0    0    0  501 -0.00000000000E+00 -0.00000000000E+00 -0.60481442830E+02  0.60481442830E+02  0.00000000000E+00 0.  1.
         25    2    1    2    0    0  0.60864861421E+02 -0.24039592342E+02  0.26969336108E+03  0.30440555390E+03  0.12508316783E+03 0.  0.
          5    1    3    3  502    0  0.38301348615E+02 -0.69790396141E+02  0.10432145002E+03  0.13129405940E+03  0.41800000000E+01 0. -1.
         -5    1    3    3    0  502  0.22563512806E+02  0.45750803799E+02  0.16537191107E+03  0.17311149450E+03  0.41800000000E+01 0. -1.
        -11    1    1    2    0    0 -0.33998535996E+01  0.38389930806E+02 -0.15690120014E+02  0.41611604846E+02  0.00000000000E+00 0.  1.
         11    1    1    2    0    0 -0.57465007821E+02 -0.14350338464E+02  0.46117647296E+02  0.75066615283E+02  0.00000000000E+00 0. -1.
</event>
<event>
 7    1  0.2641580E-009  0.7258313E+02  0.7561462E-02  0.1351523E+00
         -1   -1    0    0    0  501 -0.00000000000E+00  0.00000000000E+00  0.11870700634E+02  0.11870700634E+02  0.00000000000E+00 0.  1.
          1   -1    0    0  501    0  0.00000000000E+00 -0.00000000000E+00 -0.12767771156E+04  0.12767771156E+04  0.00000000000E+00 0. -1.
         25    2    1    2    0    0 -0.29203262718E+01 -0.39514959216E+01 -0.93246267658E+03  0.94082860473E+03  0.12509067767E+03 0.  0.
          5    1    3    3  502    0 -0.22615494992E+01 -0.29471365726E+02 -0.89386945743E+03  0.89436779645E+03  0.41800000000E+01 0.  1.
         -5    1    3    3    0  502 -0.65877677261E+00  0.25519869804E+02 -0.38593219149E+02  0.46460808279E+02  0.41800000000E+01 0.  1.
        -11    1    1    2    0    0  0.60848587362E+00  0.46665418853E+02 -0.25601505807E+03  0.26023401301E+03  0.00000000000E+00 0. -1.
         11    1    1    2    0    0  0.23118403982E+01 -0.42713922931E+02 -0.76428680276E+02  0.87585198447E+02  0.00000000000E+00 0.  1.
</event>
<event>
 7    1  0.2641580E-009  0.1338142E+03  0.7561462E-02  0.1221903E+00
         -2   -1    0    0    0  501 -0.00000000000E+00  0.00000000000E+00  0.66058659833E+02  0.66058659833E+02  0.00000000000E+00 0. -1.
          2   -1    0    0  501    0  0.00000000000E+00 -0.00000000000E+00 -0.32064132834E+03  0.32064132834E+03  0.00000000000E+00 0.  1.
         25    2    1    2    0    0  0.29586851374E+01 -0.92768365122E+02 -0.10135176070E+03  0.18584291585E+03  0.12510270416E+03 0.  0.
          5    1    3    3  502    0 -0.33050166659E+02  0.18886907763E+02 -0.27619701876E+02  0.47215983869E+02  0.41800000000E+01 0. -1.
         -5    1    3    3    0  502  0.36008851796E+02 -0.11165527288E+03 -0.73732058827E+02  0.13862693198E+03  0.41800000000E+01 0. -1.
        -11    1    1    2    0    0  0.22710560210E+02  0.80212242679E+02 -0.15063385238E+03  0.17216367475E+03  0.00000000000E+00 0.  1.
         11    1    1    2    0    0 -0.25669245347E+02  0.12556122444E+02 -0.25970554226E+01  0.28693397575E+02  0.00000000000E+00 0. -1.
</event>
<event>
 7    1  0.2641580E-009  0.2681853E+03  0.7561462E-02  0.1102323E+00
         -2   -1    0    0    0  501 -0.00000000000E+00  0.00000000000E+00  0.16293533378E+03  0.16293533378E+03  0.00000000000E+00 0.  1.
          2   -1    0    0  501    0  0.00000000000E+00 -0.00000000000E+00 -0.45545144092E+03  0.45545144092E+03  0.00000000000E+00 0. -1.
         25    2    1    2    0    0 -0.23027541140E+03  0.96477451002E+02 -0.15777685899E+03  0.32074317315E+03  0.12509189518E+03 0.  0.
          5    1    3    3  502    0 -0.20873827554E+03  0.42136223176E+02 -0.90218481389E+02  0.23130926433E+03  0.41800000000E+01 0. -1.
         -5    1    3    3    0  502 -0.21537135859E+02  0.54341227826E+02 -0.67558377598E+02  0.89433908817E+02  0.41800000000E+01 0. -1.
        -11    1    1    2    0    0  0.14822110302E+03 -0.14727780052E+02 -0.65657501491E+02  0.16277994467E+03  0.00000000000E+00 0.  1.
         11    1    1    2    0    0  0.82054308383E+02 -0.81749670950E+02 -0.69081746663E+02  0.13486365688E+03  0.00000000000E+00 0. -1.
</event>
<event>
 7    1  0.2641580E-009  0.1054173E+03  0.7561462E-02  0.1269300E+00
          1   -1    0    0  501    0  0.00000000000E+00  0.00000000000E+00  0.43679331520E+03  0.43679331520E+03  0.00000000000E+00 0. -1.
         -1   -1    0    0    0  501 -0.00000000000E+00 -0.00000000000E+00 -0.48329008922E+02  0.48329008922E+02  0.00000000000E+00 0.  1.
         25    2    1    2    0    0  0.60509254398E+02  0.27898233767E+02  0.33559953677E+03  0.36429863572E+03  0.12508703208E+03 0.  0.
          5    1    3    3  502    0  0.29753079908E+02  0.62166448732E+02  0.29434101746E+03  0.30233097769E+03  0.41800000000E+01 0. -1.
         -5    1    3    3    0  502  0.30756174491E+02 -0.34268214965E+02  0.41258519304E+02  0.61967658027E+02  0.41800000000E+01 0. -1.
        -11    1    1    2    0    0  0.11056460954E+02  0.97029310402E+01 -0.10528671769E+02  0.18089917878E+02  0.00000000000E+00 0.  1.
         11    1    1    2    0    0 -0.71565715352E+02 -0.37601164808E+02  0.63393441281E+02  0.10273377052E+03  0.00000000000E+00 0. -1.
</event>
<event>
 7    1  0.2641580E-009  0.1047498E+03  0.7561462E-02  0.1270613E+00
          1   -1    0    0  501    0  0.00000000000E+00  0.00000000000E+00  0.56447556814E+02  0.56447556814E+02  0.00000000000E+00 0. -1.
         -1   -1    0    0    0  501 -0.00000000000E+00 -0.00000000000E+00 -0.23817496310E+03  0.23817496310E+03  0.00000000000E+00 0.  1.
         25    2    1    2    0    0  0.36196015841E+02  0.26424508414E+01 -0.88812780885E+02  0.15764874123E+03  0.12509309115E+03 0.  0.
          5    1    3    3  502    0  0.10169770558E+02  0.55252934033E+02 -0.80448189090E+02  0.98212496558E+02  0.41800000000E+01 0.  1.
         -5    1    3    3    0  502  0.26026245283E+02 -0.52610483191E+02 -0.83645917955E+01  0.59436244675E+02  0.41800000000E+01 0.  1.
        -11    1    1    2    0    0 -0.65178188123E+02 -0.40345671890E+01 -0.84440948611E+02  0.10674618373E+03  0.00000000000E+00 0. -1.
         11    1    1    2    0    0  0.28982172282E+02  0.13921163476E+01 -0.84736767941E+01  0.30227594951E+02  0.00000000000E+00 0.  1.
</event>
<event>
 7    1  0.2641580E-009  0.1015345E+03  0.7561462E-02  0.1277102E+00
         -2   -1    0    0    0  501 -0.00000000000E+00  0.00000000000E+00  0.32214772750E+02  0.32214772750E+02  0.00000000000E+00 0.  1.
          2   -1    0    0  501    0  0.00000000000E+00 -0.00000000000E+00 -0.62482572644E+03  0.62482572644E+03  0.00000000000E+00 0. -1.
         25    2    1    2    0    0 -0.73179125464E+02  0.31561702654E+02 -0.22679866064E+03  0.27099091327E+03  0.12508843724E+03 0.  0.
          5    1    3    3  502    0 -0.19101734663E+02 -0.19343958105E+02 -0.18219053341E+03  0.18425506193E+03  0.41800000000E+01 0. -1.
         -5    1    3    3    0  502 -0.54077390801E+02  0.50905660759E+02 -0.44608127224E+02  0.86735851339E+02  0.41800000000E+01 0. -1.
        -11    1    1    2    0    0  0.32197180623E+02 -0.47350262492E+02 -0.30889935905E+03  0.31416161417E+03  0.00000000000E+00 0. -1.
         11    1    1    2    0    0  0.40981944841E+02  0.15788559838E+02 -0.56912933999E+02  0.71887971741E+02  0.00000000000E+00 0.  1.
</event>
<event>
 7    1  0.2730730E-009  0.1405187E+03  0.7561462E-02  0.1212633E+00
         -2   -1    0    0    0  501 -0.00000000000E+00  0.00000000000E+00  0.22713649909E+02  0.22713649909E+02  0.00000000000E+00 0.  1.
          2   -1    0    0  501    0  0.00000000000E+00 -0.00000000000E+00 -0.11380195228E+04  0.11380195228E+04  0.00000000000E+00 0. -1.
         25    2    1    2    0    0 -0.10316727686E+03 -0.53177822525E+02 -0.69018471427E+03  0.71096660769E+03  0.12508880687E+03 0.  0.
          5    1    3    3  502    0 -0.13964492392E+02  0.34654886837E+02 -0.26700222253E+03  0.26963610193E+03  0.41800000000E+01 0. -1.
         -5    1    3    3    0  502 -0.89202784465E+02 -0.87832709362E+02 -0.42318249175E+03  0.44133050576E+03  0.41800000000E+01 0. -1.
        -11    1    1    2    0    0  0.56204238519E+02  0.16438749757E+02 -0.34477474970E+03  0.34971242036E+03  0.00000000000E+00 0.  1.
         11    1    1    2    0    0  0.46963038338E+02  0.36739072768E+02 -0.80346408892E+02  0.10005414464E+03  0.00000000000E+00 0. -1.
</event>
<event>
 7    1  0.2641580E-009  0.8761577E+02  0.7561462E-02  0.1308730E+00
         -1   -1    0    0    0  501 -0.00000000000E+00  0.00000000000E+00  0.44226958208E+03  0.44226958208E+03  0.00000000000E+00 0.  1.
          1   -1    0    0  501    0  0.00000000000E+00 -0.00000000000E+00 -0.43167025246E+02  0.43167025246E+02  0.00000000000E+00 0. -1.
         25    2    1    2    0    0 -0.31783469975E+02 -0.31646094751E+02  0.90300022272E+02  0.16066575051E+03  0.12509086732E+03 0.  0.
          5    1    3    3  502    0  0.12820526939E+02  0.14163737191E+02 -0.23191246084E+02  0.30336177365E+02  0.41800000000E+01 0. -1.
         -5    1    3    3    0  502 -0.44603996914E+02 -0.45809831942E+02  0.11349126836E+03  0.13032957314E+03  0.41800000000E+01 0. -1.
        -11    1    1    2    0    0 -0.86049561959E+01 -0.22477721433E+02  0.33147318990E+02  0.40963861978E+02  0.00000000000E+00 0. -1.
         11    1    1    2    0    0  0.40388426171E+02  0.54123816184E+02  0.27565521558E+03  0.28380699484E+03  0.00000000000E+00 0.  1.
</event>
<event>
 7    1  0.2641580E-009  0.9674455E+02  0.7561462E-02  0.1287295E+00
         -2   -1    0    0    0  501 -0.00000000000E+00  0.00000000000E+00  0.24182951515E+02  0.24182951515E+02  0.00000000000E+00 0.  1.
          2   -1    0    0  501    0  0.00000000000E+00 -0.00000000000E+00 -0.67815290619E+03  0.67815290619E+03  0.00000000000E+00 0. -1.
         25    2    1    2    0    0  0.66872530245E+02  0.11939692354E+01 -0.34457852253E+03  0.37263295260E+03  0.12509036057E+03 0.  0.
          5    1    3    3  502    0  0.81022401615E+02 -0.30289756950E+01 -0.10579193230E+03  0.13335370110E+03  0.41800000000E+01 0.  1.
         -5    1    3    3    0  502 -0.14149871370E+02  0.42229449304E+01 -0.23878659023E+03  0.23927925150E+03  0.41800000000E+01 0.  1.
        -11    1    1    2    0    0 -0.24078189064E+02  0.33921300584E+02 -0.22474378434E+03  0.22856111310E+03  0.00000000000E+00 0. -1.
         11    1    1    2    0    0 -0.42794341181E+02 -0.35115269819E+02 -0.84647647804E+02  0.10114179201E+03  0.00000000000E+00 0.  1.
</event>
<event>
 7    1  0.2641580E-009  0.1322759E+03  0.7561462E-02  0.1224117E+00
          1   -1    0    0  501    0  0.00000000000E+00  0.00000000000E+00  0.64576239671E+03  0.64576239671E+03  0.00000000000E+00 0. -1.
         -1   -1    0    0    0  501 -0.00000000000E+00 -0.00000000000E+00 -0.29192993926E+02  0.29192993926E+02  0.00000000000E+00 0.  1.
         25    2    1    2    0    0 -0.28174870561E+02 -0.70474170190E+02  0.25325314895E+03  0.29248152445E+03  0.12509137739E+03 0.  0.
          5    1    3    3  502    0  0.40331667915E+02 -0.65113683667E+02  0.11847240601E+03  0.14113687904E+03  0.41800000000E+01 0.  1.
         -5    1    3    3    0  502 -0.68506538476E+02 -0.53604865232E+01  0.13478074294E+03  0.15134464542E+03  0.41800000000E+01 0.  1.
        -11    1    1    2    0    0 -0.33788663982E+02  0.27947786219E+02  0.11695967780E+03  0.12490924225E+03  0.00000000000E+00 0.  1.
         11    1    1    2    0    0  0.61963534543E+02  0.42526383971E+02  0.24635657603E+03  0.25756462393E+03  0.00000000000E+00 0. -1.
</event>
<event>
 7    1  0.2732475E-009  0.1422670E+03  0.7561462E-02  0.1210311E+00
          2   -1    0    0  501    0  0.00000000000E+00  0.00000000000E+00  0.65940658339E+03  0.65940658339E+03  0.00000000000E+00 0. -1.
         -2   -1    0    0    0  501 -0.00000000000E+00 -0.00000000000E+00 -0.37599171542E+02  0.37599171542E+02  0.00000000000E+00 0.  1.
         25    2    1    2    0    0  0.97785300428E+02  0.50306526941E+02  0.39792562584E+03  0.43137562717E+03  0.12508963337E+03 0.  0.
          5    1    3    3  502    0  0.11077343292E+03  0.70945212756E+02  0.26180043881E+03  0.29302033857E+03  0.41800000000E+01 0.  1.
         -5    1    3    3    0  502 -0.12988132494E+02 -0.20638685815E+02  0.13612518704E+03  0.13835528860E+03  0.41800000000E+01 0.  1.
        -11    1    1    2    0    0 -0.43084764469E+02 -0.58727622159E+02  0.65863275218E+02  0.98199804258E+02  0.00000000000E+00 0. -1.
         11    1    1    2    0    0 -0.54700535959E+02  0.84210952177E+01  0.15801851078E+03  0.16743032350E+03  0.00000000000E+00 0.  1.
</event>
<event>
 7    1  0.2641580E-009  0.1176779E+03  0.7561462E-02  0.1246978E+00
          1   -1    0    0  501    0  0.00000000000E+00  0.00000000000E+00  0.14681803853E+03  0.14681803853E+03  0.00000000000E+00 0. -1.
         -1   -1    0    0    0  501 -0.00000000000E+00 -0.00000000000E+00 -0.12882317137E+03  0.12882317137E+03  0.00000000000E+00 0.  1.
         25    2    1    2    0    0  0.46027193838E+02  0.54449437975E+02 -0.17440131671E+02  0.14503654461E+03  0.12509275443E+03 0.  0.
          5    1    3    3  502    0  0.10941957015E+02 -0.37111660151E+02  0.14947866697E+02  0.41688282062E+02  0.41800000000E+01 0.  1.
         -5    1    3    3    0  502  0.35085236822E+02  0.91561098125E+02 -0.32387998368E+02  0.10334826255E+03  0.41800000000E+01 0.  1.
        -11    1    1    2    0    0 -0.48843763004E+02 -0.53709629401E+01  0.58419648640E+02  0.76337512236E+02  0.00000000000E+00 0. -1.
         11    1    1    2    0    0  0.28165691659E+01 -0.49078475034E+02 -0.22984649810E+02  0.54267153053E+02  0.00000000000E+00 0.  1.
</event>
<event>
 7    1  0.2641580E-009  0.1130944E+03  0.7561462E-02  0.1254945E+00
         -2   -1    0    0    0  501 -0.00000000000E+00  0.00000000000E+00  0.73582902982E+02  0.73582902982E+02  0.00000000000E+00 0. -1.
          2   -1    0    0  501    0  0.00000000000E+00 -0.00000000000E+00 -0.33721807812E+03  0.33721807812E+03  0.00000000000E+00 0.  1.
         25    2    1    2    0    0 -0.97670863663E+02  0.14082849176E+02 -0.66404916840E+02  0.17260969880E+03  0.12508625380E+03 0.  0.
          5    1    3    3  502    0 -0.96030054552E+02  0.29556182645E+02  0.37461183802E+01  0.10063222701E+03  0.41800000000E+01 0. -1.
         -5    1    3    3    0  502 -0.16408091110E+01 -0.15473333470E+02 -0.70151035221E+02  0.71977471793E+02  0.41800000000E+01 0. -1.
        -11    1    1    2    0    0  0.73199816928E+02 -0.31282120593E+02 -0.19197177511E+03  0.20782191104E+03  0.00000000000E+00 0.  1.
         11    1    1    2    0    0  0.24471046735E+02  0.17199271417E+02 -0.52584831858E+01  0.30369371265E+02  0.00000000000E+00 0. -1.
</event>
<event>
 7    1  0.2641580E-009  0.9278433E+02  0.7561462E-02  0.1296246E+00
          1   -1    0    0  501    0  0.00000000000E+00  0.00000000000E+00  0.21397246565E+03  0.21397246565E+03  0.00000000000E+00 0. -1.
         -1   -1    0    0    0  501 -0.00000000000E+00 -0.00000000000E+00 -0.57704157381E+02  0.57704157381E+02  0.00000000000E+00 0.  1.
         25    2    1    2    0    0 -0.64897117003E+00 -0.26438975489E+02  0.99680928433E+02  0.16211764050E+03  0.12508557583E+03 0.  0.
          5    1    3    3  502    0  0.50649859144E+02  0.21712856523E+02  0.29467654725E+02  0.62631233779E+02  0.41800000000E+01 0.  1.
         -5    1    3    3    0  502 -0.51298830314E+02 -0.48151832012E+02  0.70213273708E+02  0.99486406722E+02  0.41800000000E+01 0.  1.
        -11    1    1    2    0    0  0.25680315911E+01 -0.16570800069E+02 -0.17268766402E+02  0.24070656290E+02  0.00000000000E+00 0.  1.
         11    1    1    2    0    0 -0.19190604211E+01  0.43009775558E+02  0.73856146242E+02  0.85488326244E+02  0.00000000000E+00 0. -1.
</event>
<event>
 7    1  0.2641580E-009  0.1197224E+03  0.7561462E-02  0.1243556E+00
         -2   -1    0    0    0  501 -0.00000000000E+00  0.00000000000E+00  0.82533646497E+02  0.82533646497E+02  0.00000000000E+00 0.  1.
          2   -1    0    0  501    0  0.00000000000E+00 -0.00000000000E+00 -0.20461060320E+03  0.20461060320E+03  0.00000000000E+00 0. -1.
         25    2    1    2    0    0 -0.35826928176E+01 -0.66724152671E+02 -0.33036987182E+02  0.14561568745E+03  0.12509011820E+03 0.  0.
          5    1    3    3  502    0 -0.51783566524E+01 -0.10357456443E+03 -0.31499269185E+02  0.10846281452E+03  0.41800000000E+01 0.  1.
         -5    1    3    3    0  502  0.15956638348E+01  0.36850411760E+02 -0.15377179967E+01  0.37152872925E+02  0.41800000000E+01 0.  1.
        -11    1    1    2    0    0  0.37954449209E+02  0.38473230412E+02 -0.16634790650E+02  0.56545963013E+02  0.00000000000E+00 0.  1.
         11    1    1    2    0    0 -0.34371756391E+02  0.28250922258E+02 -0.72405178875E+02  0.84982599241E+02  0.00000000000E+00 0. -1.
</event>
<event>
 7    1  0.2641580E-009  0.4953583E+02  0.7561462E-02  0.1447861E+00
          1   -1    0    0  501    0  0.00000000000E+00  0.00000000000E+00  0.14430263952E+03  0.14430263952E+03  0.00000000000E+00 0. -1.
         -1   -1    0    0    0  501 -0.00000000000E+00 -0.00000000000E+00 -0.89496461630E+02  0.89496461630E+02  0.00000000000E+00 0.  1.
         25    2    1    2    0    0 -0.27282747031E+02 -0.19063253216E+02  0.22694007445E+02  0.13141549464E+03  0.12508900171E+03 0.  0.
          5    1    3    3  502    0 -0.17408709795E+02 -0.30490192202E+01 -0.51578927132E+02  0.54682884151E+02  0.41800000000E+01 0. -1.
         -5    1    3    3    0  502 -0.98740372363E+01 -0.16014233996E+02  0.74272934577E+02  0.76732610489E+02  0.41800000000E+01 0. -1.
        -11    1    1    2    0    0  0.97069125823E+01  0.35966258034E+02  0.56642590880E+02  0.67795124976E+02  0.00000000000E+00 0. -1.
         11    1    1    2    0    0  0.17575834449E+02 -0.16903004818E+02 -0.24530420433E+02  0.34588481537E+02  0.00000000000E+00 0.  1.
</event>
<event>
 7    1  0.2641580E-009  0.8533327E+02  0.7561462E-02  0.1314563E+00
          2   -1    0    0  501    0  0.00000000000E+00  0.00000000000E+00  0.24355314344E+03  0.24355314344E+03  0.00000000000E+00 0. -1.
         -2   -1    0    0    0  501 -0.00000000000E+00 -0.00000000000E+00 -0.50466989024E+02  0.50466989024E+02  0.00000000000E+00 0.  1.
         25    2    1    2    0    0  0.45081875811E+00  0.79940837645E+01  0.76521189221E+02  0.14687050373E+03  0.12510533104E+03 0.  0.
          5    1    3    3  502    0  0.28005302314E+02 -0.29806892489E+02  0.89205593698E+02  0.98223511159E+02  0.41800000000E+01 0.  1.
         -5    1    3    3    0  502 -0.27554483556E+02  0.37800976253E+02 -0.12684404477E+02  0.48646992576E+02  0.41800000000E+01 0.  1.
        -11    1    1    2    0    0  0.27600808011E+02  0.26409089425E+02  0.83420309230E+02  0.91750708984E+02  0.00000000000E+00 0.  1.
         11    1    1    2    0    0 -0.28051626769E+02 -0.34403173190E+02  0.33144655969E+02  0.55398919748E+02  0.00000000000E+00 0. -1.
</event>
<event>
 7    1  0.2641580E-009  0.1273819E+03  0.7561462E-02  0.1231393E+00
          1   -1    0    0  501    0  0.00000000000E+00  0.00000000000E+00  0.20339054547E+03  0.20339054547E+03  0.00000000000E+00 0. -1.
         -1   -1    0    0    0  501 -0.00000000000E+00 -0.00000000000E+00 -0.94739553468E+02  0.94739553468E+02  0.00000000000E+00 0.  1.
         25    2    1    2    0    0  0.54806904575E+02  0.51178505925E+02  0.12675568264E+02  0.14639407685E+03  0.12509004536E+03 0.  0.
          5    1    3    3  502    0  0.91806515297E+02  0.35500713192E+02  0.29182106795E+02  0.10275117832E+03  0.41800000000E+01 0. -1.
         -5    1    3    3    0  502 -0.36999610722E+02  0.15677792733E+02 -0.16506538531E+02  0.43642898538E+02  0.41800000000E+01 0. -1.
        -11    1    1    2    0    0 -0.21205515413E+02  0.24881075719E+02  0.39237286813E+02  0.51071582013E+02  0.00000000000E+00 0. -1.
         11    1    1    2    0    0 -0.33601389162E+02 -0.76059581644E+02  0.56738136926E+02  0.10066444007E+03  0.00000000000E+00 0.  1.
</event>
<event>
 7    1  0.2641580E-009  0.9612480E+02  0.7561462E-02  0.1288663E+00
         -2   -1    0    0    0  501 -0.00000000000E+00  0.00000000000E+00  0.20830895485E+02  0.20830895485E+02  0.00000000000E+00 0.  1.
          2   -1    0    0  501    0  0.00000000000E+00 -0.00000000000E+00 -0.64903442921E+03  0.64903442921E+03  0.00000000000E+00 0. -1.
         25    2    1    2    0    0 -0.24458880077E+02  0.29107480887E+02 -0.42943353466E+03  0.44889328488E+03  0.12508612337E+03 0.  0.
          5    1    3    3  502    0 -0.64981567224E+02  0.29261740513E+02 -0.14569040420E+03  0.16224062319E+03  0.41800000000E+01 0.  1.
         -5    1    3    3    0  502  0.40522687147E+02 -0.15425962592E+00 -0.28374313046E+03  0.28665266168E+03  0.41800000000E+01 0.  1.
        -11    1    1    2    0    0  0.31118173939E+02 -0.49612386399E+02 -0.18792496755E+03  0.19683882509E+03  0.00000000000E+00 0. -1.
         11    1    1    2    0    0 -0.66592938617E+01  0.20504905512E+02 -0.10845031520E+02  0.24133214735E+02  0.00000000000E+00 0.  1.
</event>
<event>
 7    1  0.2641580E-009  0.1608810E+03  0.7561462E-02  0.1187706E+00
          2   -1    0    0  501    0  0.00000000000E+00  0.00000000000E+00  0.29591302740E+02  0.29591302740E+02  0.00000000000E+00 0. -1.
         -2   -1    0    0    0  501 -0.00000000000E+00 -0.00000000000E+00 -0.10582843872E+04  0.10582843872E+04  0.00000000000E+00 0.  1.
         25    2    1    2    0    0  0.89335824864E+02 -0.10569975124E+03 -0.59973902007E+03  0.62808182347E+03  0.12508620132E+03 0.  0.
          5    1    3    3  502    0  0.62261296210E+02 -0.64270681600E+00 -0.35355790233E+03  0.35902304213E+03  0.41800000000E+01 0.  1.
         -5    1    3    3    0  502  0.27074528654E+02 -0.10505704443E+03 -0.24618111774E+03  0.26905878134E+03  0.41800000000E+01 0.  1.
        -11    1    1    2    0    0 -0.37962637433E+02  0.89015513605E+02 -0.17323177759E+03  0.19842926263E+03  0.00000000000E+00 0. -1.
         11    1    1    2    0    0 -0.51373187431E+02  0.16684237638E+02 -0.25572228683E+03  0.26136460387E+03  0.00000000000E+00 0.  1.
</event>
<event>
 7    1  0.2722186E-009  0.8959797E+02  0.7561462E-02  0.1303828E+00
          1   -1    0    0  501    0  0.00000000000E+00  0.00000000000E+00  0.32072834599E+03  0.32072834599E+03  0.00000000000E+00 0. -1.
         -1   -1    0    0    0  501 -0.00000000000E+00 -0.00000000000E+00 -0.43205396469E+02  0.43205396469E+02  0.00000000000E+00 0.  1.
         25    2    1    2    0    0 -0.53647947790E+01 -0.88549246340E+01  0.87890054836E+02  0.15323000979E+03  0.12509030117E+03 0.  0.
          5    1    3    3  502    0  0.32446058697E+02  0.28882800161E+02  0.89552822886E+02  0.99619994765E+02  0.41800000000E+01 0. -1.
         -5    1    3    3    0  502 -0.37810853476E+02 -0.37737724795E+02 -0.16627680499E+01  0.53610015024E+02  0.41800000000E+01 0. -1.
        -11    1    1    2    0    0 -0.75564912199E+01 -0.35230554588E+02  0.13292716534E+03  0.13772408585E+03  0.00000000000E+00 0. -1.
         11    1    1    2    0    0  0.12921285999E+02  0.44085479222E+02  0.56705729340E+02  0.72979646821E+02  0.00000000000E+00 0.  1.
</event>
<event>
 7    1  0.2641580E-009  0.1147304E+03  0.7561462E-02  0.1252052E+00
          1   -1    0    0  501    0  0.00000000000E+00  0.00000000000E+00  0.12229662745E+03  0.12229662745E+03  0.00000000000E+00 0. -1.
         -1   -1    0    0    0  501 -0.00000000000E+00 -0.00000000000E+00 -0.13596610371E+03  0.13596610371E+03  0.00000000000E+00 0.  1.
         25    2    1    2    0    0  0.64303576899E+02 -0.56996893290E+01 -0.36497860439E+02  0.14541626587E+03  0.12508541123E+03 0.  0.
          5    1    3    3  502    0 -0.22689485712E+02  0.28424466540E+02  0.13905047076E+02  0.39161023916E+02  0.41800000000E+01 0.  1.
         -5    1    3    3    0  502  0.86993062610E+02 -0.34124155869E+02 -0.50402907515E+02  0.10625524195E+03  0.41800000000E+01 0.  1.
        -11    1    1    2    0    0 -0.31457329736E+02  0.40616396566E+02 -0.13007076053E+02  0.52994710034E+02  0.00000000000E+00 0.  1.
         11    1    1    2    0    0 -0.32846247163E+02 -0.34916707237E+02  0.35835460240E+02  0.59851755259E+02  0.00000000000E+00 0. -1.
</event>
<event>
 7    1  0.3267975E-009  0.1125966E+03  0.7561462E-02  0.1255836E+00
         -1   -1    0    0    0  501 -0.00000000000E+00  0.00000000000E+00  0.48256196555E+02  0.48256196555E+02  0.00000000000E+00 0.  1.
          1   -1    0    0  501    0  0.00000000000E+00 -0.00000000000E+00 -0.53567275837E+03  0.53567275837E+03  0.00000000000E+00 0. -1.
         25    2    1    2    0    0  0.19488850986E+02 -0.79910697980E+02 -0.10674200053E+03  0.18385708007E+03  0.12507612182E+03 0.  0.
          5    1    3    3  502    0 -0.14995011939E+02  0.26073772568E+02 -0.13339883253E+01  0.30396445908E+02  0.41800000000E+01 0.  1.
         -5    1    3    3    0  502  0.34483862926E+02 -0.10598447055E+03 -0.10540801221E+03  0.15346063416E+03  0.41800000000E+01 0.  1.
        -11    1    1    2    0    0 -0.21312169687E+02  0.68496217437E+02 -0.38177907128E+03  0.38846003610E+03  0.00000000000E+00 0. -1.
         11    1    1    2    0    0  0.18233187009E+01  0.11414480543E+02  0.11045099890E+01  0.11611838764E+02  0.00000000000E+00 0.  1.
</event>
<event>
 7    1  0.2641580E-009  0.1175719E+03  0.7561462E-02  0.1247157E+00
         -2   -1    0    0    0  501 -0.00000000000E+00  0.00000000000E+00  0.60645355532E+02  0.60645355532E+02  0.00000000000E+00 0.  1.
          2   -1    0    0  501    0  0.00000000000E+00 -0.00000000000E+00 -0.24073326565E+03  0.24073326565E+03  0.00000000000E+00 0. -1.
         25    2    1    2    0    0 -0.58124761448E+01  0.51839872318E+02 -0.90964127721E+02  0.16322254156E+03  0.12508384509E+03 0.  0.
          5    1    3    3  502    0  0.27722783384E+02 -0.30026113335E+02 -0.79696728473E+01  0.41846245780E+02  0.41800000000E+01 0.  1.
         -5    1    3    3    0  502 -0.33535259529E+02  0.81865985653E+02 -0.82994454874E+02  0.12137629578E+03  0.41800000000E+01 0.  1.
        -11    1    1    2    0    0 -0.39363129275E+02 -0.45031900274E+02 -0.52993926773E+02  0.79910476556E+02  0.00000000000E+00 0.  1.
         11    1    1    2    0    0  0.45175605420E+02 -0.68079720435E+01 -0.36129855620E+02  0.58245603057E+02  0.00000000000E+00 0. -1.
</event>
<event>
 7    1  0.2641580E-009  0.1475085E+03  0.7561462E-02  0.1203568E+00
          1   -1    0    0  501    0  0.00000000000E+00  0.00000000000E+00  0.44609686156E+03  0.44609686156E+03  0.00000000000E+00 0. -1.
         -1   -1    0    0    0  501 -0.00000000000E+00 -0.00000000000E+00 -0.68665042297E+02  0.68665042297E+02  0.00000000000E+00 0.  1.
         25    2    1    2    0    0  0.12840656513E+03  0.66505081583E+01  0.12695714670E+03  0.21976787395E+03  0.12508927250E+03 0.  0.
          5    1    3    3  502    0  0.49739532524E+01 -0.28798503389E+02  0.76016964194E+02  0.81548422754E+02  0.41800000000E+01 0. -1.
         -5    1    3    3    0  502  0.12343261188E+03  0.35449011548E+02  0.50940182505E+02  0.13821945120E+03  0.41800000000E+01 0. -1.
        -11    1    1    2    0    0 -0.55577695099E+02  0.20559736458E+02  0.18196039874E+03  0.19136658451E+03  0.00000000000E+00 0. -1.
         11    1    1    2    0    0 -0.72828870034E+02 -0.27210244616E+02  0.68514273818E+02  0.10362744540E+03  0.00000000000E+00 0.  1.
</event>
<event>
 7    1  0.2641580E-009  0.1281966E+03  0.7561462E-02  0.1230156E+00
         -1   -1    0    0    0  501 -0.00000000000E+00  0.00000000000E+00  0.78204801112E+02  0.78204801112E+02  0.00000000000E+00 0.  1.
          1   -1    0    0  501    0  0.00000000000E+00 -0.00000000000E+00 -0.32111616382E+03  0.32111616382E+03  0.00000000000E+00 0. -1.
         25    2    1    2    0    0 -0.61975932461E+02  0.60482531049E+02 -0.36511406565E+02  0.15646094465E+03  0.12509113328E+03 0.  0.
          5    1    3    3  502    0  0.29713425071E+02  0.16830026453E+02 -0.42462533294E+02  0.54650494541E+02  0.41800000000E+01 0.  1.
         -5    1    3    3    0  502 -0.91689357532E+02  0.43652504596E+02  0.59511267291E+01  0.10181045011E+03  0.41800000000E+01 0.  1.
        -11    1    1    2    0    0 -0.19736031890E+02 -0.19338189460E+01 -0.99536018364E+01  0.22188393362E+02  0.00000000000E+00 0.  1.
         11    1    1    2    0    0  0.81711964351E+02 -0.58548712103E+02 -0.19644635430E+03  0.22067162692E+03  0.00000000000E+00 0. -1.
</event>
<event>
 7    1  0.2641580E-009  0.1213185E+03  0.7561462E-02  0.1240938E+00
         -2   -1    0    0    0  501 -0.00000000000E+00  0.00000000000E+00  0.41036403182E+02  0.41036403182E+02  0.00000000000E+00 0.  1.
          2   -1    0    0  501    0  0.00000000000E+00 -0.00000000000E+00 -0.43708630769E+03  0.43708630769E+03  0.00000000000E+00 0. -1.
         25    2    1    2    0    0  0.68401786682E+02  0.36692148825E+02 -0.24463159680E+03  0.28551098958E+03  0.12508712489E+03 0.  0.
          5    1    3    3  502    0 -0.39211983132E+01  0.60646250703E+02 -0.16182463454E+03  0.17291046314E+03  0.41800000000E+01 0. -1.
         -5    1    3    3    0  502  0.72322984996E+02 -0.23954101878E+02 -0.82806962259E+02  0.11260052644E+03  0.41800000000E+01 0. -1.
        -11    1    1    2    0    0 -0.82784323826E+02 -0.23885255874E+02 -0.76380978216E+02  0.11514253581E+03  0.00000000000E+00 0.  1.
         11    1    1    2    0    0  0.14382537144E+02 -0.12806892950E+02 -0.75037329494E+02  0.77469185482E+02  0.00000000000E+00 0. -1.
</event>
<event>
 7    1  0.2641580E-009  0.2340439E+03  0.7561462E-02  0.1123825E+00
          1   -1    0    0  501    0  0.00000000000E+00  0.00000000000E+00  0.20851113884E+04  0.20851113884E+04  0.00000000000E+00 0. -1.
         -1   -1    0    0    0  501 -0.00000000000E+00 -0.00000000000E+00 -0.27249485049E+02  0.27249485049E+02  0.00000000000E+00 0.  1.
         25    2    1    2    0    0 -0.19485668315E+03 -0.71373623242E+02  0.87978854600E+03  0.91254665222E+03  0.12510070237E+03 0.  0.
          5    1    3    3  502    0 -0.46833538181E+02 -0.81175062858E+02  0.32850648057E+03  0.34163833407E+03  0.41800000000E+01 0.  1.
         -5    1    3    3    0  502 -0.14802314497E+03  0.98014396154E+01  0.55128206543E+03  0.57090831815E+03  0.41800000000E+01 0.  1.
        -11    1    1    2    0    0  0.54008529385E+02  0.65508816001E+02  0.37810498634E+03  0.38751994389E+03  0.00000000000E+00 0. -1.
         11    1    1    2    0    0  0.14084815376E+03  0.58648072407E+01  0.79996837101E+03  0.81229427734E+03  0.00000000000E+00 0.  1.
</event>
<event>
 7    1  0.2641580E-009  0.9194523E+02  0.7561462E-02  0.1298208E+00
         -1   -1    0    0    0  501 -0.00000000000E+00  0.00000000000E+00  0.71482882598E+02  0.71482882598E+02  0.00000000000E+00 0.  1.
          1   -1    0    0  501    0  0.00000000000E+00 -0.00000000000E+00 -0.29292444977E+03  0.29292444977E+03  0.00000000000E+00 0. -1.
         25    2    1    2    0    0  0.50783048850E+02 -0.46630036879E+02 -0.19853564737E+03  0.24457490959E+03  0.12508878741E+03 0.  0.
          5    1    3    3  502    0  0.76819045688E+01  0.24534639306E+02  0.32702856559E+01  0.26251235247E+02  0.41800000000E+01 0. -1.
         -5    1    3    3    0  502  0.43101144281E+02 -0.71164676185E+02 -0.20180593303E+03  0.21832367434E+03  0.41800000000E+01 0. -1.
        -11    1    1    2    0    0 -0.18095458550E+02  0.35784614465E+02 -0.58097625777E+02  0.70592622656E+02  0.00000000000E+00 0. -1.
         11    1    1    2    0    0 -0.32687590300E+02  0.10845422414E+02  0.35191705973E+02  0.49239800124E+02  0.00000000000E+00 0.  1.
</event>
<event>
 7    1  0.2641580E-009  0.1632686E+03  0.7561462E-02  0.1185055E+00
         -1   -1    0    0    0  501 -0.00000000000E+00  0.00000000000E+00  0.33500530769E+03  0.33500530769E+03  0.00000000000E+00 0.  1.
          1   -1    0    0  501    0  0.00000000000E+00 -0.00000000000E+00 -0.95120220590E+02  0.95120220590E+02  0.00000000000E+00 0. -1.
         25    2    1    2    0    0  0.13115224725E+03 -0.23161299786E+02  0.76862521122E+02  0.19821854746E+03  0.12508152397E+03 0.  0.
          5    1    3    3  502    0  0.68801689414E+02  0.34215644333E+02 -0.90435557749E+01  0.77483166458E+02  0.41800000000E+01 0.  1.
         -5    1    3    3    0  502  0.62350557833E+02 -0.57376944119E+02  0.85906076896E+02  0.12073538100E+03  0.41800000000E+01 0.  1.
        -11    1    1    2    0    0 -0.74884920178E+02  0.61297821316E+02  0.10121263184E+03  0.14003274978E+03  0.00000000000E+00 0.  1.
         11    1    1    2    0    0 -0.56267327069E+02 -0.38136521530E+02  0.61809934139E+02  0.91874231034E+02  0.00000000000E+00 0. -1.
</event>
<event>
 7    1  0.2641580E-009  0.1113956E+03  0.7561462E-02  0.1258007E+00
         -1   -1    0    0    0  501 -0.00000000000E+00  0.00000000000E+00  0.81897939957E+02  0.81897939957E+02  0.00000000000E+00 0.  1.
          1   -1    0    0  501    0  0.00000000000E+00 -0.00000000000E+00 -0.29109269728E+03  0.29109269728E+03  0.00000000000E+00 0. -1.
         25    2    1    2    0    0 -0.53729739132E+02  0.30096125147E+02 -0.23176431777E+01  0.13944309182E+03  0.12508534194E+03 0.  0.
          5    1    3    3  502    0 -0.67579617369E+02 -0.14534236264E+02 -0.39369838040E+02  0.79659935066E+02  0.41800000000E+01 0.  1.
         -5    1    3    3    0  502  0.13849878237E+02  0.44630361411E+02  0.37052194862E+02  0.59783156750E+02  0.41800000000E+01 0.  1.
        -11    1    1    2    0    0 -0.77557163772E+01 -0.43087949968E+02 -0.10615476650E+03  0.11482838072E+03  0.00000000000E+00 0.  1.
         11    1    1    2    0    0  0.61485455509E+02  0.12991824821E+02 -0.10072234766E+03  0.11871916471E+03  0.00000000000E+00 0. -1.
</event>
<event>
 7    1  0.2641580E-009  0.9247582E+02  0.7561462E-02  0.1296965E+00
          2   -1    0    0  501    0  0.00000000000E+00  0.00000000000E+00  0.35097408807E+03  0.35097408807E+03  0.00000000000E+00 0. -1.
         -2   -1    0    0    0  501 -0.00000000000E+00 -0.00000000000E+00 -0.50451038617E+02  0.50451038617E+02  0.00000000000E+00 0.  1.
         25    2    1    2    0    0  0.73053705192E+02 -0.20123677528E+01  0.22667952674E+03  0.26902516882E+03  0.12510012050E+03 0.  0.
          5    1    3    3  502    0  0.35675027219E+02 -0.33720788050E+02  0.21205537803E+03  0.21770336439E+03  0.41800000000E+01 0.  1.
         -5    1    3    3    0  502  0.37378677973E+02  0.31708420297E+02  0.14624148712E+02  0.51321804434E+02  0.41800000000E+01 0. -1.
        -11    1    1    2    0    0 -0.50942767400E+02 -0.20520832179E+02  0.83003669561E+02  0.99528283740E+02  0.00000000000E+00 0. -1.
         11    1    1    2    0    0 -0.22110937792E+02  0.22533199932E+02 -0.91601468541E+01  0.32871674122E+02  0.00000000000E+00 0.  1.
</event>
<event>
 7    1  0.2641580E-009  0.1121772E+03  0.7561462E-02  0.1256590E+00
         -2   -1    0    0    0  501 -0.00000000000E+00  0.00000000000E+00  0.32765940861E+02  0.32765940861E+02  0.00000000000E+00 0.  1.
          2   -1    0    0  501    0  0.00000000000E+00 -0.00000000000E+00 -0.75632704427E+03  0.75632704427E+03  0.00000000000E+00 0. -1.
         25    2    1    2    0    0 -0.96174206688E+02  0.39228290455E+02 -0.51010352849E+03  0.53538941592E+03  0.12509148690E+03 0.  0.
          5    1    3    3  502    0 -0.78375892234E+02  0.90958217622E+01 -0.11987390957E+03  0.14357137964E+03  0.41800000000E+01 0.  1.
         -5    1    3    3    0  502 -0.17798314453E+02  0.30132468693E+02 -0.39022961893E+03  0.39181803628E+03  0.41800000000E+01 0.  1.
        -11    1    1    2    0    0  0.54255037224E+01 -0.15318618833E+02  0.41069599312E+01  0.16761959715E+02  0.00000000000E+00 0.  1.
         11    1    1    2    0    0  0.90748702965E+02 -0.23909671622E+02 -0.21756453485E+03  0.23694160950E+03  0.00000000000E+00 0. -1.
</event>
<event>
 7    1  0.2641580E-009  0.1472978E+03  0.7561462E-02  0.1203833E+00
         -2   -1    0    0    0  501 -0.00000000000E+00  0.00000000000E+00  0.81113547616E+02  0.81113547616E+02  0.00000000000E+00 0.  1.
          2   -1    0    0  501    0  0.00000000000E+00 -0.00000000000E+00 -0.34905595829E+03  0.34905595829E+03  0.00000000000E+00 0. -1.
         25    2    1    2    0    0 -0.11941256362E+03 -0.36308810379E+02 -0.18167298495E+03  0.25343662766E+03  0.12508941090E+03 0.  0.
          5    1    3    3  502    0 -0.25422057119E+02 -0.62446999137E+02 -0.12069619167E+03  0.13831468387E+03  0.41800000000E+01 0. -1.
         -5    1    3    3    0  502 -0.93990506505E+02  0.26138188758E+02 -0.60976793278E+02  0.11512194379E+03  0.41800000000E+01 0. -1.
        -11    1    1    2    0    0  0.36499036897E+02 -0.48654491101E+01  0.14790613632E+02  0.39681413043E+02  0.00000000000E+00 0.  1.
         11    1    1    2    0    0  0.82913526727E+02  0.41174259489E+02 -0.10106003936E+03  0.13705146520E+03  0.00000000000E+00 0. -1.
</event>
<event>
 7    1  0.2641580E-009  0.7057580E+02  0.7561462E-02  0.1358146E+00
          1   -1    0    0  501    0  0.00000000000E+00  0.00000000000E+00  0.16903678852E+03  0.16903678852E+03  0.00000000000E+00 0. -1.
         -1   -1    0    0    0  501 -0.00000000000E+00 -0.00000000000E+00 -0.84020791539E+02  0.84020791539E+02  0.00000000000E+00 0.  1.
         25    2    1    2    0    0  0.45976893108E+02 -0.13190724827E+02  0.42020257765E+02  0.14036229045E+03  0.12509196856E+03 0.  0.
          5    1    3    3  502    0  0.52530619806E+01  0.13382259619E+02  0.78192641302E+02  0.79613071078E+02  0.41800000000E+01 0.  1.
         -5    1    3    3    0  502  0.40723831128E+02 -0.26572984446E+02 -0.36172383537E+02  0.60749219376E+02  0.41800000000E+01 0.  1.
        -11    1    1    2    0    0 -0.55486776790E+02  0.26117191131E+02 -0.55395362790E+01  0.61575778788E+02  0.00000000000E+00 0.  1.
         11    1    1    2    0    0  0.95098836821E+01 -0.12926466304E+02  0.48535275494E+02  0.51119510815E+02  0.00000000000E+00 0. -1.
</event>
<event>
 7    1  0.2641580E-009  0.1137243E+03  0.7561462E-02  0.1253825E+00
         -2   -1    0    0    0  501 -0.00000000000E+00  0.00000000000E+00  0.24506098788E+03  0.24506098788E+03  0.00000000000E+00 0.  1.
          2   -1    0    0  501    0  0.00000000000E+00 -0.00000000000E+00 -0.61589295376E+02  0.61589295376E+02  0.00000000000E+00 0. -1.
         25    2    1    2    0    0 -0.40682768247E+02  0.33644741056E+02  0.71382351928E+02  0.15337341784E+03  0.12506361941E+03 0.  0.
          5    1    3    3  502    0 -0.44006009510E+02 -0.33611040930E+02  0.65170417878E+02  0.85620597475E+02  0.41800000000E+01 0. -1.
         -5    1    3    3    0  502  0.33232412632E+01  0.67255781986E+02  0.62119340498E+01  0.67752820367E+02  0.41800000000E+01 0. -1.
        -11    1    1    2    0    0  0.42148678356E+02 -0.62594855848E+02  0.78001045920E+02  0.10853013513E+03  0.00000000000E+00 0.  1.
         11    1    1    2    0    0 -0.14659101085E+01  0.28950114793E+02  0.34088294656E+02  0.44746730289E+02  0.00000000000E+00 0. -1.
</event>
<event>
 7    1  0.2641580E-009  0.9511387E+02  0.7561462E-02  0.1290920E+00
         -1   -1    0    0    0  501 -0.00000000000E+00  0.00000000000E+00  0.56450975358E+03  0.56450975358E+03  0.00000000000E+00 0.  1.
          1   -1    0    0  501    0  0.00000000000E+00 -0.00000000000E+00 -0.33201493162E+02  0.33201493162E+02  0.00000000000E+00 0. -1.
         25    2    1    2    0    0  0.40208024884E+02 -0.70877875686E+02  0.32006074006E+03  0.35316612055E+03  0.12508826024E+03 0.  0.
          5    1    3    3  502    0  0.19221686812E+02 -0.68025252075E+01 -0.47963575255E+01  0.21359425053E+02  0.41800000000E+01 0.  1.
         -5    1    3    3    0  502  0.20986338071E+02 -0.64075350479E+02  0.32485709758E+03  0.33180669549E+03  0.41800000000E+01 0.  1.
        -11    1    1    2    0    0 -0.53148593021E+02  0.34791774525E+02  0.19080000318E+03  0.20109669746E+03  0.00000000000E+00 0.  1.
         11    1    1    2    0    0  0.12940568138E+02  0.36086101161E+02  0.20447517177E+02  0.43448428734E+02  0.00000000000E+00 0. -1.
</event>
<event>
 7    1  0.2641580E-009  0.1334102E+03  0.7561462E-02  0.1222482E+00
         -2   -1    0    0    0  501 -0.00000000000E+00  0.00000000000E+00  0.69898683692E+03  0.69898683692E+03  0.00000000000E+00 0.  1.
          2   -1    0    0  501    0  0.00000000000E+00 -0.00000000000E+00 -0.34354726806E+02  0.34354726806E+02  0.00000000000E+00 0. -1.
         25    2    1    2    0    0  0.63189578195E+02 -0.61156266603E+02  0.19827542248E+03  0.25038511348E+03  0.12508617091E+03 0.  0.
          5    1    3    3  502    0 -0.20581347508E+02 -0.65555097747E+02  0.85381802628E+02  0.10967491658E+03  0.41800000000E+01 0.  1.
         -5    1    3    3    0  502  0.83770925703E+02  0.43988311437E+01  0.11289361986E+03  0.14071019690E+03  0.41800000000E+01 0.  1.
        -11    1    1    2    0    0 -0.36013866229E+02  0.75217761420E+02  0.41398659694E+03  0.42230274998E+03  0.00000000000E+00 0.  1.
         11    1    1    2    0    0 -0.27175711966E+02 -0.14061494817E+02  0.52370090692E+02  0.60653700270E+02  0.00000000000E+00 0. -1.
</event>
<event>
 7    1  0.2641580E-009  0.8905534E+02  0.7561462E-02  0.1305156E+00
         -2   -1    0    0    0  501 -0.00000000000E+00  0.00000000000E+00  0.10602156555E+03  0.10602156555E+03  0.00000000000E+00 0.  1.
          2   -1    0    0  501    0  0.00000000000E+00 -0.00000000000E+00 -0.12358432356E+03  0.12358432356E+03  0.00000000000E+00 0. -1.
         25    2    1    2    0    0 -0.10574004468E+02 -0.45219591528E+02 -0.50050018819E+02  0.14250628987E+03  0.12508563963E+03 0.  0.
          5    1    3    3  502    0  0.53378366278E+02 -0.27631386425E+02 -0.46220154152E+02  0.75937596433E+02  0.41800000000E+01 0.  1.
         -5    1    3    3    0  502 -0.63952370746E+02 -0.17588205104E+02 -0.38298646669E+01  0.66568693439E+02  0.41800000000E+01 0.  1.
        -11    1    1    2    0    0 -0.45949281343E+01  0.28327234233E+02 -0.16502990829E+02  0.33104293833E+02  0.00000000000E+00 0. -1.
         11    1    1    2    0    0  0.15168932602E+02  0.16892357295E+02  0.48990251637E+02  0.53995305414E+02  0.00000000000E+00 0.  1.
</event>
<event>
 7    1  0.2641580E-009  0.1056434E+03  0.7561462E-02  0.1268857E+00
          1   -1    0    0  501    0  0.00000000000E+00  0.00000000000E+00  0.27179841467E+03  0.27179841467E+03  0.00000000000E+00 0. -1.
         -1   -1    0    0    0  501 -0.00000000000E+00 -0.00000000000E+00 -0.52973006484E+02  0.52973006484E+02  0.00000000000E+00 0.  1.
         25    2    1    2    0    0  0.22015715744E+02  0.44625640584E+02  0.13429394889E+03  0.19015346409E+03  0.12508931074E+03 0.  0.
          5    1    3    3  502    0  0.47371621561E+02 -0.17315655274E+02  0.10581690633E+03  0.11729702687E+03  0.41800000000E+01 0.  1.
         -5    1    3    3    0  502 -0.25355905817E+02  0.61941295859E+02  0.28477042555E+02  0.72856437225E+02  0.41800000000E+01 0.  1.
        -11    1    1    2    0    0  0.23030962332E+02  0.79659549935E+01 -0.12175929763E+01  0.24400086015E+02  0.00000000000E+00 0.  1.
         11    1    1    2    0    0 -0.45046678076E+02 -0.52591595578E+02  0.85749052272E+02  0.11021787104E+03  0.00000000000E+00 0. -1.
</event>
<event>
 7    1  0.2641580E-009  0.1246709E+03  0.7561462E-02  0.1235585E+00
         -2   -1    0    0    0  501 -0.00000000000E+00  0.00000000000E+00  0.57780979484E+03  0.57780979484E+03  0.00000000000E+00 0.  1.
          2   -1    0    0  501    0  0.00000000000E+00 -0.00000000000E+00 -0.31901446034E+02  0.31901446034E+02  0.00000000000E+00 0. -1.
         25    2    1    2    0    0 -0.71563959087E+02 -0.31313685468E+02  0.28132097160E+03  0.31763530414E+03  0.12509496488E+03 0.  0.
          5    1    3    3  502    0  0.70051721023E+01 -0.61495006070E+02  0.99824791156E+02  0.11752944115E+03  0.41800000000E+01 0.  1.
         -5    1    3    3    0  502 -0.78569131189E+02  0.30181320602E+02  0.18149618044E+03  0.20010586299E+03  0.41800000000E+01 0.  1.
        -11    1    1    2    0    0  0.84184581907E+02  0.32760593558E+02  0.26436275068E+03  0.27937065749E+03  0.00000000000E+00 0.  1.
         11    1    1    2    0    0 -0.12620622821E+02 -0.14469080899E+01  0.22462652765E+00  0.12705279236E+02  0.00000000000E+00 0. -1.
</event>
<event>
 7    1  0.2641580E-009  0.8794501E+02  0.7561462E-02  0.1307906E+00
         -2   -1    0    0    0  501 -0.00000000000E+00  0.00000000000E+00  0.73384608751E+02  0.73384608751E+02  0.00000000000E+00 0. -1.
          2   -1    0    0  501    0  0.00000000000E+00 -0.00000000000E+00 -0.24192174686E+03  0.24192174686E+03  0.00000000000E+00 0.  1.
         25    2    1    2    0    0 -0.10529773266E+02  0.58489044126E+02 -0.35793580531E+02  0.14304290356E+03  0.12509295522E+03 0.  0.
          5    1    3    3  502    0  0.68079422954E+01  0.58058286202E+02  0.36191852358E+02  0.68879861005E+02  0.41800000000E+01 0.  1.
         -5    1    3    3    0  502 -0.17337715561E+02  0.43075792334E+00 -0.71985432889E+02  0.74163042558E+02  0.41800000000E+01 0.  1.
        -11    1    1    2    0    0  0.21550644024E+02  0.14275901974E+02 -0.73095391764E+02  0.77531722103E+02  0.00000000000E+00 0.  1.
         11    1    1    2    0    0 -0.11020870759E+02 -0.72764946100E+02 -0.59648165808E+02  0.94731729940E+02  0.00000000000E+00 0. -1.
</event>
<event>
 7    1  0.2641580E-009  0.1678360E+03  0.7561462E-02  0.1180124E+00
         -2   -1    0    0    0  501 -0.00000000000E+00  0.00000000000E+00  0.26592452057E+02  0.26592452057E+02  0.00000000000E+00 0.  1.
          2   -1    0    0  501    0  0.00000000000E+00 -0.00000000000E+00 -0.12451053748E+04  0.12451053748E+04  0.00000000000E+00 0. -1.
         25    2    1    2    0    0  0.41521426769E+02 -0.13502322464E+03 -0.51917621940E+03  0.55240165864E+03  0.12509334758E+03 0.  0.
          5    1    3    3  502    0 -0.19359355793E+02 -0.10054595857E+03 -0.41038872862E+03  0.42299013631E+03  0.41800000000E+01 0. -1.
         -5    1    3    3    0  502  0.60880782562E+02 -0.34477266072E+02 -0.10878749078E+03  0.12941152233E+03  0.41800000000E+01 0. -1.
        -11    1    1    2    0    0 -0.41487496074E+02  0.16607471037E+02 -0.12166553812E+03  0.12961297616E+03  0.00000000000E+00 0.  1.
         11    1    1    2    0    0 -0.33930695576E-01  0.11841575360E+03 -0.57767116527E+03  0.58968319209E+03  0.00000000000E+00 0. -1.
</event>
<event>
 7    1  0.2641580E-009  0.8372228E+02  0.7561462E-02  0.1318808E+00
         -3   -1    0    0    0  501 -0.00000000000E+00  0.00000000000E+00  0.84313656022E+02  0.84313656022E+02  0.00000000000E+00 0.  1.
          3   -1    0    0  501    0  0.00000000000E+00 -0.00000000000E+00 -0.24892288894E+03  0.24892288894E+03  0.00000000000E+00 0. -1.
         25    2    1    2    0    0 -0.63904683338E+02  0.93799907276E+01 -0.17052994146E+03  0.22113006552E+03  0.12508497977E+03 0.  0.
          5    1    3    3  502    0 -0.70340203674E+02 -0.16867431198E+01 -0.18700732016E+03  0.19984944220E+03  0.41800000000E+01 0.  1.
         -5    1    3    3    0  502  0.64355203355E+01  0.11066733847E+02  0.16477378698E+02  0.21280623318E+02  0.41800000000E+01 0.  1.
        -11    1    1    2    0    0  0.23112782997E+02 -0.29931456273E+02  0.40053769184E+02  0.55085363195E+02  0.00000000000E+00 0.  1.
         11    1    1    2    0    0  0.40791900341E+02  0.20551465545E+02 -0.34133060644E+02  0.57021116250E+02  0.00000000000E+00 0. -1.
</event>
<event>
 7    1  0.2641580E-009  0.8775536E+02  0.7561462E-02  0.1308380E+00
         -1   -1    0    0    0  501 -0.00000000000E+00  0.00000000000E+00  0.26721122295E+03  0.26721122295E+03  0.00000000000E+00 0.  1.
          1   -1    0    0  501    0  0.00000000000E+00 -0.00000000000E+00 -0.62884318587E+02  0.62884318587E+02  0.00000000000E+00 0. -1.
         25    2    1    2    0    0  0.23604868854E+02  0.13545633674E+02  0.11933810351E+03  0.17501242674E+03  0.12508833894E+03 0.  0.
          5    1    3    3  502    0  0.34517253362E+02  0.17680020656E+02  0.14304103517E+03  0.14826406865E+03  0.41800000000E+01 0.  1.
         -5    1    3    3    0  502 -0.10912384508E+02 -0.41343869812E+01 -0.23702931657E+02  0.26748358090E+02  0.41800000000E+01 0.  1.
        -11    1    1    2    0    0  0.21269515007E+02  0.45335673873E+02  0.12812932116E+02  0.51690297190E+02  0.00000000000E+00 0. -1.
         11    1    1    2    0    0 -0.44874383861E+02 -0.58881307547E+02  0.72175868737E+02  0.10339281761E+03  0.00000000000E+00 0.  1.
</event>
<event>
 7    1  0.2641580E-009  0.2730600E+03  0.7561462E-02  0.1099541E+00
         -4   -1    0    0    0  501 -0.00000000000E+00  0.00000000000E+00  0.40914451285E+03  0.40914451285E+03  0.00000000000E+00 0.  1.
          4   -1    0    0  501    0  0.00000000000E+00 -0.00000000000E+00 -0.21683160295E+03  0.21683160295E+03  0.00000000000E+00 0. -1.
         25    2    1    2    0    0 -0.20962537833E+03  0.16895092179E+03  0.13905821986E+03  0.32782616626E+03  0.12508234711E+03 0.  0.
          5    1    3    3  502    0 -0.11439089157E+03  0.13015067260E+03  0.26555504987E+02  0.17534862673E+03  0.41800000000E+01 0.  1.
         -5    1    3    3    0  502 -0.95234486755E+02  0.38800249197E+02  0.11250271487E+03  0.15247753952E+03  0.41800000000E+01 0.  1.
        -11    1    1    2    0    0  0.11771612800E+03 -0.82980708512E+02 -0.30183667463E+02  0.14715277285E+03  0.00000000000E+00 0. -1.
         11    1    1    2    0    0  0.91909250326E+02 -0.85970213283E+02  0.83438357505E+02  0.15099717670E+03  0.00000000000E+00 0.  1.
</event>
<event>
 7    1  0.2641580E-009  0.1205721E+03  0.7561462E-02  0.1242156E+00
          1   -1    0    0  501    0  0.00000000000E+00  0.00000000000E+00  0.66167374402E+03  0.66167374402E+03  0.00000000000E+00 0. -1.
         -1   -1    0    0    0  501 -0.00000000000E+00 -0.00000000000E+00 -0.23841975518E+02  0.23841975518E+02  0.00000000000E+00 0.  1.
         25    2    1    2    0    0 -0.54408894738E+02 -0.14440890124E+02  0.28952940374E+03  0.32038099724E+03  0.12509132916E+03 0.  0.
          5    1    3    3  502    0  0.34620920600E+02 -0.23416322972E+02  0.13906086139E+03  0.14526640319E+03  0.41800000000E+01 0.  1.
         -5    1    3    3    0  502 -0.89029815338E+02  0.89754328478E+01  0.15046854235E+03  0.17511459405E+03  0.41800000000E+01 0.  1.
        -11    1    1    2    0    0  0.58885481942E+01  0.49405207586E+02  0.16199892772E+03  0.16946740725E+03  0.00000000000E+00 0. -1.
         11    1    1    2    0    0  0.48520346544E+02 -0.34964317461E+02  0.18630343704E+03  0.19566731504E+03  0.00000000000E+00 0.  1.
</event>
<event>
 7    1  0.2641580E-009  0.9850009E+02  0.7561462E-02  0.1283482E+00
          1   -1    0    0  501    0  0.00000000000E+00  0.00000000000E+00  0.69712614837E+03  0.69712614837E+03  0.00000000000E+00 0. -1.
         -1   -1    0    0    0  501 -0.00000000000E+00 -0.00000000000E+00 -0.18840948067E+02  0.18840948067E+02  0.00000000000E+00 0.  1.
         25    2    1    2    0    0 -0.28493008262E+02  0.50671350803E+01  0.33160574862E+03  0.35559445013E+03  0.12509001985E+03 0.  0.
          5    1    3    3  502    0  0.34693855690E+02 -0.22984434966E+01  0.26545961965E+02  0.43944362116E+02  0.41800000000E+01 0.  1.
         -5    1    3    3    0  502 -0.63186863953E+02  0.73655785769E+01  0.30505978665E+03  0.31165008801E+03  0.41800000000E+01 0.  1.
        -11    1    1    2    0    0  0.28879226224E+02 -0.47609615368E+02  0.18601322256E+03  0.19416900924E+03  0.00000000000E+00 0.  1.
         11    1    1    2    0    0 -0.38621796189E+00  0.42542480287E+02  0.16066622912E+03  0.16620363707E+03  0.00000000000E+00 0. -1.
</event>
<event>
 7    1  0.2641580E-009  0.2539226E+03  0.7561462E-02  0.1110851E+00
          2   -1    0    0  501    0  0.00000000000E+00  0.00000000000E+00  0.15674001851E+04  0.15674001851E+04  0.00000000000E+00 0. -1.
         -2   -1    0    0    0  501 -0.00000000000E+00 -0.00000000000E+00 -0.60801982115E+02  0.60801982115E+02  0.00000000000E+00 0.  1.
         25    2    1    2    0    0  0.16747856953E+03  0.18752946684E+03  0.11427226998E+04  0.11767270700E+04  0.12512016827E+03 0.  0.
          5    1    3    3  502    0  0.53851015053E+02  0.97133571576E+02  0.26970445788E+03  0.29170675266E+03  0.41800000000E+01 0.  1.
         -5    1    3    3    0  502  0.11362755447E+03  0.90395895262E+02  0.87301824193E+03  0.88502031737E+03  0.41800000000E+01 0.  1.
        -11    1    1    2    0    0 -0.76443571608E+02 -0.87762911125E+02  0.93680475160E+02  0.14940542037E+03  0.00000000000E+00 0.  1.
         11    1    1    2    0    0 -0.91034997919E+02 -0.99766555713E+02  0.27019502801E+03  0.30206967681E+03  0.00000000000E+00 0. -1.
</event>
<event>
 7    1  0.2641580E-009  0.1021625E+03  0.7561462E-02  0.1275813E+00
          2   -1    0    0  501    0  0.00000000000E+00  0.00000000000E+00  0.18242914935E+03  0.18242914935E+03  0.00000000000E+00 0. -1.
         -2   -1    0    0    0  501 -0.00000000000E+00 -0.00000000000E+00 -0.10706490349E+03  0.10706490349E+03  0.00000000000E+00 0.  1.
         25    2    1    2    0    0 -0.77859852252E+02  0.40751338091E+02  0.50048462007E+02  0.16084840552E+03  0.12507810703E+03 0.  0.
          5    1    3    3  502    0 -0.57303126120E+01 -0.50089504077E+01 -0.37481049696E+02  0.38473725491E+02  0.41800000000E+01 0. -1.
         -5    1    3    3    0  502 -0.72129539640E+02  0.45760288498E+02  0.87529511703E+02  0.12237468002E+03  0.41800000000E+01 0. -1.
        -11    1    1    2    0    0  0.11255925569E+02  0.18050396773E+02 -0.19746428319E+02  0.29024715597E+02  0.00000000000E+00 0.  1.
         11    1    1    2    0    0  0.66603926683E+02 -0.58801734864E+02  0.45062212176E+02  0.99620931730E+02  0.00000000000E+00 0. -1.
</event>
<event>
 7    1  0.2641580E-009  0.1176432E+03  0.7561462E-02  0.1247036E+00
          4   -1    0    0  501    0  0.00000000000E+00  0.00000000000E+00  0.64897401261E+02  0.64897401261E+02  0.00000000000E+00 0. -1.
         -4   -1    0    0    0  501 -0.00000000000E+00 -0.00000000000E+00 -0.29614274154E+03  0.29614274154E+03  0.00000000000E+00 0.  1.
         25    2    1    2    0    0  0.21590938583E+02 -0.46179632133E+02 -0.35942117741E+02  0.13977685419E+03  0.12508799338E+03 0.  0.
          5    1    3    3  502    0 -0.20593075634E+02  0.36336109320E+02 -0.66738548183E+01  0.42501768701E+02  0.41800000000E+01 0. -1.
         -5    1    3    3    0  502  0.42184014217E+02 -0.82515741453E+02 -0.29268262923E+02  0.97275085492E+02  0.41800000000E+01 0. -1.
        -11    1    1    2    0    0  0.26216185875E+01 -0.25114486954E+02 -0.76977460234E+02  0.81013207090E+02  0.00000000000E+00 0.  1.
         11    1    1    2    0    0 -0.24212557170E+02  0.71294119087E+02 -0.11832576231E+03  0.14025008152E+03  0.00000000000E+00 0. -1.
</event>
<event>
 6    1  0.2641580E-009  0.1732116E+03  0.7561462E-02  0.1174539E+00
         -1   -1    0    0    0  501 -0.00000000000E+00  0.00000000000E+00  0.33008355641E+03  0.33008355641E+03  0.00000000000E+00 0.  1.
          1   -1    0    0  501    0  0.00000000000E+00 -0.00000000000E+00 -0.14143433467E+03  0.14143433467E+03  0.00000000000E+00 0. -1.
          5    1    1    2  502    0  0.15143660204E+03  0.47738199858E+02  0.20145434606E+03  0.25654104176E+03  0.41800000000E+01 0.  1.
         -5    1    1    2    0  502 -0.28531935095E+01 -0.32265617015E+02  0.19841987789E+02  0.38215018435E+02  0.41800000000E+01 0.  1.
        -11    1    1    2    0    0 -0.64532714981E+02  0.13671906521E+02 -0.54029819419E+02  0.85267893824E+02  0.00000000000E+00 0. -1.
         11    1    1    2    0    0 -0.84050693546E+02 -0.29144489364E+02  0.21382707315E+02  0.91493937056E+02  0.00000000000E+00 0.  1.
</event>
<event>
 7    1  0.2641580E-009  0.1371182E+03  0.7561462E-02  0.1217260E+00
          2   -1    0    0  501    0  0.00000000000E+00  0.00000000000E+00  0.20784156739E+03  0.20784156739E+03  0.00000000000E+00 0.  1.
         -2   -1    0    0    0  501 -0.00000000000E+00 -0.00000000000E+00 -0.10762919416E+03  0.10762919416E+03  0.00000000000E+00 0. -1.
         25    2    1    2    0    0 -0.36927720135E+02 -0.91541743483E+02  0.84053746199E+02  0.18015232133E+03  0.12508508831E+03 0.  0.
          5    1    3    3  502    0  0.28525982805E+02 -0.68213185410E+02  0.41407573102E+01  0.74171346421E+02  0.41800000000E+01 0. -1.
         -5    1    3    3    0  502 -0.65453702941E+02 -0.23328558073E+02  0.79912988889E+02  0.10598097491E+03  0.41800000000E+01 0. -1.
        -11    1    1    2    0    0 -0.25225913949E+02  0.49421493373E+02 -0.88355596597E+01  0.56186278185E+02  0.00000000000E+00 0. -1.
         11    1    1    2    0    0  0.62153634085E+02  0.42120250111E+02  0.24994186692E+02  0.79132162031E+02  0.00000000000E+00 0.  1.
</event>
<event>
 7    1  0.2641580E-009  0.2601413E+03  0.7561462E-02  0.1107058E+00
          1   -1    0    0  501    0  0.00000000000E+00  0.00000000000E+00  0.19822182583E+04  0.19822182583E+04  0.00000000000E+00 0. -1.
         -1   -1    0    0    0  501 -0.00000000000E+00 -0.00000000000E+00 -0.53241423969E+02  0.53241423969E+02  0.00000000000E+00 0.  1.
         25    2    1    2    0    0 -0.99809524004E+02  0.23524102763E+03  0.15119650906E+04  0.15385013035E+04  0.12509014211E+03 0.  0.
          5    1    3    3  502    0 -0.69098056512E+02  0.84902330929E+02  0.93761518460E+03  0.94399293112E+03  0.41800000000E+01 0.  1.
         -5    1    3    3    0  502 -0.30711467492E+02  0.15033869670E+03  0.57434990598E+03  0.59450837240E+03  0.41800000000E+01 0.  1.
        -11    1    1    2    0    0  0.24157270391E+01 -0.29587262827E+02  0.11247918554E+02  0.31745196968E+02  0.00000000000E+00 0.  1.
         11    1    1    2    0    0  0.97393796965E+02 -0.20565376480E+03  0.40576382523E+03  0.46521318181E+03  0.00000000000E+00 0. -1.
</event>
<event>
 7    1  0.2641580E-009  0.1224860E+03  0.7561462E-02  0.1239051E+00
          1   -1    0    0  501    0  0.00000000000E+00  0.00000000000E+00  0.13700639955E+03  0.13700639955E+03  0.00000000000E+00 0. -1.
         -1   -1    0    0    0  501 -0.00000000000E+00 -0.00000000000E+00 -0.18168384437E+03  0.18168384437E+03  0.00000000000E+00 0.  1.
         25    2    1    2    0    0 -0.37352336052E+02  0.73908479847E+02  0.58425881554E+02  0.16099144835E+03  0.12508797866E+03 0.  0.
          5    1    3    3  502    0 -0.70162037638E+02  0.37198327930E+02  0.74562113558E+02  0.10901104671E+03  0.41800000000E+01 0.  1.
         -5    1    3    3    0  502  0.32809701586E+02  0.36710151917E+02 -0.16136232003E+02  0.51980401645E+02  0.41800000000E+01 0.  1.
        -11    1    1    2    0    0 -0.24629790635E+02 -0.88303469634E+01 -0.92418972416E+01  0.27749131137E+02  0.00000000000E+00 0.  1.
         11    1    1    2    0    0  0.61982126687E+02 -0.65078132884E+02 -0.93861429131E+02  0.12994966444E+03  0.00000000000E+00 0. -1.
</event>
<event>
 7    1  0.2641580E-009  0.8859302E+02  0.7561462E-02  0.1306295E+00
         -1   -1    0    0    0  501 -0.00000000000E+00  0.00000000000E+00  0.18740815156E+02  0.18740815156E+02  0.00000000000E+00 0.  1.
          1   -1    0    0  501    0  0.00000000000E+00 -0.00000000000E+00 -0.70737656367E+03  0.70737656367E+03  0.00000000000E+00 0. -1.
         25    2    1    2    0    0  0.30244031365E+02  0.18788803200E+02 -0.39832346057E+03  0.41901755689E+03  0.12508562342E+03 0.  0.
          5    1    3    3  502    0 -0.84351811521E+01 -0.33179313579E+02 -0.32201987183E+02  0.47185373890E+02  0.41800000000E+01 0. -1.
         -5    1    3    3    0  502  0.38679212517E+02  0.51968116780E+02 -0.36612147339E+03  0.37183218300E+03  0.41800000000E+01 0. -1.
        -11    1    1    2    0    0 -0.40838098314E+02  0.14118134830E+02 -0.25124356851E+03  0.25493215318E+03  0.00000000000E+00 0. -1.
         11    1    1    2    0    0  0.10594066949E+02 -0.32906938030E+02 -0.39068719427E+02  0.52167668749E+02  0.00000000000E+00 0.  1.
</event>
<event>
 7    1  0.2650194E-009  0.1055513E+03  0.7561462E-02  0.1269037E+00
          2   -1    0    0  501    0  0.00000000000E+00  0.00000000000E+00  0.68381461077E+03  0.68381461077E+03  0.00000000000E+00 0. -1.
         -2   -1    0    0    0  501 -0.00000000000E+00 -0.00000000000E+00 -0.26359061671E+02  0.26359061671E+02  0.00000000000E+00 0.  1.
         25    2    1    2    0    0 -0.39046696015E+02  0.68768545572E+02  0.34572725019E+03  0.37606912009E+03  0.12508754630E+03 0.  0.
          5    1    3    3  502    0 -0.12487357507E+01  0.86230515395E+02  0.30749822284E+03  0.31938987237E+03  0.41800000000E+01 0. -1.
         -5    1    3    3    0  502 -0.37797960264E+02 -0.17461969823E+02  0.38229027346E+02  0.56679247720E+02  0.41800000000E+01 0. -1.
        -11    1    1    2    0    0 -0.10032274911E+01 -0.19034045512E+02  0.35600283322E+01  0.19390078795E+02  0.00000000000E+00 0.  1.
         11    1    1    2    0    0  0.40049923506E+02 -0.49734500059E+02  0.30816827059E+03  0.31471447355E+03  0.00000000000E+00 0. -1.
</event>
<event>
 7    1  0.2808558E-009  0.1013395E+03  0.7561462E-02  0.1277504E+00
          1   -1    0    0  501    0  0.00000000000E+00  0.00000000000E+00  0.61972071173E+03  0.61972071173E+03  0.00000000000E+00 0. -1.
         -1   -1    0    0    0  501 -0.00000000000E+00 -0.00000000000E+00 -0.29266708238E+02  0.29266708238E+02  0.00000000000E+00 0.  1.
         25    2    1    2    0    0 -0.64453837965E+02  0.44422603110E+02  0.29806181485E+03  0.33258854876E+03  0.12508649967E+03 0.  0.
          5    1    3    3  502    0  0.85926161281E+01  0.11803976858E+02  0.22070664279E+03  0.22122852775E+03  0.41800000000E+01 0. -1.
         -5    1    3    3    0  502 -0.73046454093E+02  0.32618626251E+02  0.77355172061E+02  0.11136002101E+03  0.41800000000E+01 0. -1.
        -11    1    1    2    0    0  0.29709497512E+02  0.18860827278E+02  0.17562670192E+03  0.17911762469E+03  0.00000000000E+00 0. -1.
         11    1    1    2    0    0  0.34744340453E+02 -0.63283430388E+02  0.11676548673E+03  0.13728124652E+03  0.00000000000E+00 0.  1.
</event>
<event>
 7    1  0.2641580E-009  0.1127108E+03  0.7561462E-02  0.1255631E+00
         -1   -1    0    0    0  501 -0.00000000000E+00  0.00000000000E+00  0.61790032541E+02  0.61790032541E+02  0.00000000000E+00 0.  1.
          1   -1    0    0  501    0  0.00000000000E+00 -0.00000000000E+00 -0.29188538900E+03  0.29188538900E+03  0.00000000000E+00 0. -1.
         25    2    1    2    0    0  0.28749629829E+02 -0.72327898172E+02 -0.10780972367E+03  0.18255950049E+03  0.12508864309E+03 0.  0.
          5    1    3    3  502    0 -0.18263678895E+02  0.29571182840E+02 -0.24349948567E+02  0.42642809670E+02  0.41800000000E+01 0.  1.
         -5    1    3    3    0  502  0.47013308723E+02 -0.10189908101E+03 -0.83459775107E+02  0.13991669082E+03  0.41800000000E+01 0.  1.
        -11    1    1    2    0    0 -0.20530063216E+01  0.11572094757E+02  0.14748428884E+02  0.18858535643E+02  0.00000000000E+00 0.  1.
         11    1    1    2    0    0 -0.26696623507E+02  0.60755803414E+02 -0.13703406167E+03  0.15225738541E+03  0.00000000000E+00 0. -1.
</event>
<event>
 7    1  0.2641580E-009  0.1467865E+03  0.7561462E-02  0.1204478E+00
         -2   -1    0    0    0  501 -0.00000000000E+00  0.00000000000E+00  0.79509281579E+02  0.79509281579E+02  0.00000000000E+00 0.  1.
          2   -1    0    0  501    0  0.00000000000E+00 -0.00000000000E+00 -0.30347341467E+03  0.30347341467E+03  0.00000000000E+00 0. -1.
         25    2    1    2    0    0  0.58489092339E+02  0.83348080405E+02 -0.17557275843E+03  0.23841576407E+03  0.12509359146E+03 0.  0.
          5    1    3    3  502    0  0.59910156405E+02  0.11280371562E+03 -0.11969242514E+03  0.17509327267E+03  0.41800000000E+01 0.  1.
         -5    1    3    3    0  502 -0.14210640662E+01 -0.29455635211E+02 -0.55880333288E+02  0.63322491400E+02  0.41800000000E+01 0.  1.
        -11    1    1    2    0    0 -0.11352216194E+01 -0.78420774896E+02 -0.32072426440E+02  0.84733388939E+02  0.00000000000E+00 0.  1.
         11    1    1    2    0    0 -0.57353870719E+02 -0.49273055089E+01 -0.16318948223E+02  0.59833543244E+02  0.00000000000E+00 0. -1.
</event>
<event>
 7    1  0.2641580E-009  0.1132733E+03  0.7561462E-02  0.1254626E+00
         -2   -1    0    0    0  501 -0.00000000000E+00  0.00000000000E+00  0.22034374936E+02  0.22034374936E+02  0.00000000000E+00 0.  1.
          2   -1    0    0  501    0  0.00000000000E+00 -0.00000000000E+00 -0.12861453335E+04  0.12861453335E+04  0.00000000000E+00 0. -1.
         25    2    1    2    0    0 -0.42646597382E+02  0.56720518182E+02 -0.10847424597E+04  0.10942389231E+04  0.12512660590E+03 0.  0.
          5    1    3    3  502    0  0.15738463481E+02  0.79016580178E+02 -0.56335985135E+03  0.56910729541E+03  0.41800000000E+01 0.  1.
         -5    1    3    3    0  502 -0.58385060863E+02 -0.22296061996E+02 -0.52138260835E+03  0.52513162769E+03  0.41800000000E+01 0.  1.
        -11    1    1    2    0    0  0.46954320397E+02 -0.29018913304E+02 -0.31737660781E+02  0.63671694222E+02  0.00000000000E+00 0.  1.
         11    1    1    2    0    0 -0.43077230145E+01 -0.27701604878E+02 -0.14763083806E+03  0.15026909109E+03  0.00000000000E+00 0. -1.
</event>
<event>
 7    1  0.2641580E-009  0.9886787E+02  0.7561462E-02  0.1282695E+00
          1   -1    0    0  501    0  0.00000000000E+00  0.00000000000E+00  0.96167530815E+02  0.96167530815E+02  0.00000000000E+00 0. -1.
         -1   -1    0    0    0  501 -0.00000000000E+00 -0.00000000000E+00 -0.12605681155E+03  0.12605681155E+03  0.00000000000E+00 0.  1.
         25    2    1    2    0    0 -0.12970178433E+02 -0.30141473738E+01 -0.29951294020E+01  0.12583036635E+03  0.12508796777E+03 0.  0.
          5    1    3    3  502    0 -0.16628441549E+02  0.59654496797E+02 -0.86189919892E+01  0.62665169587E+02  0.41800000000E+01 0.  1.
         -5    1    3    3    0  502  0.36582631165E+01 -0.62668644171E+02  0.56238625872E+01  0.63165196759E+02  0.41800000000E+01 0.  1.
        -11    1    1    2    0    0 -0.28339403187E+02 -0.89938780521E+01 -0.41421556839E+02  0.50987812136E+02  0.00000000000E+00 0.  1.
         11    1    1    2    0    0  0.41309581620E+02  0.12008025426E+02  0.14527405503E+02  0.45406163886E+02  0.00000000000E+00 0. -1.
</event>
<event>
 7    1  0.2641580E-009  0.1003868E+03  0.7561462E-02  0.1279485E+00
         -2   -1    0    0    0  501 -0.00000000000E+00  0.00000000000E+00  0.33531703420E+02  0.33531703420E+02  0.00000000000E+00 0.  1.
          2   -1    0    0  501    0  0.00000000000E+00 -0.00000000000E+00 -0.48324070312E+03  0.48324070312E+03  0.00000000000E+00 0. -1.
         25    2    1    2    0    0  0.16872530708E+02 -0.43092208374E+02 -0.35138251096E+03  0.37584426122E+03  0.12509044313E+03 0.  0.
          5    1    3    3  502    0 -0.52093019706E+02 -0.26376829879E+02 -0.11557057837E+03  0.12955095847E+03  0.41800000000E+01 0. -1.
         -5    1    3    3    0  502  0.68965550414E+02 -0.16715378495E+02 -0.23581193259E+03  0.24629330274E+03  0.41800000000E+01 0. -1.
        -11    1    1    2    0    0 -0.23694432090E+02 -0.35949920518E+01 -0.89848177220E+02  0.92989488813E+02  0.00000000000E+00 0. -1.
         11    1    1    2    0    0  0.68219013827E+01  0.46687200426E+02 -0.84783115171E+01  0.47938656513E+02  0.00000000000E+00 0.  1.
</event>
<event>
 7    1  0.2641580E-009  0.8576238E+02  0.7561462E-02  0.1313451E+00
         -1   -1    0    0    0  501 -0.00000000000E+00  0.00000000000E+00  0.37754457902E+02  0.37754457902E+02  0.00000000000E+00 0.  1.
          1   -1    0    0  501    0  0.00000000000E+00 -0.00000000000E+00 -0.32088165345E+03  0.32088165345E+03  0.00000000000E+00 0. -1.
         25    2    1    2    0    0  0.32678330743E+02 -0.11498568384E+01 -0.17568320055E+03  0.21812631492E+03  0.12508120097E+03 0.  0.
          5    1    3    3  502    0  0.47039941630E+02  0.51644028309E+02 -0.12587234289E+03  0.14401798802E+03  0.41800000000E+01 0.  1.
         -5    1    3    3    0  502 -0.14361610887E+02 -0.52793885147E+02 -0.49810857661E+02  0.74108326909E+02  0.41800000000E+01 0.  1.
        -11    1    1    2    0    0 -0.63255990146E+00 -0.12011907311E+02  0.11489104430E+02  0.16633868157E+02  0.00000000000E+00 0.  1.
         11    1    1    2    0    0 -0.32045770841E+02  0.13161764149E+02 -0.11893309943E+03  0.12387592827E+03  0.00000000000E+00 0. -1.
</event>
<event>
 7    1  0.2641580E-009  0.8952668E+02  0.7561462E-02  0.1304002E+00
          2   -1    0    0  501    0  0.00000000000E+00  0.00000000000E+00  0.36972218336E+03  0.36972218336E+03  0.00000000000E+00 0. -1.
         -2   -1    0    0    0  501 -0.00000000000E+00 -0.00000000000E+00 -0.33609206238E+02  0.33609206238E+02  0.00000000000E+00 0.  1.
         25    2    1    2    0    0  0.69505860416E+00  0.24749896800E+02  0.20827879387E+03  0.24421441165E+03  0.12509029692E+03 0.  0.
          5    1    3    3  502    0 -0.76082250490E+01 -0.44936103362E+02  0.36280578275E+02  0.58402835836E+02  0.41800000000E+01 0.  1.
         -5    1    3    3    0  502  0.83032836532E+01  0.69686000162E+02  0.17199821560E+03  0.18581157581E+03  0.41800000000E+01 0.  1.
        -11    1    1    2    0    0 -0.22041905743E+02 -0.33344336518E+02  0.12999720371E+03  0.13600354172E+03  0.00000000000E+00 0. -1.
         11    1    1    2    0    0  0.21346847138E+02  0.85944397178E+01 -0.21630204629E+01  0.23113436230E+02  0.00000000000E+00 0.  1.
</event>
<event>
 7    1  0.2641580E-009  0.1313686E+03  0.7561462E-02  0.1225439E+00
          1   -1    0    0  501    0  0.00000000000E+00  0.00000000000E+00  0.51465638813E+02  0.51465638813E+02  0.00000000000E+00 0. -1.
         -1   -1    0    0    0  501 -0.00000000000E+00 -0.00000000000E+00 -0.54932568746E+03  0.54932568746E+03  0.00000000000E+00 0.  1.
         25    2    1    2    0    0 -0.89814615206E+02 -0.61038360259E+02 -0.14419446508E+03  0.21963167577E+03  0.12511467826E+03 0.  0.
          5    1    3    3  502    0 -0.25685921815E+02 -0.50341490068E+02 -0.14371101553E+03  0.15448093924E+03  0.41800000000E+01 0.  1.
         -5    1    3    3    0  502 -0.64128693391E+02 -0.10696870190E+02 -0.48344954452E+00  0.65150736538E+02  0.41800000000E+01 0.  1.
        -11    1    1    2    0    0  0.50895403804E+02 -0.17044413012E+02 -0.11121253463E+03  0.12348717343E+03  0.00000000000E+00 0.  1.
         11    1    1    2    0    0  0.38919211402E+02  0.78082773271E+02 -0.24245304894E+03  0.25767247707E+03  0.00000000000E+00 0. -1.
</event>
<event>
 7    1  0.2641580E-009  0.1261115E+03  0.7561462E-02  0.1233342E+00
         -1   -1    0    0    0  501 -0.00000000000E+00  0.00000000000E+00  0.51693733086E+03  0.51693733086E+03  0.00000000000E+00 0.  1.
          1   -1    0    0  501    0  0.00000000000E+00 -0.00000000000E+00 -0.37081153921E+02  0.37081153921E+02  0.00000000000E+00 0. -1.
         25    2    1    2    0    0 -0.71067293485E+02 -0.44822120972E+02  0.22744193650E+03  0.27283154593E+03  0.12509050821E+03 0.  0.
          5    1    3    3  502    0  0.27593937138E+02  0.13048720754E+02  0.83031403811E+02  0.88562864108E+02  0.41800000000E+01 0.  1.
         -5    1    3    3    0  502 -0.98661230623E+02 -0.57870841725E+02  0.14441053269E+03  0.18426868182E+03  0.41800000000E+01 0.  1.
        -11    1    1    2    0    0  0.76946596215E+02  0.17370884634E+02  0.23561844111E+03  0.24847248559E+03  0.00000000000E+00 0.  1.
         11    1    1    2    0    0 -0.58793027298E+01  0.27451236337E+02  0.16795799325E+02  0.32714453258E+02  0.00000000000E+00 0. -1.
</event>
<event>
 7    1  0.2641580E-009  0.1152163E+03  0.7561462E-02  0.1251204E+00
         -1   -1    0    0    0  501 -0.00000000000E+00  0.00000000000E+00  0.19910077817E+03  0.19910077817E+03  0.00000000000E+00 0.  1.
          1   -1    0    0  501    0  0.00000000000E+00 -0.00000000000E+00 -0.90363115118E+02  0.90363115118E+02  0.00000000000E+00 0. -1.
         25    2    1    2    0    0 -0.25068116952E+02 -0.76016525754E+02  0.62150402595E+02  0.16099158864E+03  0.12509474967E+03 0.  0.
          5    1    3    3  502    0  0.29536635394E+02  0.18694577762E+01  0.58518659339E+02  0.65710072239E+02  0.41800000000E+01 0. -1.
         -5    1    3    3    0  502 -0.54604752346E+02 -0.77885983530E+02  0.36317432554E+01  0.95281516404E+02  0.41800000000E+01 0. -1.
        -11    1    1    2    0    0 -0.20107247049E+02  0.42842864231E+01 -0.13473173923E+02  0.24580132416E+02  0.00000000000E+00 0. -1.
         11    1    1    2    0    0  0.45175364001E+02  0.71732239331E+02  0.60060434377E+02  0.10389217222E+03  0.00000000000E+00 0.  1.
</event>
<event>
 7    1  0.2641580E-009  0.7330669E+02  0.7561462E-02  0.1349196E+00
         -2   -1    0    0    0  501 -0.00000000000E+00  0.00000000000E+00  0.28485304833E+02  0.28485304833E+02  0.00000000000E+00 0. -1.
          2   -1    0    0  501    0  0.00000000000E+00 -0.00000000000E+00 -0.39337302815E+03  0.39337302815E+03  0.00000000000E+00 0.  1.
         25    2    1    2    0    0 -0.17406745330E+02 -0.13609713112E+02 -0.20634833375E+03  0.24230407646E+03  0.12507362454E+03 0.  0.
          5    1    3    3  502    0 -0.39226483215E+02  0.23135121547E+02 -0.18039046811E+02  0.49161269758E+02  0.41800000000E+01 0. -1.
         -5    1    3    3    0  502  0.21819737884E+02 -0.36744834658E+02 -0.18830928694E+03  0.19314280671E+03  0.41800000000E+01 0. -1.
        -11    1    1    2    0    0 -0.18739887368E+02  0.10934776702E+02 -0.56405455374E+01  0.22418039032E+02  0.00000000000E+00 0. -1.
         11    1    1    2    0    0  0.36146632698E+02  0.26749364098E+01 -0.15289884403E+03  0.15713621749E+03  0.00000000000E+00 0.  1.
</event>
<event>
 7    1  0.2641580E-009  0.1769991E+03  0.7561462E-02  0.1170739E+00
          1   -1    0    0  501    0  0.00000000000E+00  0.00000000000E+00  0.83283256045E+03  0.83283256045E+03  0.00000000000E+00 0. -1.
         -1   -1    0    0    0  501 -0.00000000000E+00 -0.00000000000E+00 -0.59597907673E+02  0.59597907673E+02  0.00000000000E+00 0.  1.
         25    2    1    2    0    0  0.12794764958E+03  0.57321592908E+02  0.13180031363E+03  0.22951024807E+03  0.12508902929E+03 0.  0.
          5    1    3    3  502    0  0.12614916346E+03  0.89850805804E+02  0.11172703950E+03  0.19101618388E+03  0.41800000000E+01 0. -1.
         -5    1    3    3    0  502  0.17984861150E+01 -0.32529212897E+02  0.20073274126E+02  0.38494064193E+02  0.41800000000E+01 0. -1.
        -11    1    1    2    0    0 -0.10175445039E+03  0.15686882774E+01  0.35326762302E+03  0.36763357087E+03  0.00000000000E+00 0. -1.
         11    1    1    2    0    0 -0.26193199191E+02 -0.58890281185E+02  0.28816671613E+03  0.29528664918E+03  0.00000000000E+00 0.  1.
</event>
<event>
 7    1  0.2641580E-009  0.8259465E+02  0.7561462E-02  0.1321845E+00
          1   -1    0    0  501    0  0.00000000000E+00  0.00000000000E+00  0.50655980973E+03  0.50655980973E+03  0.00000000000E+00 0. -1.
         -1   -1    0    0    0  501 -0.00000000000E+00 -0.00000000000E+00 -0.37954883404E+02  0.37954883404E+02  0.00000000000E+00 0.  1.
         25    2    1    2    0    0 -0.11560608908E+02 -0.11736066175E+02  0.42748658048E+03  0.44571738497E+03  0.12509127808E+03 0.  0.
          5    1    3    3  502    0 -0.59098786586E+02 -0.15937893018E+02  0.12264810376E+03  0.13713756876E+03  0.41800000000E+01 0.  1.
         -5    1    3    3    0  502  0.47538177678E+02  0.42018268428E+01  0.30483847672E+03  0.30857981622E+03  0.41800000000E+01 0.  1.
        -11    1    1    2    0    0  0.47969527932E+01 -0.21492039713E+02 -0.19451396637E+02  0.29381547921E+02  0.00000000000E+00 0.  1.
         11    1    1    2    0    0  0.67636561147E+01  0.33228105888E+02  0.60569742487E+02  0.69415760241E+02  0.00000000000E+00 0. -1.
</event>
<event>
 7    1  0.2641580E-009  0.2014624E+03  0.7561462E-02  0.1148511E+00
         -2   -1    0    0    0  501 -0.00000000000E+00  0.00000000000E+00  0.28474226070E+03  0.28474226070E+03  0.00000000000E+00 0.  1.
          2   -1    0    0  501    0  0.00000000000E+00 -0.00000000000E+00 -0.15740427528E+03  0.15740427528E+03  0.00000000000E+00 0. -1.
         25    2    1    2    0    0 -0.22160306963E+01 -0.18146244650E+03  0.81083897059E+02  0.23485153760E+03  0.12508843300E+03 0.  0.
          5    1    3    3  502    0 -0.47962725320E+00  0.17506218246E+02 -0.39394797679E+01  0.18430670645E+02  0.41800000000E+01 0. -1.
         -5    1    3    3    0  502 -0.17364034431E+01 -0.19896866474E+03  0.85023376827E+02  0.21642086695E+03  0.41800000000E+01 0. -1.
        -11    1    1    2    0    0  0.19024836803E+02  0.13791558117E+03  0.68985681915E+02  0.15537591916E+03  0.00000000000E+00 0.  1.
         11    1    1    2    0    0 -0.16808806107E+02  0.43546865322E+02 -0.22731593548E+02  0.51919079222E+02  0.00000000000E+00 0. -1.
</event>
<event>
 7    1  0.2641580E-009  0.1439766E+03  0.7561462E-02  0.1208076E+00
         -3   -1    0    0    0  501 -0.00000000000E+00  0.00000000000E+00  0.16861148769E+03  0.16861148769E+03  0.00000000000E+00 0.  1.
          3   -1    0    0  501    0  0.00000000000E+00 -0.00000000000E+00 -0.15306199782E+03  0.15306199782E+03  0.00000000000E+00 0. -1.
         25    2    1    2    0    0 -0.99247441277E+02  0.49135323053E+02 -0.29775261506E+02  0.16970617474E+03  0.12509710219E+03 0.  0.
          5    1    3    3  502    0  0.10706612562E+01  0.50907765758E+02  0.23265580377E+02  0.56138280703E+02  0.41800000000E+01 0.  1.
         -5    1    3    3    0  502 -0.10031810253E+03 -0.17724427052E+01 -0.53040841882E+02  0.11356789404E+03  0.41800000000E+01 0.  1.
        -11    1    1    2    0    0 -0.69232038069E+01  0.12054098213E+02  0.23782408907E+02  0.27546960052E+02  0.00000000000E+00 0.  1.
         11    1    1    2    0    0  0.10617064508E+03 -0.61189421266E+02  0.21542342474E+02  0.12442035071E+03  0.00000000000E+00 0. -1.
</event>
<event>
 7    1  0.2641580E-009  0.1186990E+03  0.7561462E-02  0.1245259E+00
          2   -1    0    0  501    0  0.00000000000E+00  0.00000000000E+00  0.77546396267E+03  0.77546396267E+03  0.00000000000E+00 0. -1.
         -2   -1    0    0    0  501 -0.00000000000E+00 -0.00000000000E+00 -0.27653611186E+02  0.27653611186E+02  0.00000000000E+00 0.  1.
         25    2    1    2    0    0 -0.71276148050E+01  0.69784492367E+02  0.21828748219E+03  0.26118547250E+03  0.12509095849E+03 0.  0.
          5    1    3    3  502    0  0.35932522874E+02  0.75191088374E+02  0.77784665366E+02  0.11407354004E+03  0.41800000000E+01 0.  1.
         -5    1    3    3    0  502 -0.43060137679E+02 -0.54065960067E+01  0.14050281682E+03  0.14711193246E+03  0.41800000000E+01 0.  1.
        -11    1    1    2    0    0  0.10326008409E+02  0.18942327168E+02  0.53246678642E+02  0.57451257554E+02  0.00000000000E+00 0.  1.
         11    1    1    2    0    0 -0.31983936036E+01 -0.88726819535E+02  0.47627619066E+03  0.48448084380E+03  0.00000000000E+00 0. -1.
</event>
<event>
 7    1  0.2641580E-009  0.1372120E+03  0.7561462E-02  0.1217130E+00
          1   -1    0    0  501    0  0.00000000000E+00  0.00000000000E+00  0.60896966061E+03  0.60896966061E+03  0.00000000000E+00 0. -1.
         -1   -1    0    0    0  501 -0.00000000000E+00 -0.00000000000E+00 -0.46753564411E+02  0.46753564411E+02  0.00000000000E+00 0.  1.
         25    2    1    2    0    0 -0.88789061625E+02 -0.15873489620E+02  0.11902557113E+03  0.19480890668E+03  0.12509179989E+03 0.  0.
          5    1    3    3  502    0  0.25397748416E+02  0.20711412565E+02  0.36257542883E+02  0.49051911797E+02  0.41800000000E+01 0.  1.
         -5    1    3    3    0  502 -0.11418681004E+03 -0.36584902185E+02  0.82768028251E+02  0.14575699488E+03  0.41800000000E+01 0.  1.
        -11    1    1    2    0    0  0.87027377355E+02 -0.16845547918E+02  0.25687264977E+03  0.27173718019E+03  0.00000000000E+00 0.  1.
         11    1    1    2    0    0  0.17616842703E+01  0.32719037539E+02  0.18631787529E+03  0.18917713816E+03  0.00000000000E+00 0. -1.
</event>
<event>
 7    1  0.2740117E-009  0.1689031E+03  0.7561462E-02  0.1178997E+00
          4   -1    0    0  501    0  0.00000000000E+00  0.00000000000E+00  0.26844612456E+03  0.26844612456E+03  0.00000000000E+00 0. -1.
         -4   -1    0    0    0  501 -0.00000000000E+00 -0.00000000000E+00 -0.10873476442E+03  0.10873476442E+03  0.00000000000E+00 0.  1.
         25    2    1    2    0    0 -0.12988911291E+03 -0.20633346299E+02  0.91413466017E+02  0.20322554089E+03  0.12508909652E+03 0.  0.
          5    1    3    3  502    0 -0.48142375867E+02  0.50973278648E+02  0.52607065218E+02  0.87754995306E+02  0.41800000000E+01 0.  1.
         -5    1    3    3    0  502 -0.81746737046E+02 -0.71606624947E+02  0.38806400799E+02  0.11547054558E+03  0.41800000000E+01 0.  1.
        -11    1    1    2    0    0  0.44018620285E+02 -0.35221689947E+02  0.14318764915E+02  0.58165568880E+02  0.00000000000E+00 0.  1.
         11    1    1    2    0    0  0.85870492629E+02  0.55855036246E+02  0.53979129207E+02  0.11578977920E+03  0.00000000000E+00 0. -1.
</event>
<event>
 7    1  0.2641580E-009  0.1391346E+03  0.7561462E-02  0.1214498E+00
          2   -1    0    0  501    0  0.00000000000E+00  0.00000000000E+00  0.15743724100E+03  0.15743724100E+03  0.00000000000E+00 0. -1.
         -2   -1    0    0    0  501 -0.00000000000E+00 -0.00000000000E+00 -0.18099228854E+03  0.18099228854E+03  0.00000000000E+00 0.  1.
         25    2    1    2    0    0 -0.12263930271E+03  0.29500284656E+02  0.14976108511E+02  0.17827630191E+03  0.12508993018E+03 0.  0.
          5    1    3    3  502    0 -0.44867738242E+02  0.48504682890E+02  0.57355341959E+02  0.87595238732E+02  0.41800000000E+01 0.  1.
         -5    1    3    3    0  502 -0.77771564468E+02 -0.19004398234E+02 -0.42379233448E+02  0.90681063181E+02  0.41800000000E+01 0.  1.
        -11    1    1    2    0    0  0.54782615713E+02 -0.32987391752E+02 -0.61211083369E+02  0.88521747193E+02  0.00000000000E+00 0.  1.
         11    1    1    2    0    0  0.67856686997E+02  0.34871070956E+01  0.22679927310E+02  0.71631480432E+02  0.00000000000E+00 0. -1.
</event>
<event>
 7    1  0.2641580E-009  0.2686861E+03  0.7561462E-02  0.1102034E+00
          2   -1    0    0  501    0  0.00000000000E+00  0.00000000000E+00  0.82641001651E+03  0.82641001651E+03  0.00000000000E+00 0.  1.
         -2   -1    0    0    0  501 -0.00000000000E+00 -0.00000000000E+00 -0.10121076914E+03  0.10121076914E+03  0.00000000000E+00 0. -1.
         25    2    1    2    0    0 -0.20904163257E+03 -0.15607424247E+03  0.46795640167E+03  0.55017026716E+03  0.12508619306E+03 0.  0.
          5    1    3    3  502    0 -0.40085269894E+02 -0.24021517180E+02  0.20765396608E+03  0.21288847827E+03  0.41800000000E+01 0.  1.
         -5    1    3    3    0  502 -0.16895636268E+03 -0.13205272529E+03  0.26030243559E+03  0.33728178889E+03  0.41800000000E+01 0.  1.
        -11    1    1    2    0    0  0.21831933231E+03  0.14937420439E+03  0.24320703260E+03  0.35934056897E+03  0.00000000000E+00 0.  1.
         11    1    1    2    0    0 -0.92776997410E+01  0.67000380746E+01  0.14035813093E+02  0.18109949527E+02  0.00000000000E+00 0. -1.
</event>
<event>
 7    1  0.2641580E-009  0.2004041E+03  0.7561462E-02  0.1149399E+00
         -2   -1    0    0    0  501 -0.00000000000E+00  0.00000000000E+00  0.26694249027E+03  0.26694249027E+03  0.00000000000E+00 0.  1.
          2   -1    0    0  501    0  0.00000000000E+00 -0.00000000000E+00 -0.17777617006E+03  0.17777617006E+03  0.00000000000E+00 0. -1.
         25    2    1    2    0    0  0.17762049630E+03 -0.56455830404E+02  0.75573852616E+02  0.23684260160E+03  0.12508680682E+03 0.  0.
          5    1    3    3  502    0  0.14957807860E+03 -0.25638559591E+02  0.15847444982E+01  0.15182529812E+03  0.41800000000E+01 0.  1.
         -5    1    3    3    0  502  0.28042417706E+02 -0.30817270813E+02  0.73989108118E+02  0.85017303481E+02  0.41800000000E+01 0.  1.
        -11    1    1    2    0    0 -0.12461950444E+03 -0.65383326007E+01  0.13794569446E+02  0.12555102877E+03  0.00000000000E+00 0.  1.
         11    1    1    2    0    0 -0.53000991868E+02  0.62994163004E+02 -0.20210185515E+00  0.82325029953E+02  0.00000000000E+00 0. -1.
</event>
<event>
 7    1  0.2641580E-009  0.1011730E+03  0.7561462E-02  0.1277848E+00
         -2   -1    0    0    0  501 -0.00000000000E+00  0.00000000000E+00  0.19025607132E+02  0.19025607132E+02  0.00000000000E+00 0.  1.
          2   -1    0    0  501    0  0.00000000000E+00 -0.00000000000E+00 -0.70456823880E+03  0.70456823880E+03  0.00000000000E+00 0. -1.
         25    2    1    2    0    0 -0.25590976272E+02 -0.28476585454E+02 -0.41701607332E+03  0.43705311825E+03  0.12508880357E+03 0.  0.
          5    1    3    3  502    0  0.12001504759E+02 -0.67189858673E+02 -0.15359340623E+03  0.16812768976E+03  0.41800000000E+01 0.  1.
         -5    1    3    3    0  502 -0.37592481031E+02  0.38713273219E+02 -0.26342266709E+03  0.26892542849E+03  0.41800000000E+01 0.  1.
        -11    1    1    2    0    0  0.43931619924E+02  0.38957579723E+02 -0.25449562182E+03  0.26118135801E+03  0.00000000000E+00 0. -1.
         11    1    1    2    0    0 -0.18340643652E+02 -0.10480994268E+02 -0.14030936533E+02  0.25359369677E+02  0.00000000000E+00 0.  1.
</event>
<event>
 7    1  0.2641580E-009  0.9599810E+02  0.7561462E-02  0.1288944E+00
         -3   -1    0    0    0  501 -0.00000000000E+00  0.00000000000E+00  0.46338767899E+02  0.46338767899E+02  0.00000000000E+00 0.  1.
          3   -1    0    0  501    0  0.00000000000E+00 -0.00000000000E+00 -0.35504909630E+03  0.35504909630E+03  0.00000000000E+00 0. -1.
         25    2    1    2    0    0  0.31906998418E+02  0.38039334421E+02 -0.24626107771E+03  0.28063636380E+03  0.12508877959E+03 0.  0.
          5    1    3    3  502    0 -0.42699883121E+02  0.13942800729E+02 -0.41340048721E+02  0.61189490429E+02  0.41800000000E+01 0.  1.
         -5    1    3    3    0  502  0.74606881539E+02  0.24096533692E+02 -0.20492102899E+03  0.21944687337E+03  0.41800000000E+01 0.  1.
        -11    1    1    2    0    0 -0.38760770928E+01 -0.40078457690E+02 -0.78616539885E+02  0.88328178335E+02  0.00000000000E+00 0. -1.
         11    1    1    2    0    0 -0.28030921325E+02  0.20391232690E+01  0.16167289193E+02  0.32423322068E+02  0.00000000000E+00 0.  1.
</event>
<event>
 7    1  0.2641580E-009  0.1190412E+03  0.7561462E-02  0.1244687E+00
         -2   -1    0    0    0  501 -0.00000000000E+00  0.00000000000E+00  0.21077216546E+02  0.21077216546E+02  0.00000000000E+00 0.  1.
          2   -1    0    0  501    0  0.00000000000E+00 -0.00000000000E+00 -0.14919459371E+04  0.14919459371E+04  0.00000000000E+00 0. -1.
         25    2    1    2    0    0  0.99010945329E+02 -0.43217148660E+02 -0.11608085619E+04  0.11725163683E+04  0.12508887805E+03 0.  0.
          5    1    3    3  502    0 -0.96610038388E+01 -0.12911374838E+02 -0.61147616797E+03  0.61170304478E+03  0.41800000000E+01 0. -1.
         -5    1    3    3    0  502  0.10867194917E+03 -0.30305773822E+02 -0.54933239388E+03  0.56081332352E+03  0.41800000000E+01 0. -1.
        -11    1    1    2    0    0 -0.76177396202E+01  0.65742991609E+01  0.44064547817E+01  0.10984908289E+02  0.00000000000E+00 0.  1.
         11    1    1    2    0    0 -0.91393205709E+02  0.36642849500E+02 -0.31446661351E+03  0.32952187709E+03  0.00000000000E+00 0. -1.
</event>
<event>
 7    1  0.2641580E-009  0.1004639E+03  0.7561462E-02  0.1279323E+00
          1   -1    0    0  501    0  0.00000000000E+00  0.00000000000E+00  0.98093590124E+02  0.98093590124E+02  0.00000000000E+00 0. -1.
         -1   -1    0    0    0  501 -0.00000000000E+00 -0.00000000000E+00 -0.15208738220E+03  0.15208738220E+03  0.00000000000E+00 0.  1.
         25    2    1    2    0    0 -0.43996679341E+02 -0.31621435632E+02 -0.14510093610E+02  0.13708894012E+03  0.12508881526E+03 0.  0.
          5    1    3    3  502    0 -0.71149889419E+02  0.22502105434E+02 -0.15738615839E+02  0.76379499487E+02  0.41800000000E+01 0.  1.
         -5    1    3    3    0  502  0.27153210078E+02 -0.54123541065E+02  0.12285222286E+01  0.60709440632E+02  0.41800000000E+01 0.  1.
        -11    1    1    2    0    0 -0.28036916695E+01  0.15862067744E+02 -0.58119335335E+02  0.60310223179E+02  0.00000000000E+00 0.  1.
         11    1    1    2    0    0  0.46800371011E+02  0.15759367887E+02  0.18635636867E+02  0.52781809029E+02  0.00000000000E+00 0. -1.
</event>
<event>
 7    1  0.2641580E-009  0.1442538E+03  0.7561462E-02  0.1207717E+00
          1   -1    0    0  501    0  0.00000000000E+00  0.00000000000E+00  0.15978145266E+03  0.15978145266E+03  0.00000000000E+00 0. -1.
         -1   -1    0    0    0  501 -0.00000000000E+00 -0.00000000000E+00 -0.19270456907E+03  0.19270456907E+03  0.00000000000E+00 0.  1.
         25    2    1    2    0    0 -0.12013238627E+03  0.68876795951E+02 -0.35596784210E+02  0.18996384389E+03  0.12507328926E+03 0.  0.
          5    1    3    3  502    0 -0.47332365593E+02  0.32416442244E+01  0.43068243205E+02  0.64212203378E+02  0.41800000000E+01 0.  1.
         -5    1    3    3    0  502 -0.72800020682E+02  0.65635151727E+02 -0.78665027415E+02  0.12575164051E+03  0.41800000000E+01 0.  1.
        -11    1    1    2    0    0  0.85789976289E+02 -0.29964236086E+02 -0.36056309517E+02  0.97764169980E+02  0.00000000000E+00 0.  1.
         11    1    1    2    0    0  0.34342409986E+02 -0.38912559866E+02  0.38729977313E+02  0.64758007857E+02  0.00000000000E+00 0. -1.
</event>
<event>
 7    1  0.2641580E-009  0.1188534E+03  0.7561462E-02  0.1245001E+00
          1   -1    0    0  501    0  0.00000000000E+00  0.00000000000E+00  0.98753312501E+03  0.98753312501E+03  0.00000000000E+00 0. -1.
         -1   -1    0    0    0  501 -0.00000000000E+00 -0.00000000000E+00 -0.14885520139E+02  0.14885520139E+02  0.00000000000E+00 0.  1.
         25    2    1    2    0    0 -0.46549131168E+02 -0.27117919552E+02  0.50828295090E+03  0.52621248942E+03  0.12508326295E+03 0.  0.
          5    1    3    3  502    0  0.39781354159E+02  0.53999406182E+01  0.10498151685E+03  0.11247358258E+03  0.41800000000E+01 0.  1.
         -5    1    3    3    0  502 -0.86330485327E+02 -0.32517860170E+02  0.40330143405E+03  0.41373890684E+03  0.41800000000E+01 0.  1.
        -11    1    1    2    0    0 -0.23268564033E+02  0.26380083342E+02  0.13366260122E+03  0.13821369626E+03  0.00000000000E+00 0.  1.
         11    1    1    2    0    0  0.69817695201E+02  0.73783621002E+00  0.33070205275E+03  0.33799245947E+03  0.00000000000E+00 0. -1.
</event>
<event>
 7    1  0.2641580E-009  0.1126766E+03  0.7561462E-02  0.1255692E+00
          2   -1    0    0  501    0  0.00000000000E+00  0.00000000000E+00  0.32721226872E+03  0.32721226872E+03  0.00000000000E+00 0. -1.
         -2   -1    0    0    0  501 -0.00000000000E+00 -0.00000000000E+00 -0.61374873376E+02  0.61374873376E+02  0.00000000000E+00 0.  1.
         25    2    1    2    0    0 -0.67498774047E+02 -0.35577428606E+02  0.21312753909E+03  0.25863748524E+03  0.12509261740E+03 0.  0.
          5    1    3    3  502    0  0.74621989292E+01  0.18358594936E+02 -0.57376173795E+01  0.21050298670E+02  0.41800000000E+01 0. -1.
         -5    1    3    3    0  502 -0.74960972976E+02 -0.53936023542E+02  0.21886515647E+03  0.23758718657E+03  0.41800000000E+01 0. -1.
        -11    1    1    2    0    0 -0.19650411187E+02  0.47539764183E+01 -0.51917348064E+01  0.20873261889E+02  0.00000000000E+00 0.  1.
         11    1    1    2    0    0  0.87149185234E+02  0.30823452187E+02  0.57901591057E+02  0.10907639496E+03  0.00000000000E+00 0. -1.
</event>
<event>
 7    1  0.2641580E-009  0.1048438E+03  0.7561462E-02  0.1270428E+00
          2   -1    0    0  501    0  0.00000000000E+00  0.00000000000E+00  0.12793794371E+03  0.12793794371E+03  0.00000000000E+00 0. -1.
         -2   -1    0    0    0  501 -0.00000000000E+00 -0.00000000000E+00 -0.10708641396E+03  0.10708641396E+03  0.00000000000E+00 0.  1.
         25    2    1    2    0    0 -0.30583751541E+02 -0.19606983642E+02 -0.72317665153E+01  0.13045871688E+03  0.12508948276E+03 0.  0.
          5    1    3    3  502    0  0.31114328440E+02 -0.43546254356E+02  0.21966866268E+02  0.58003390559E+02  0.41800000000E+01 0.  1.
         -5    1    3    3    0  502 -0.61698079981E+02  0.23939270714E+02 -0.29198632783E+02  0.72455326320E+02  0.41800000000E+01 0.  1.
        -11    1    1    2    0    0  0.41148268042E+02  0.45728399927E+02 -0.42677698542E+01  0.61664255304E+02  0.00000000000E+00 0.  1.
         11    1    1    2    0    0 -0.10564516501E+02 -0.26121416286E+02  0.32351066114E+02  0.42901385483E+02  0.00000000000E+00 0. -1.
</event>
<event>
 7    1  0.2641580E-009  0.9519863E+02  0.7561462E-02  0.1290729E+00
          2   -1    0    0  501    0  0.00000000000E+00  0.00000000000E+00  0.33010301172E+03  0.33010301172E+03  0.00000000000E+00 0.  1.
         -2   -1    0    0    0  501 -0.00000000000E+00 -0.00000000000E+00 -0.80481262832E+02  0.80481262832E+02  0.00000000000E+00 0. -1.
         25    2    1    2    0    0  0.88862064642E+02  0.34101999027E+01  0.30308604522E+02  0.15644235795E+03  0.12508998305E+03 0.  0.
          5    1    3    3  502    0  0.81127736388E+02  0.10476212455E+02  0.74568846748E+02  0.11076753109E+03  0.41800000000E+01 0. -1.
         -5    1    3    3    0  502  0.77343282542E+01 -0.70660125520E+01 -0.44260242227E+02  0.45674826862E+02  0.41800000000E+01 0. -1.
        -11    1    1    2    0    0 -0.67809823012E+02 -0.19675087883E+02  0.60100397110E+02  0.92721836225E+02  0.00000000000E+00 0. -1.
         11    1    1    2    0    0 -0.21052241630E+02  0.16264887981E+02  0.15921274725E+03  0.16142008037E+03  0.00000000000E+00 0.  1.
</event>
<event>
 7    1  0.2641580E-009  0.1269808E+03  0.7561462E-02  0.1232006E+00
         -1   -1    0    0    0  501 -0.00000000000E+00  0.00000000000E+00  0.40469331618E+03  0.40469331618E+03  0.00000000000E+00 0.  1.
          1   -1    0    0  501    0  0.00000000000E+00 -0.00000000000E+00 -0.78481416252E+02  0.78481416252E+02  0.00000000000E+00 0. -1.
         25    2    1    2    0    0 -0.29989613831E+01  0.83520417756E+02  0.31929967714E+03  0.35296366045E+03  0.12508560200E+03 0.  0.
          5    1    3    3  502    0 -0.41371086264E+02  0.94701832017E+02  0.17604930582E+03  0.20418333489E+03  0.41800000000E+01 0.  1.
         -5    1    3    3    0  502  0.38372124880E+02 -0.11181414261E+02  0.14325037132E+03  0.14878032556E+03  0.41800000000E+01 0.  1.
        -11    1    1    2    0    0  0.26614351323E+02 -0.82525178754E+02  0.34994284009E+02  0.93505768474E+02  0.00000000000E+00 0.  1.
         11    1    1    2    0    0 -0.23615389939E+02 -0.99523900287E+00 -0.28082061222E+02  0.36705303502E+02  0.00000000000E+00 0. -1.
</event>
<event>
 7    1  0.2641580E-009  0.8241615E+02  0.7561462E-02  0.1322331E+00
          2   -1    0    0  501    0  0.00000000000E+00  0.00000000000E+00  0.12744849731E+03  0.12744849731E+03  0.00000000000E+00 0. -1.
         -2   -1    0    0    0  501 -0.00000000000E+00 -0.00000000000E+00 -0.14814467280E+03  0.14814467280E+03  0.00000000000E+00 0.  1.
         25    2    1    2    0    0  0.75513249321E+01 -0.49747375146E+02 -0.78840297366E+02  0.15619280006E+03  0.12509426230E+03 0.  0.
          5    1    3    3  502    0  0.37797090606E+02 -0.45246457535E+02  0.11949724299E+02  0.60300334067E+02  0.41800000000E+01 0. -1.
         -5    1    3    3    0  502 -0.30245765674E+02 -0.45009176109E+01 -0.90790021666E+02  0.95892465995E+02  0.41800000000E+01 0. -1.
        -11    1    1    2    0    0 -0.26329794583E+02  0.49520197941E+02 -0.22739402393E+01  0.56130908519E+02  0.00000000000E+00 0.  1.
         11    1    1    2    0    0  0.18778469651E+02  0.22717720448E+00  0.60418062122E+02  0.63269461532E+02  0.00000000000E+00 0. -1.
</event>
<event>
 7    1  0.2641580E-009  0.1764068E+03  0.7561462E-02  0.1171327E+00
         -3   -1    0    0    0  501 -0.00000000000E+00  0.00000000000E+00  0.13888480725E+04  0.13888480725E+04  0.00000000000E+00 0.  1.
          3   -1    0    0  501    0  0.00000000000E+00 -0.00000000000E+00 -0.29228334917E+02  0.29228334917E+02  0.00000000000E+00 0. -1.
         25    2    1    2    0    0 -0.46676738323E+02  0.13675813718E+03  0.10216475332E+04  0.10393712227E+04  0.12508937061E+03 0.  0.
          5    1    3    3  502    0  0.40457130754E+02  0.34436936627E+02  0.38571126512E+03  0.38937556995E+03  0.41800000000E+01 0.  1.
         -5    1    3    3    0  502 -0.87133869078E+02  0.10232120056E+03  0.63593626805E+03  0.64999565279E+03  0.41800000000E+01 0.  1.
        -11    1    1    2    0    0 -0.19782705675E+02 -0.61770654654E+02  0.87372837169E+02  0.10881627587E+03  0.00000000000E+00 0. -1.
         11    1    1    2    0    0  0.66459443998E+02 -0.74987482529E+02  0.25059936725E+03  0.26988890881E+03  0.00000000000E+00 0.  1.
</event>
<event>
 7    1  0.2641580E-009  0.1275560E+03  0.7561462E-02  0.1231128E+00
         -1   -1    0    0    0  501 -0.00000000000E+00  0.00000000000E+00  0.12234838329E+03  0.12234838329E+03  0.00000000000E+00 0.  1.
          1   -1    0    0  501    0  0.00000000000E+00 -0.00000000000E+00 -0.20304158037E+03  0.20304158037E+03  0.00000000000E+00 0. -1.
         25    2    1    2    0    0  0.42192909424E+02 -0.87271299478E+02  0.91380257525E+01  0.15851794725E+03  0.12509162549E+03 0.  0.
          5    1    3    3  502    0  0.21119820734E+01  0.31085218824E+02  0.11481471239E+02  0.33467116389E+02  0.41800000000E+01 0.  1.
         -5    1    3    3    0  502  0.40080927350E+02 -0.11835651830E+03 -0.23434454862E+01  0.12505083086E+03  0.41800000000E+01 0.  1.
        -11    1    1    2    0    0 -0.20943398953E+02  0.23747783000E+02  0.20556383512E+02  0.37751133231E+02  0.00000000000E+00 0. -1.
         11    1    1    2    0    0 -0.21249510471E+02  0.63523516478E+02 -0.11038760634E+03  0.12912088318E+03  0.00000000000E+00 0.  1.
</event>
<event>
 7    1  0.2641580E-009  0.1353568E+03  0.7561462E-02  0.1219717E+00
         -1   -1    0    0    0  501 -0.00000000000E+00  0.00000000000E+00  0.44830996355E+03  0.44830996355E+03  0.00000000000E+00 0.  1.
          1   -1    0    0  501    0  0.00000000000E+00 -0.00000000000E+00 -0.64971696527E+02  0.64971696527E+02  0.00000000000E+00 0. -1.
         25    2    1    2    0    0 -0.61621577111E+02 -0.90187871329E+02  0.31330936686E+03  0.35459983274E+03  0.12508881292E+03 0.  0.
          5    1    3    3  502    0 -0.96472053737E+02 -0.52868818327E+02  0.17123318967E+03  0.20356877646E+03  0.41800000000E+01 0.  1.
         -5    1    3    3    0  502  0.34850476627E+02 -0.37319053002E+02  0.14207617719E+03  0.15103105629E+03  0.41800000000E+01 0.  1.
        -11    1    1    2    0    0  0.35293717590E+02  0.56820466588E+02  0.89661466911E+02  0.11186326731E+03  0.00000000000E+00 0.  1.
         11    1    1    2    0    0  0.26327859521E+02  0.33367404740E+02 -0.19632566744E+02  0.46818560027E+02  0.00000000000E+00 0. -1.
</event>
<event>
 7    1  0.2641580E-009  0.1086796E+03  0.7561462E-02  0.1263035E+00
          2   -1    0    0  501    0  0.00000000000E+00  0.00000000000E+00  0.37589136609E+03  0.37589136609E+03  0.00000000000E+00 0. -1.
         -2   -1    0    0    0  501 -0.00000000000E+00 -0.00000000000E+00 -0.63223782161E+02  0.63223782161E+02  0.00000000000E+00 0.  1.
         25    2    1    2    0    0 -0.77132672728E+02  0.14498978137E+02  0.57839279679E+02  0.15860030970E+03  0.12509598872E+03 0.  0.
          5    1    3    3  502    0 -0.28730998641E+02  0.47977519218E+02  0.78162069811E+02  0.96198202635E+02  0.41800000000E+01 0.  1.
         -5    1    3    3    0  502 -0.48401674087E+02 -0.33478541081E+02 -0.20322790131E+02  0.62402107064E+02  0.41800000000E+01 0.  1.
        -11    1    1    2    0    0  0.18005767941E+02  0.25266371388E+02  0.24849580355E+02  0.39750457180E+02  0.00000000000E+00 0.  1.
         11    1    1    2    0    0  0.59126904787E+02 -0.39765349525E+02  0.22997872389E+03  0.24076438137E+03  0.00000000000E+00 0. -1.
</event>
<event>
 7    1  0.2641580E-009  0.1000266E+03  0.7561462E-02  0.1280240E+00
          2   -1    0    0  501    0  0.00000000000E+00  0.00000000000E+00  0.83833890379E+02  0.83833890379E+02  0.00000000000E+00 0. -1.
         -2   -1    0    0    0  501 -0.00000000000E+00 -0.00000000000E+00 -0.18255321222E+03  0.18255321222E+03  0.00000000000E+00 0.  1.
         25    2    1    2    0    0  0.22405147115E+02 -0.13121903381E+02  0.21821749005E+01  0.12777470810E+03  0.12508972451E+03 0.  0.
          5    1    3    3  502    0  0.73523330667E+02 -0.12959804302E+01  0.10794405873E+02  0.74440253330E+02  0.41800000000E+01 0. -1.
         -5    1    3    3    0  502 -0.51118183552E+02 -0.11825922951E+02 -0.86122309725E+01  0.53334454770E+02  0.41800000000E+01 0. -1.
        -11    1    1    2    0    0  0.23917295454E+02 -0.42508106751E+01 -0.82213727406E+02  0.85727494931E+02  0.00000000000E+00 0.  1.
         11    1    1    2    0    0 -0.46322442568E+02  0.17372714056E+02 -0.18687769331E+02  0.52884899563E+02  0.00000000000E+00 0. -1.
</event>
<event>
 7    1  0.2641580E-009  0.1183732E+03  0.7561462E-02  0.1245805E+00
         -1   -1    0    0    0  501 -0.00000000000E+00  0.00000000000E+00  0.50538299139E+02  0.50538299139E+02  0.00000000000E+00 0.  1.
          1   -1    0    0  501    0  0.00000000000E+00 -0.00000000000E+00 -0.32221403869E+03  0.32221403869E+03  0.00000000000E+00 0. -1.
         25    2    1    2    0    0 -0.20591093458E+02 -0.62025500441E+02 -0.12865949257E+03  0.19097668845E+03  0.12509066580E+03 0.  0.
          5    1    3    3  502    0 -0.42443271369E+02  0.26109188754E+02 -0.40519881201E+02  0.64361900178E+02  0.41800000000E+01 0.  1.
         -5    1    3    3    0  502  0.21852177911E+02 -0.88134689195E+02 -0.88139611365E+02  0.12661478828E+03  0.41800000000E+01 0.  1.
        -11    1    1    2    0    0  0.29630854409E+02  0.74648927205E+02 -0.14536113739E+03  0.16607320714E+03  0.00000000000E+00 0.  1.
         11    1    1    2    0    0 -0.90397609503E+01 -0.12623426764E+02  0.23448904016E+01  0.15702442240E+02  0.00000000000E+00 0. -1.
</event>
<event>
 7    1  0.2641580E-009  0.1014895E+03  0.7561462E-02  0.1277194E+00
          1   -1    0    0  501    0  0.00000000000E+00  0.00000000000E+00  0.28454210704E+03  0.28454210704E+03  0.00000000000E+00 0. -1.
         -1   -1    0    0    0  501 -0.00000000000E+00 -0.00000000000E+00 -0.58030424023E+02  0.58030424023E+02  0.00000000000E+00 0.  1.
         25    2    1    2    0    0 -0.25946662796E+02  0.44763064039E+02  0.64342908393E+02  0.14987710086E+03  0.12508466848E+03 0.  0.
          5    1    3    3  502    0 -0.66157523145E+02  0.15542551963E+02  0.72357478184E+02  0.99355250689E+02  0.41800000000E+01 0. -1.
         -5    1    3    3    0  502  0.40210860349E+02  0.29220512076E+02 -0.80145697912E+01  0.50521850173E+02  0.41800000000E+01 0. -1.
        -11    1    1    2    0    0 -0.64699321100E+01 -0.51496459654E+02  0.38366528582E+02  0.64542512298E+02  0.00000000000E+00 0.  1.
         11    1    1    2    0    0  0.32416594906E+02  0.67333956151E+01  0.12380224604E+03  0.12815291790E+03  0.00000000000E+00 0. -1.
</event>
<event>
 7    1  0.2641580E-009  0.1074746E+03  0.7561462E-02  0.1265319E+00
         -2   -1    0    0    0  501 -0.00000000000E+00  0.00000000000E+00  0.46502357566E+02  0.46502357566E+02  0.00000000000E+00 0.  1.
          2   -1    0    0  501    0  0.00000000000E+00 -0.00000000000E+00 -0.28849088934E+03  0.28849088934E+03  0.00000000000E+00 0. -1.
         25    2    1    2    0    0  0.96539230653E+01 -0.65927505193E+02 -0.10548379271E+03  0.17667454753E+03  0.12508969201E+03 0.  0.
          5    1    3    3  502    0  0.55727067957E+02 -0.15803928481E+01 -0.18233087494E+02  0.58804095301E+02  0.41800000000E+01 0.  1.
         -5    1    3    3    0  502 -0.46073144892E+02 -0.64347112345E+02 -0.87250705219E+02  0.11787045223E+03  0.41800000000E+01 0.  1.
        -11    1    1    2    0    0  0.34530111393E+01  0.66579387490E+02 -0.10769324841E+03  0.12665928264E+03  0.00000000000E+00 0.  1.
         11    1    1    2    0    0 -0.13106934205E+02 -0.65188229777E+00 -0.28811490643E+02  0.31659416732E+02  0.00000000000E+00 0. -1.
</event>
<event>
 7    1  0.2641580E-009  0.1338623E+03  0.7561462E-02  0.1221835E+00
          1   -1    0    0  501    0  0.00000000000E+00  0.00000000000E+00  0.10879168655E+03  0.10879168655E+03  0.00000000000E+00 0. -1.
         -1   -1    0    0    0  501 -0.00000000000E+00 -0.00000000000E+00 -0.18559130725E+03  0.18559130725E+03  0.00000000000E+00 0.  1.
         25    2    1    2    0    0 -0.48641333976E+02  0.78010666500E+02 -0.40056574216E+02  0.16032437278E+03  0.12509089460E+03 0.  0.
          5    1    3    3  502    0 -0.61504288047E+02 -0.13187329778E+02 -0.16786051533E+02  0.65237466543E+02  0.41800000000E+01 0. -1.
         -5    1    3    3    0  502  0.12862954071E+02  0.91197996278E+02 -0.23270522682E+02  0.95086906241E+02  0.41800000000E+01 0. -1.
        -11    1    1    2    0    0  0.32320932862E+02  0.47434483808E+00 -0.42835785728E+02  0.53663509417E+02  0.00000000000E+00 0.  1.
         11    1    1    2    0    0  0.16320401114E+02 -0.78485011338E+02  0.60927392495E+01  0.80395111598E+02  0.00000000000E+00 0. -1.
</event>
<event>
 7    1  0.2641580E-009  0.8865402E+02  0.7561462E-02  0.1306144E+00
          1   -1    0    0  501    0  0.00000000000E+00  0.00000000000E+00  0.16403167361E+03  0.16403167361E+03  0.00000000000E+00 0. -1.
         -1   -1    0    0    0  501 -0.00000000000E+00 -0.00000000000E+00 -0.10930028578E+03  0.10930028578E+03  0.00000000000E+00 0.  1.
         25    2    1    2    0    0 -0.16956043981E+02 -0.34814028059E+02  0.10076255601E+03  0.16522853279E+03  0.12509137212E+03 0.  0.
          5    1    3    3  502    0 -0.63081779063E+02  0.79279880926E+01  0.71417109982E+02  0.95708097062E+02  0.41800000000E+01 0. -1.
         -5    1    3    3    0  502  0.46125735083E+02 -0.42742016152E+02  0.29345446032E+02  0.69520435733E+02  0.41800000000E+01 0. -1.
        -11    1    1    2    0    0 -0.98569571303E+01  0.89006375582E+01 -0.64947261600E+02  0.66291234279E+02  0.00000000000E+00 0.  1.
         11    1    1    2    0    0  0.26813001111E+02  0.25913390501E+02  0.18916093420E+02  0.41812192314E+02  0.00000000000E+00 0. -1.
</event>
<event>
 7    1  0.2641580E-009  0.1564101E+03  0.7561462E-02  0.1192810E+00
          2   -1    0    0  501    0  0.00000000000E+00  0.00000000000E+00  0.10811682899E+03  0.10811682899E+03  0.00000000000E+00 0.  1.
         -2   -1    0    0    0  501 -0.00000000000E+00 -0.00000000000E+00 -0.28602368609E+03  0.28602368609E+03  0.00000000000E+00 0. -1.
         25    2    1    2    0    0  0.82938041032E+02 -0.81232952994E+02 -0.17833752578E+03  0.24683858336E+03  0.12508997496E+03 0.  0.
          5    1    3    3  502    0  0.11121689028E+03 -0.39541196994E+02 -0.14135113475E+03  0.18420184212E+03  0.41800000000E+01 0.  1.
         -5    1    3    3    0  502 -0.28278849247E+02 -0.41691756000E+02 -0.36986391021E+02  0.62636741245E+02  0.41800000000E+01 0.  1.
        -11    1    1    2    0    0 -0.93460899841E+02  0.90529548543E+02 -0.89348865557E+01  0.13042381361E+03  0.00000000000E+00 0. -1.
         11    1    1    2    0    0  0.10522858809E+02 -0.92965955483E+01  0.93655552264E+01  0.16878118112E+02  0.00000000000E+00 0.  1.
</event>
<event>
 7    1  0.2641580E-009  0.1103477E+03  0.7561462E-02  0.1259927E+00
          1   -1    0    0  501    0  0.00000000000E+00  0.00000000000E+00  0.21979302413E+02  0.21979302413E+02  0.00000000000E+00 0. -1.
         -1   -1    0    0    0  501 -0.00000000000E+00 -0.00000000000E+00 -0.60199823721E+03  0.60199823721E+03  0.00000000000E+00 0.  1.
         25    2    1    2    0    0  0.22249659857E+01 -0.36275403735E+02 -0.32767021745E+03  0.35261502340E+03  0.12509487575E+03 0.  0.
          5    1    3    3  502    0 -0.58060862024E+02  0.21697133038E+01 -0.16067428446E+03  0.17090778052E+03  0.41800000000E+01 0. -1.
         -5    1    3    3    0  502  0.60285828010E+02 -0.38445117039E+02 -0.16699593299E+03  0.18170724289E+03  0.41800000000E+01 0. -1.
        -11    1    1    2    0    0 -0.33225970854E+02 -0.10375579048E+02 -0.15670486050E+03  0.16052423830E+03  0.00000000000E+00 0.  1.
         11    1    1    2    0    0  0.31001004869E+02  0.46650982783E+02 -0.95643856852E+02  0.11083827791E+03  0.00000000000E+00 0. -1.
</event>
<event>
 7    1  0.2641580E-009  0.9496160E+02  0.7561462E-02  0.1291263E+00
         -2   -1    0    0    0  501 -0.00000000000E+00  0.00000000000E+00  0.14483492311E+03  0.14483492311E+03  0.00000000000E+00 0.  1.
          2   -1    0    0  501    0  0.00000000000E+00 -0.00000000000E+00 -0.11123560466E+03  0.11123560466E+03  0.00000000000E+00 0. -1.
         25    2    1    2    0    0 -0.65156627430E+00 -0.49309966546E+02 -0.26541669388E+02  0.13705287311E+03  0.12508849856E+03 0.  0.
          5    1    3    3  502    0 -0.21137977714E+02  0.12985044580E+02 -0.58723357166E+02  0.63885292216E+02  0.41800000000E+01 0. -1.
         -5    1    3    3    0  502  0.20486411440E+02 -0.62295011126E+02  0.32181687779E+02  0.73167580889E+02  0.41800000000E+01 0. -1.
        -11    1    1    2    0    0  0.42806549003E+02  0.32178829903E+02  0.48017241704E+02  0.71927277387E+02  0.00000000000E+00 0.  1.
         11    1    1    2    0    0 -0.42154982728E+02  0.17131136643E+02  0.12123746139E+02  0.47090377275E+02  0.00000000000E+00 0. -1.
</event>
<event>
 7    1  0.2641580E-009  0.9140220E+02  0.7561462E-02  0.1299491E+00
         -2   -1    0    0    0  501 -0.00000000000E+00  0.00000000000E+00  0.22567613440E+03  0.22567613440E+03  0.00000000000E+00 0. -1.
          2   -1    0    0  501    0  0.00000000000E+00 -0.00000000000E+00 -0.67076820292E+02  0.67076820292E+02  0.00000000000E+00 0.  1.
         25    2    1    2    0    0 -0.18780135154E+02 -0.16817933369E+02  0.15134520200E+03  0.19796604424E+03  0.12509855372E+03 0.  0.
          5    1    3    3  502    0  0.25280911935E+02  0.44335635328E+02  0.49752720186E+02  0.71397329321E+02  0.41800000000E+01 0.  1.
         -5    1    3    3    0  502 -0.44061047089E+02 -0.61153568696E+02  0.10159248181E+03  0.12656871492E+03  0.41800000000E+01 0.  1.
        -11    1    1    2    0    0 -0.14535328400E+01  0.31231217721E+02  0.41823032413E+02  0.52217504328E+02  0.00000000000E+00 0. -1.
         11    1    1    2    0    0  0.20233667994E+02 -0.14413284353E+02 -0.34568920308E+02  0.42569406122E+02  0.00000000000E+00 0.  1.
</event>
<event>
 7    1  0.2641580E-009  0.9285028E+02  0.7561462E-02  0.1296093E+00
         -2   -1    0    0    0  501 -0.00000000000E+00  0.00000000000E+00  0.31090368601E+02  0.31090368601E+02  0.00000000000E+00 0.  1.
          2   -1    0    0  501    0  0.00000000000E+00 -0.00000000000E+00 -0.41657425375E+03  0.41657425375E+03  0.00000000000E+00 0. -1.
         25    2    1    2    0    0  0.31708275384E+02 -0.67122283135E+01 -0.19821451857E+03  0.23661481425E+03  0.12508839361E+03 0.  0.
          5    1    3    3  502    0  0.69586165484E+02  0.78921460716E+01 -0.17747133844E+03  0.19083518744E+03  0.41800000000E+01 0. -1.
         -5    1    3    3    0  502 -0.37877890100E+02 -0.14604374385E+02 -0.20743180129E+02  0.45779626817E+02  0.41800000000E+01 0. -1.
        -11    1    1    2    0    0  0.89824373424E+01  0.27578348195E+02 -0.14787361923E+03  0.15069126297E+03  0.00000000000E+00 0.  1.
         11    1    1    2    0    0 -0.40690712726E+02 -0.20866119882E+02 -0.39395747344E+02  0.60358545127E+02  0.00000000000E+00 0. -1.
</event>
<event>
 7    1  0.2641580E-009  0.9026175E+02  0.7561462E-02  0.1302219E+00
          1   -1    0    0  501    0  0.00000000000E+00  0.00000000000E+00  0.11272148539E+03  0.11272148539E+03  0.00000000000E+00 0. -1.
         -1   -1    0    0    0  501 -0.00000000000E+00 -0.00000000000E+00 -0.13009591902E+03  0.13009591902E+03  0.00000000000E+00 0.  1.
         25    2    1    2    0    0 -0.41332867672E+02 -0.25971337658E+02 -0.15963425078E+02  0.13524549479E+03  0.12511433407E+03 0.  0.
          5    1    3    3  502    0 -0.77920739356E+02 -0.44920137755E+02 -0.23719698286E+02  0.93110455291E+02  0.41800000000E+01 0.  1.
         -5    1    3    3    0  502  0.36587871684E+02  0.18948800096E+02  0.77562732081E+01  0.42135039499E+02  0.41800000000E+01 0.  1.
        -11    1    1    2    0    0  0.15932422913E+02  0.71875555217E+01 -0.48112439500E+02  0.51188962569E+02  0.00000000000E+00 0.  1.
         11    1    1    2    0    0  0.25400444759E+02  0.18783782136E+02  0.46701430947E+02  0.56382947048E+02  0.00000000000E+00 0. -1.
</event>
<event>
 6    1  0.2641580E-009  0.1169822E+03  0.7561462E-02  0.1248160E+00
         -2   -1    0    0    0  501 -0.00000000000E+00  0.00000000000E+00  0.10076187059E+03  0.10076187059E+03  0.00000000000E+00 0.  1.
          2   -1    0    0  501    0  0.00000000000E+00 -0.00000000000E+00 -0.23063523129E+03  0.23063523129E+03  0.00000000000E+00 0. -1.
          5    1    1    2  502    0 -0.11670668245E+02 -0.19515436308E+02  0.46762311427E+02  0.52165533847E+02  0.41800000000E+01 0.  1.
         -5    1    1    2    0  502  0.81901314936E+02 -0.30477210344E+02 -0.47482633882E+02  0.99542747898E+02  0.41800000000E+01 0.  1.
        -11    1    1    2    0    0 -0.48198980866E+02  0.75548865095E+02 -0.10580822926E+03  0.13865840816E+03  0.00000000000E+00 0. -1.
         11    1    1    2    0    0 -0.22031665825E+02 -0.25556218443E+02 -0.23344808986E+02  0.41030411973E+02  0.00000000000E+00 0.  1.
</event>
<event>
 7    1  0.2641580E-009  0.1000230E+03  0.7561462E-02  0.1280248E+00
         -1   -1    0    0    0  501 -0.00000000000E+00  0.00000000000E+00  0.52869106791E+02  0.52869106791E+02  0.00000000000E+00 0.  1.
          1   -1    0    0  501    0  0.00000000000E+00 -0.00000000000E+00 -0.25478330162E+03  0.25478330162E+03  0.00000000000E+00 0. -1.
         25    2    1    2    0    0  0.18578914222E+02 -0.86618259817E+01 -0.15263487045E+03  0.19840804256E+03  0.12509254330E+03 0.  0.
          5    1    3    3  502    0 -0.87377752607E+01  0.49816196375E+02 -0.27928139808E+02  0.57926293951E+02  0.41800000000E+01 0. -1.
         -5    1    3    3    0  502  0.27316689483E+02 -0.58478022357E+02 -0.12470673064E+03  0.14048174860E+03  0.41800000000E+01 0. -1.
        -11    1    1    2    0    0  0.18794849003E+02 -0.27041301384E+02  0.61007089704E+01  0.33491744946E+02  0.00000000000E+00 0.  1.
         11    1    1    2    0    0 -0.37373763225E+02  0.35703127366E+02 -0.55380033349E+02  0.75752620912E+02  0.00000000000E+00 0. -1.
</event>
<event>
 7    1  0.2641580E-009  0.1311898E+03  0.7561462E-02  0.1225701E+00
         -1   -1    0    0    0  501 -0.00000000000E+00  0.00000000000E+00  0.51680190190E+02  0.51680190190E+02  0.00000000000E+00 0.  1.
          1   -1    0    0  501    0  0.00000000000E+00 -0.00000000000E+00 -0.40167086132E+03  0.40167086132E+03  0.00000000000E+00 0. -1.
         25    2    1    2    0    0  0.54345244480E+01  0.87314735987E+02 -0.24326783796E+03  0.28719476957E+03  0.12509275560E+03 0.  0.
          5    1    3    3  502    0  0.26372544738E+02  0.10879086575E+03 -0.22623586109E+03  0.25245019475E+03  0.41800000000E+01 0.  1.
         -5    1    3    3    0  502 -0.20938020290E+02 -0.21476129760E+02 -0.17031976876E+02  0.34744574820E+02  0.41800000000E+01 0.  1.
        -11    1    1    2    0    0 -0.39798985743E+02 -0.72393183128E+02 -0.45319707984E+02  0.94226366593E+02  0.00000000000E+00 0.  1.
         11    1    1    2    0    0  0.34364461295E+02 -0.14921552859E+02 -0.61403125179E+02  0.71929915345E+02  0.00000000000E+00 0. -1.
</event>
<event>
 7    1  0.2641580E-009  0.9542799E+02  0.7561462E-02  0.1290215E+00
         -1   -1    0    0    0  501 -0.00000000000E+00  0.00000000000E+00  0.18257359821E+02  0.18257359821E+02  0.00000000000E+00 0.  1.
          1   -1    0    0  501    0  0.00000000000E+00 -0.00000000000E+00 -0.74380671199E+03  0.74380671199E+03  0.00000000000E+00 0. -1.
         25    2    1    2    0    0  0.43222034567E+02 -0.26060790980E+01 -0.42311044390E+03  0.44333421961E+03  0.12509135311E+03 0.  0.
          5    1    3    3  502    0  0.70271191395E+02 -0.24861810849E+01 -0.40365187367E+03  0.40975178944E+03  0.41800000000E+01 0.  1.
         -5    1    3    3    0  502 -0.27049156828E+02 -0.11989801307E+00 -0.19458570232E+02  0.33582430170E+02  0.41800000000E+01 0.  1.
        -11    1    1    2    0    0 -0.36069896268E+02 -0.37661663532E+02 -0.10667142107E+03  0.11873596924E+03  0.00000000000E+00 0.  1.
         11    1    1    2    0    0 -0.71521382992E+01  0.40267742630E+02 -0.19576748720E+03  0.19999388296E+03  0.00000000000E+00 0. -1.
</event>
<event>
 7    1  0.2641580E-009  0.2845021E+03  0.7561462E-02  0.1093255E+00
          1   -1    0    0  501    0  0.00000000000E+00  0.00000000000E+00  0.38641663839E+03  0.38641663839E+03  0.00000000000E+00 0. -1.
         -1   -1    0    0    0  501 -0.00000000000E+00 -0.00000000000E+00 -0.29666113735E+03  0.29666113735E+03  0.00000000000E+00 0.  1.
         25    2    1    2    0    0 -0.23371762874E+02 -0.27556436169E+03  0.21046795616E+03  0.36935868983E+03  0.12508846648E+03 0.  0.
          5    1    3    3  502    0 -0.37980293054E+02 -0.42960427319E+02  0.34417382857E+01  0.57597039319E+02  0.41800000000E+01 0. -1.
         -5    1    3    3    0  502  0.14608530180E+02 -0.23260393437E+03  0.20702621788E+03  0.31176165051E+03  0.41800000000E+01 0. -1.
        -11    1    1    2    0    0 -0.81297457197E+01  0.63784818475E+02  0.65661984015E+01  0.64635213273E+02  0.00000000000E+00 0. -1.
         11    1    1    2    0    0  0.31501508594E+02  0.21177954321E+03 -0.12727865353E+03  0.24908387264E+03  0.00000000000E+00 0.  1.
</event>
<event>
 7    1  0.2850306E-009  0.1445267E+03  0.7561462E-02  0.1207364E+00
         -2   -1    0    0    0  501 -0.00000000000E+00  0.00000000000E+00  0.44665651136E+02  0.44665651136E+02  0.00000000000E+00 0. -1.
          2   -1    0    0  501    0  0.00000000000E+00 -0.00000000000E+00 -0.65954311227E+03  0.65954311227E+03  0.00000000000E+00 0.  1.
         25    2    1    2    0    0 -0.10280769458E+03  0.21549612446E+02 -0.49099786051E+03  0.51745592914E+03  0.12509169324E+03 0.  0.
          5    1    3    3  502    0 -0.13144767506E+03  0.94660214103E+01 -0.40444078630E+03  0.42539148894E+03  0.41800000000E+01 0.  1.
         -5    1    3    3    0  502  0.28639980475E+02  0.12083591036E+02 -0.86557074210E+02  0.92064440202E+02  0.41800000000E+01 0.  1.
        -11    1    1    2    0    0  0.58095537806E+02  0.23217561488E+02 -0.21036337443E+02  0.66005107132E+02  0.00000000000E+00 0. -1.
         11    1    1    2    0    0  0.44712156776E+02 -0.44767173935E+02 -0.10284326318E+03  0.12074772713E+03  0.00000000000E+00 0.  1.
</event>
<event>
 7    1  0.2641580E-009  0.2420533E+03  0.7561462E-02  0.1118432E+00
          2   -1    0    0  501    0  0.00000000000E+00  0.00000000000E+00  0.15095668269E+04  0.15095668269E+04  0.00000000000E+00 0. -1.
         -2   -1    0    0    0  501 -0.00000000000E+00 -0.00000000000E+00 -0.51068548728E+02  0.51068548728E+02  0.00000000000E+00 0.  1.
         25    2    1    2    0    0  0.90696800840E+02 -0.20034148826E+03  0.11127422202E+04  0.11411437973E+04  0.12510513892E+03 0.  0.
          5    1    3    3  502    0 -0.31411867795E+02 -0.42295051865E+02  0.20789226199E+03  0.21450464295E+03  0.41800000000E+01 0.  1.
         -5    1    3    3    0  502  0.12210866863E+03 -0.15804643640E+03  0.90484995824E+03  0.92663915434E+03  0.41800000000E+01 0.  1.
        -11    1    1    2    0    0 -0.10092586541E+03  0.15465523655E+03  0.23234445157E+03  0.29679659142E+03  0.00000000000E+00 0.  1.
         11    1    1    2    0    0  0.10229064572E+02  0.45686251713E+02  0.11341160634E+03  0.12269498690E+03  0.00000000000E+00 0. -1.
</event>
<event>
 7    1  0.3040747E-009  0.1887822E+03  0.7561462E-02  0.1159564E+00
          1   -1    0    0  501    0  0.00000000000E+00  0.00000000000E+00  0.44508231832E+03  0.44508231832E+03  0.00000000000E+00 0. -1.
         -1   -1    0    0    0  501 -0.00000000000E+00 -0.00000000000E+00 -0.90374745849E+02  0.90374745849E+02  0.00000000000E+00 0.  1.
         25    2    1    2    0    0  0.12616409280E+03  0.10359373778E+03  0.13056330595E+03  0.24360612348E+03  0.12509246867E+03 0.  0.
          5    1    3    3  502    0  0.12071897320E+03  0.12181302322E+03  0.79729153729E+02  0.18917106933E+03  0.41800000000E+01 0.  1.
         -5    1    3    3    0  502  0.54451195961E+01 -0.18219285433E+02  0.50834152220E+02  0.54435054156E+02  0.41800000000E+01 0.  1.
        -11    1    1    2    0    0 -0.34789073291E+02 -0.86971769910E+02  0.12168204068E+03  0.15356069616E+03  0.00000000000E+00 0. -1.
         11    1    1    2    0    0 -0.91375019505E+02 -0.16621967875E+02  0.10246222584E+03  0.13829024452E+03  0.00000000000E+00 0.  1.
</event>
<event>
 7    1  0.2641580E-009  0.6975217E+02  0.7561462E-02  0.1360938E+00
          1   -1    0    0  501    0  0.00000000000E+00  0.00000000000E+00  0.70596904595E+02  0.70596904595E+02  0.00000000000E+00 0. -1.
         -1   -1    0    0    0  501 -0.00000000000E+00 -0.00000000000E+00 -0.16749682089E+03  0.16749682089E+03  0.00000000000E+00 0.  1.
         25    2    1    2    0    0 -0.99970580875E+01 -0.25642170881E+01 -0.40057765506E+02  0.13175342221E+03  0.12509125991E+03 0.  0.
          5    1    3    3  502    0  0.38257377345E+02  0.21060774876E+02  0.22401551303E+02  0.49259365206E+02  0.41800000000E+01 0.  1.
         -5    1    3    3    0  502 -0.48254435433E+02 -0.23624991964E+02 -0.62459316809E+02  0.82494057001E+02  0.41800000000E+01 0.  1.
        -11    1    1    2    0    0 -0.76688534194E+01  0.17180976780E+02 -0.74854260691E+02  0.77182625114E+02  0.00000000000E+00 0.  1.
         11    1    1    2    0    0  0.17665911507E+02 -0.14616759692E+02  0.18012109897E+02  0.29157678169E+02  0.00000000000E+00 0. -1.
</event>
<event>
 7    1  0.2641580E-009  0.1142325E+03  0.7561462E-02  0.1252927E+00
          1   -1    0    0  501    0  0.00000000000E+00  0.00000000000E+00  0.51959603499E+03  0.51959603499E+03  0.00000000000E+00 0. -1.
         -1   -1    0    0    0  501 -0.00000000000E+00 -0.00000000000E+00 -0.28157682343E+02  0.28157682343E+02  0.00000000000E+00 0.  1.
         25    2    1    2    0    0 -0.10850248687E+01  0.55315066643E+02  0.30115637740E+03  0.33076086013E+03  0.12508656631E+03 0.  0.
          5    1    3    3  502    0  0.46866284066E+02  0.69806918697E+02  0.21669390627E+03  0.23247188194E+03  0.41800000000E+01 0. -1.
         -5    1    3    3    0  502 -0.47951308935E+02 -0.14491852054E+02  0.84462471125E+02  0.98288978187E+02  0.41800000000E+01 0. -1.
        -11    1    1    2    0    0 -0.16865088138E+02  0.14306193730E+02  0.95496646202E+02  0.98024016510E+02  0.00000000000E+00 0. -1.
         11    1    1    2    0    0  0.17950113006E+02 -0.69621260373E+02  0.94785329054E+02  0.11896884070E+03  0.00000000000E+00 0.  1.
</event>
<event>
 7    1  0.2641580E-009  0.9377185E+02  0.7561462E-02  0.1293966E+00
         -2   -1    0    0    0  501 -0.00000000000E+00  0.00000000000E+00  0.93464815738E+02  0.93464815738E+02  0.00000000000E+00 0.  1.
          2   -1    0    0  501    0  0.00000000000E+00 -0.00000000000E+00 -0.13377198798E+03  0.13377198798E+03  0.00000000000E+00 0. -1.
         25    2    1    2    0    0  0.26222713762E+02  0.10333247364E+02 -0.31810986877E+02  0.13211443218E+03  0.12509147687E+03 0.  0.
          5    1    3    3  502    0 -0.47439720961E+01  0.46150385967E+02 -0.60683599710E+02  0.76500556011E+02  0.41800000000E+01 0.  1.
         -5    1    3    3    0  502  0.30966685859E+02 -0.35817138603E+02  0.28872612834E+02  0.55613876169E+02  0.41800000000E+01 0.  1.
        -11    1    1    2    0    0  0.28161210343E+02  0.16655532805E+02  0.45247671591E+01  0.33029290922E+02  0.00000000000E+00 0.  1.
         11    1    1    2    0    0 -0.54383924105E+02 -0.26988780169E+02 -0.13020952528E+02  0.62093080620E+02  0.00000000000E+00 0. -1.
</event>
<event>
 7    1  0.2641580E-009  0.1336144E+03  0.7561462E-02  0.1222189E+00
         -1   -1    0    0    0  501 -0.00000000000E+00  0.00000000000E+00  0.56478208386E+02  0.56478208386E+02  0.00000000000E+00 0.  1.
          1   -1    0    0  501    0  0.00000000000E+00 -0.00000000000E+00 -0.31864760786E+03  0.31864760786E+03  0.00000000000E+00 0. -1.
         25    2    1    2    0    0 -0.44339958967E+02  0.66012020338E+02 -0.14260844625E+03  0.20568923701E+03  0.12508906623E+03 0.  0.
          5    1    3    3  502    0 -0.62911266760E+02  0.94658456005E+02 -0.10630616191E+03  0.15568083774E+03  0.41800000000E+01 0. -1.
         -5    1    3    3    0  502  0.18571307793E+02 -0.28646435667E+02 -0.36302284334E+02  0.50008399269E+02  0.41800000000E+01 0. -1.
        -11    1    1    2    0    0 -0.53362225971E+01  0.19493866677E+02 -0.12848249020E+02  0.23949188139E+02  0.00000000000E+00 0.  1.
         11    1    1    2    0    0  0.49676181564E+02 -0.85505887016E+02 -0.10671270420E+03  0.14548739109E+03  0.00000000000E+00 0. -1.
</event>
<event>
 7    1  0.2641580E-009  0.1074293E+03  0.7561462E-02  0.1265406E+00
          1   -1    0    0  501    0  0.00000000000E+00  0.00000000000E+00  0.37724771244E+03  0.37724771244E+03  0.00000000000E+00 0. -1.
         -1   -1    0    0    0  501 -0.00000000000E+00 -0.00000000000E+00 -0.47812331025E+02  0.47812331025E+02  0.00000000000E+00 0.  1.
         25    2    1    2    0    0 -0.24497030677E+02  0.70609664850E+02  0.13665442749E+03  0.19976969938E+03  0.12509065095E+03 0.  0.
          5    1    3    3  502    0  0.44991657895E+02  0.44553132831E+02  0.31094715674E+02  0.70665300311E+02  0.41800000000E+01 0. -1.
         -5    1    3    3    0  502 -0.69488688572E+02  0.26056532018E+02  0.10555971182E+03  0.12910439907E+03  0.41800000000E+01 0. -1.
        -11    1    1    2    0    0  0.22568373219E+02 -0.36543626064E+02  0.16941823818E+02  0.46171349016E+02  0.00000000000E+00 0.  1.
         11    1    1    2    0    0  0.19286574582E+01 -0.34066038785E+02  0.17583913011E+03  0.17911899507E+03  0.00000000000E+00 0. -1.
</event>
<event>
 7    1  0.2641580E-009  0.1982180E+03  0.7561462E-02  0.1151251E+00
          2   -1    0    0  501    0  0.00000000000E+00  0.00000000000E+00  0.62573266803E+02  0.62573266803E+02  0.00000000000E+00 0. -1.
         -2   -1    0    0    0  501 -0.00000000000E+00 -0.00000000000E+00 -0.73709094275E+03  0.73709094275E+03  0.00000000000E+00 0.  1.
         25    2    1    2    0    0  0.89619539633E+02 -0.15377273856E+03 -0.44664701439E+03  0.49680710343E+03  0.12508407394E+03 0.  0.
          5    1    3    3  502    0 -0.18610311196E+02  0.92765641396E+01 -0.33766162735E+02  0.39875110920E+02  0.41800000000E+01 0.  1.
         -5    1    3    3    0  502  0.10822985083E+03 -0.16304930270E+03 -0.41288085165E+03  0.45693199251E+03  0.41800000000E+01 0.  1.
        -11    1    1    2    0    0 -0.46497355948E+02  0.10202309851E+03 -0.72513751821E+02  0.13352513225E+03  0.00000000000E+00 0. -1.
         11    1    1    2    0    0 -0.43122183685E+02  0.51749640045E+02 -0.15535690974E+03  0.16933197387E+03  0.00000000000E+00 0.  1.
</event>
<event>
 7    1  0.2641580E-009  0.1093202E+03  0.7561462E-02  0.1261834E+00
         -1   -1    0    0    0  501 -0.00000000000E+00  0.00000000000E+00  0.33606599387E+03  0.33606599387E+03  0.00000000000E+00 0.  1.
          1   -1    0    0  501    0  0.00000000000E+00 -0.00000000000E+00 -0.49173992418E+02  0.49173992418E+02  0.00000000000E+00 0. -1.
         25    2    1    2    0    0 -0.30719615510E+02 -0.84302019924E+01  0.67688708445E+02  0.14575335688E+03  0.12509003441E+03 0.  0.
          5    1    3    3  502    0  0.43900068500E+02  0.20851854348E+02  0.27215014286E+02  0.55858260326E+02  0.41800000000E+01 0. -1.
         -5    1    3    3    0  502 -0.74619684011E+02 -0.29282056340E+02  0.40473694160E+02  0.89895096553E+02  0.41800000000E+01 0. -1.
        -11    1    1    2    0    0  0.13468359375E+02 -0.37863989809E+02  0.14403493853E+03  0.14953642348E+03  0.00000000000E+00 0.  1.
         11    1    1    2    0    0  0.17251256136E+02  0.46294191801E+02  0.75168354471E+02  0.89950205929E+02  0.00000000000E+00 0. -1.
</event>
<event>
 7    1  0.2641580E-009  0.1040703E+03  0.7561462E-02  0.1271962E+00
          4   -1    0    0  501    0  0.00000000000E+00  0.00000000000E+00  0.10803377877E+03  0.10803377877E+03  0.00000000000E+00 0. -1.
         -4   -1    0    0    0  501 -0.00000000000E+00 -0.00000000000E+00 -0.15426531817E+03  0.15426531817E+03  0.00000000000E+00 0.  1.
         25    2    1    2    0    0  0.59846492074E+02  0.25737251603E+02 -0.50924263133E+02  0.14994556803E+03  0.12508550700E+03 0.  0.
          5    1    3    3  502    0 -0.72818551813E+01  0.37565744517E+02 -0.69258671762E+02  0.79236649287E+02  0.41800000000E+01 0.  1.
         -5    1    3    3    0  502  0.67128347255E+02 -0.11828492915E+02  0.18334408629E+02  0.70708918742E+02  0.41800000000E+01 0.  1.
        -11    1    1    2    0    0 -0.32907715068E+02 -0.53412462002E+02 -0.20780363679E+02  0.66088064904E+02  0.00000000000E+00 0.  1.
         11    1    1    2    0    0 -0.26938777006E+02  0.27675210399E+02  0.25473087420E+02  0.46265464008E+02  0.00000000000E+00 0. -1.
</event>
<event>
 7    1  0.2641580E-009  0.9105266E+02  0.7561462E-02  0.1300322E+00
         -1   -1    0    0    0  501 -0.00000000000E+00  0.00000000000E+00  0.23959077616E+03  0.23959077616E+03  0.00000000000E+00 0.  1.
          1   -1    0    0  501    0  0.00000000000E+00 -0.00000000000E+00 -0.56252463105E+02  0.56252463105E+02  0.00000000000E+00 0. -1.
         25    2    1    2    0    0 -0.30741610887E+01 -0.41910212335E+02  0.82914271658E+02  0.15584272626E+03  0.12508502116E+03 0.  0.
          5    1    3    3  502    0  0.52482424948E+02 -0.49349059894E+02  0.28422465977E+02  0.77556712237E+02  0.41800000000E+01 0. -1.
         -5    1    3    3    0  502 -0.55556586036E+02  0.74388475595E+01  0.54491805681E+02  0.78286014021E+02  0.41800000000E+01 0. -1.
        -11    1    1    2    0    0  0.11664976893E+02  0.74992023206E+00 -0.13916281734E+02  0.18174073940E+02  0.00000000000E+00 0. -1.
         11    1    1    2    0    0 -0.85908158040E+01  0.41160292103E+02  0.11434032313E+03  0.12182643907E+03  0.00000000000E+00 0.  1.
</event>
<event>
 7    1  0.2641580E-009  0.1063047E+03  0.7561462E-02  0.1267570E+00
          2   -1    0    0  501    0  0.00000000000E+00  0.00000000000E+00  0.53497870449E+02  0.53497870449E+02  0.00000000000E+00 0. -1.
         -2   -1    0    0    0  501 -0.00000000000E+00 -0.00000000000E+00 -0.35272946522E+03  0.35272946522E+03  0.00000000000E+00 0.  1.
         25    2    1    2    0    0 -0.34154376956E+02  0.70161293415E+02 -0.11804807044E+03  0.18886873692E+03  0.12508766643E+03 0.  0.
          5    1    3    3  502    0 -0.44447754439E+02  0.74754014023E+02 -0.13940409821E+03  0.16436161500E+03  0.41800000000E+01 0. -1.
         -5    1    3    3    0  502  0.10293377483E+02 -0.45927206079E+01  0.21356027772E+02  0.24507121920E+02  0.41800000000E+01 0. -1.
        -11    1    1    2    0    0  0.47083041400E+02 -0.82919123079E+02 -0.17277915730E+03  0.19734495422E+03  0.00000000000E+00 0.  1.
         11    1    1    2    0    0 -0.12928664444E+02  0.12757829664E+02 -0.84043670306E+01  0.20013644526E+02  0.00000000000E+00 0. -1.
</event>
<event>
 6    1  0.2641580E-009  0.1215219E+03  0.7561462E-02  0.1240607E+00
          2   -1    0    0  501    0  0.00000000000E+00  0.00000000000E+00  0.94222676088E+02  0.94222676088E+02  0.00000000000E+00 0. -1.
         -2   -1    0    0    0  501 -0.00000000000E+00 -0.00000000000E+00 -0.18761954582E+03  0.18761954582E+03  0.00000000000E+00 0.  1.
          5    1    1    2  502    0  0.30600714741E+02  0.94202271603E+02 -0.46951978322E+02  0.10969244453E+03  0.41800000000E+01 0. -1.
         -5    1    1    2    0  502 -0.33185433632E+02 -0.17541029688E+02  0.14831282745E+02  0.40575855823E+02  0.41800000000E+01 0. -1.
        -11    1    1    2    0    0 -0.33632712916E+02 -0.53356623419E+02 -0.62080376076E+02  0.88498936347E+02  0.00000000000E+00 0.  1.
         11    1    1    2    0    0  0.36217431807E+02 -0.23304618495E+02  0.80420192607E+00  0.43074985207E+02  0.00000000000E+00 0. -1.
</event>
<event>
 7    1  0.2641580E-009  0.1176378E+03  0.7561462E-02  0.1247046E+00
          2   -1    0    0  501    0  0.00000000000E+00  0.00000000000E+00  0.15839147632E+04  0.15839147632E+04  0.00000000000E+00 0. -1.
         -2   -1    0    0    0  501 -0.00000000000E+00 -0.00000000000E+00 -0.13193062940E+02  0.13193062940E+02  0.00000000000E+00 0.  1.
         25    2    1    2    0    0 -0.14895800834E+02 -0.79026071606E+02  0.11273435856E+04  0.11371094873E+04  0.12508965270E+03 0.  0.
          5    1    3    3  502    0  0.32583129170E+02 -0.46135399734E+02  0.19738420778E+03  0.20534880885E+03  0.41800000000E+01 0.  1.
         -5    1    3    3    0  502 -0.47478930004E+02 -0.32890671872E+02  0.92995937783E+03  0.93176067845E+03  0.41800000000E+01 0.  1.
        -11    1    1    2    0    0  0.38406581014E+02  0.13127859757E+00  0.10670714355E+03  0.11340854105E+03  0.00000000000E+00 0.  1.
         11    1    1    2    0    0 -0.23510780180E+02  0.78894793008E+02  0.33667097111E+03  0.34658979780E+03  0.00000000000E+00 0. -1.
</event>
<event>
 7    1  0.2966682E-009  0.1116609E+03  0.7561462E-02  0.1257525E+00
         -2   -1    0    0    0  501 -0.00000000000E+00  0.00000000000E+00  0.17962291069E+02  0.17962291069E+02  0.00000000000E+00 0. -1.
          2   -1    0    0  501    0  0.00000000000E+00 -0.00000000000E+00 -0.10203771077E+04  0.10203771077E+04  0.00000000000E+00 0.  1.
         25    2    1    2    0    0  0.66186858475E+02 -0.46256864086E+02 -0.58578472572E+03  0.60440968871E+03  0.12508768609E+03 0.  0.
          5    1    3    3  502    0  0.72793173924E+02 -0.59261303845E+02 -0.23206270858E+03  0.25036238019E+03  0.41800000000E+01 0. -1.
         -5    1    3    3    0  502 -0.66063154497E+01  0.13004439759E+02 -0.35372201714E+03  0.35404730852E+03  0.41800000000E+01 0. -1.
        -11    1    1    2    0    0 -0.46343857697E+02  0.69559128999E+02 -0.35981212374E+03  0.36939273133E+03  0.00000000000E+00 0.  1.
         11    1    1    2    0    0 -0.19843000777E+02 -0.23302264914E+02 -0.56817967220E+02  0.64536978772E+02  0.00000000000E+00 0. -1.
</event>
<event>
 7    1  0.2641580E-009  0.1139662E+03  0.7561462E-02  0.1253396E+00
         -1   -1    0    0    0  501 -0.00000000000E+00  0.00000000000E+00  0.10317364797E+03  0.10317364797E+03  0.00000000000E+00 0.  1.
          1   -1    0    0  501    0  0.00000000000E+00 -0.00000000000E+00 -0.19180399383E+03  0.19180399383E+03  0.00000000000E+00 0. -1.
         25    2    1    2    0    0 -0.83102679546E+02  0.15692775067E+02 -0.20351846119E+02  0.15236180900E+03  0.12509038598E+03 0.  0.
          5    1    3    3  502    0 -0.73662340974E+02  0.50286987300E+02  0.26570891912E+02  0.93157964053E+02  0.41800000000E+01 0. -1.
         -5    1    3    3    0  502 -0.94403385717E+01 -0.34594212233E+02 -0.46922738031E+02  0.59203844949E+02  0.41800000000E+01 0. -1.
        -11    1    1    2    0    0  0.19030560735E+02 -0.31268187387E+02  0.12191470378E+02  0.38581002246E+02  0.00000000000E+00 0.  1.
         11    1    1    2    0    0  0.64072118810E+02  0.15575412319E+02 -0.80469970122E+02  0.10403483056E+03  0.00000000000E+00 0. -1.
</event>
<event>
 7    1  0.2799924E-009  0.1069111E+03  0.7561462E-02  0.1266399E+00
         -2   -1    0    0    0  501 -0.00000000000E+00  0.00000000000E+00  0.42132060461E+03  0.42132060461E+03  0.00000000000E+00 0.  1.
          2   -1    0    0  501    0  0.00000000000E+00 -0.00000000000E+00 -0.39488282050E+02  0.39488282050E+02  0.00000000000E+00 0. -1.
         25    2    1    2    0    0 -0.79470842528E+01  0.69134516261E+01  0.33422832882E+03  0.35702473682E+03  0.12508850849E+03 0.  0.
          5    1    3    3  502    0 -0.22280063153E+02 -0.56213521294E+02  0.15638662848E+03  0.16772182672E+03  0.41800000000E+01 0. -1.
         -5    1    3    3    0  502  0.14332978900E+02  0.63126972920E+02  0.17784170034E+03  0.18930291011E+03  0.41800000000E+01 0. -1.
        -11    1    1    2    0    0 -0.28092456862E+02  0.26920483619E+02  0.64018590131E+01  0.39431996775E+02  0.00000000000E+00 0. -1.
         11    1    1    2    0    0  0.36039541115E+02 -0.33833935245E+02  0.41202134727E+02  0.64352153064E+02  0.00000000000E+00 0.  1.
</event>
<event>
 7    1  0.2641580E-009  0.1079544E+03  0.7561462E-02  0.1264406E+00
         -2   -1    0    0    0  501 -0.00000000000E+00  0.00000000000E+00  0.23573044937E+03  0.23573044937E+03  0.00000000000E+00 0. -1.
          2   -1    0    0  501    0  0.00000000000E+00 -0.00000000000E+00 -0.38035020662E+03  0.38035020662E+03  0.00000000000E+00 0.  1.
         25    2    1    2    0    0  0.89945673623E+02  0.95263417884E+01  0.19730135046E+03  0.25051174820E+03  0.12508931889E+03 0.  0.
          5    1    3    3  502    0  0.44030012660E+02  0.25310351907E+02  0.19519149840E+03  0.20173360993E+03  0.41800000000E+01 0. -1.
         -5    1    3    3    0  502  0.45915660963E+02 -0.15784010118E+02  0.21098520625E+01  0.48778138268E+02  0.41800000000E+01 0. -1.
        -11    1    1    2    0    0 -0.70570217926E+02  0.26443560812E+02 -0.28926751247E+03  0.29892325325E+03  0.00000000000E+00 0.  1.
         11    1    1    2    0    0 -0.19375455697E+02 -0.35969902600E+02 -0.52653595248E+02  0.66645654540E+02  0.00000000000E+00 0. -1.
</event>
<event>
 7    1  0.2641580E-009  0.8843435E+02  0.7561462E-02  0.1306688E+00
          1   -1    0    0  501    0  0.00000000000E+00  0.00000000000E+00  0.37626697769E+03  0.37626697769E+03  0.00000000000E+00 0. -1.
         -1   -1    0    0    0  501 -0.00000000000E+00 -0.00000000000E+00 -0.88334056709E+02  0.88334056709E+02  0.00000000000E+00 0.  1.
         25    2    1    2    0    0  0.57275289048E+02 -0.10271479298E+01  0.32279150390E+03  0.35088857544E+03  0.12508766373E+03 0.  0.
          5    1    3    3  502    0  0.17167054830E+02  0.26261028724E+02  0.29104855130E+03  0.29276454876E+03  0.41800000000E+01 0. -1.
         -5    1    3    3    0  502  0.40108234218E+02 -0.27288176654E+02  0.31742952600E+02  0.58124026675E+02  0.41800000000E+01 0. -1.
        -11    1    1    2    0    0 -0.65669255545E+02 -0.24163734328E+02 -0.47227600763E+02  0.84420278691E+02  0.00000000000E+00 0.  1.
         11    1    1    2    0    0  0.83939664969E+01  0.25190882258E+02  0.12369017850E+02  0.29292180272E+02  0.00000000000E+00 0. -1.
</event>
<event>
 7    1  0.2641580E-009  0.1051694E+03  0.7561462E-02  0.1269786E+00
         -1   -1    0    0    0  501 -0.00000000000E+00  0.00000000000E+00  0.14921524217E+03  0.14921524217E+03  0.00000000000E+00 0.  1.
          1   -1    0    0  501    0  0.00000000000E+00 -0.00000000000E+00 -0.13112697255E+03  0.13112697255E+03  0.00000000000E+00 0. -1.
         25    2    1    2    0    0 -0.18459273537E+02 -0.19638183938E+02  0.76040396544E+02  0.14884771754E+03  0.12508836101E+03 0.  0.
          5    1    3    3  502    0  0.18509401744E+02  0.28076210459E+02 -0.16962615063E+02  0.37895570407E+02  0.41800000000E+01 0. -1.
         -5    1    3    3    0  502 -0.36968675281E+02 -0.47714394397E+02  0.93003011607E+02  0.11095214713E+03  0.41800000000E+01 0. -1.
        -11    1    1    2    0    0  0.57826358617E+02  0.41255892441E+02 -0.23267166961E+02  0.74748227205E+02  0.00000000000E+00 0. -1.
         11    1    1    2    0    0 -0.39367085080E+02 -0.21617708503E+02 -0.34684959965E+02  0.56746269978E+02  0.00000000000E+00 0.  1.
</event>
<event>
 7    1  0.2641580E-009  0.8629124E+02  0.7561462E-02  0.1312090E+00
          1   -1    0    0  501    0  0.00000000000E+00  0.00000000000E+00  0.10690899940E+04  0.10690899940E+04  0.00000000000E+00 0. -1.
         -1   -1    0    0    0  501 -0.00000000000E+00 -0.00000000000E+00 -0.23429552291E+02  0.23429552291E+02  0.00000000000E+00 0.  1.
         25    2    1    2    0    0 -0.46483394406E+02 -0.47180790706E+02  0.89004683018E+03  0.90123028755E+03  0.12508372526E+03 0.  0.
          5    1    3    3  502    0 -0.26263881817E+02 -0.55561156613E+01  0.79470311160E+03  0.79516738483E+03  0.41800000000E+01 0. -1.
         -5    1    3    3    0  502 -0.20219512589E+02 -0.41624675045E+02  0.95343718575E+02  0.10606290272E+03  0.41800000000E+01 0. -1.
        -11    1    1    2    0    0  0.95537105821E+01  0.59313576463E+02  0.48089110049E+02  0.76954117785E+02  0.00000000000E+00 0.  1.
         11    1    1    2    0    0  0.36929683823E+02 -0.12132785757E+02  0.10752450147E+03  0.11433514094E+03  0.00000000000E+00 0. -1.
</event>
<event>
 7    1  0.2641580E-009  0.2552037E+03  0.7561462E-02  0.1110060E+00
         -2   -1    0    0    0  501 -0.00000000000E+00  0.00000000000E+00  0.68158210675E+02  0.68158210675E+02  0.00000000000E+00 0.  1.
          2   -1    0    0  501    0  0.00000000000E+00 -0.00000000000E+00 -0.11375937084E+04  0.11375937084E+04  0.00000000000E+00 0. -1.
         25    2    1    2    0    0  0.10511064689E+03  0.21770053767E+03 -0.36448888465E+03  0.45490851710E+03  0.12509132547E+03 0.  0.
          5    1    3    3  502    0 -0.23400092924E+02  0.36010861994E+02 -0.10200231827E+03  0.11075329279E+03  0.41800000000E+01 0.  1.
         -5    1    3    3    0  502  0.12851073981E+03  0.18168967567E+03 -0.26248656637E+03  0.34415522431E+03  0.41800000000E+01 0.  1.
        -11    1    1    2    0    0 -0.45063928539E+02 -0.13606884211E+03 -0.28720895750E+03  0.32098983273E+03  0.00000000000E+00 0. -1.
         11    1    1    2    0    0 -0.60046718350E+02 -0.81631695561E+02 -0.41773765555E+03  0.42985356922E+03  0.00000000000E+00 0.  1.
</event>
<event>
 7    1  0.2641580E-009  0.1096901E+03  0.7561462E-02  0.1261145E+00
         -1   -1    0    0    0  501 -0.00000000000E+00  0.00000000000E+00  0.37673488999E+02  0.37673488999E+02  0.00000000000E+00 0.  1.
          1   -1    0    0  501    0  0.00000000000E+00 -0.00000000000E+00 -0.32293389915E+03  0.32293389915E+03  0.00000000000E+00 0. -1.
         25    2    1    2    0    0 -0.21109392677E+02  0.15131431467E+02 -0.16255627924E+03  0.20675270070E+03  0.12509024202E+03 0.  0.
          5    1    3    3  502    0 -0.50719873874E+01  0.70064428285E+02 -0.88431093536E+02  0.11301451177E+03  0.41800000000E+01 0. -1.
         -5    1    3    3    0  502 -0.16037405290E+02 -0.54932996818E+02 -0.74125185699E+02  0.93738188924E+02  0.41800000000E+01 0. -1.
        -11    1    1    2    0    0 -0.32644330484E+02  0.71880161884E+01 -0.57003489576E+02  0.66081144915E+02  0.00000000000E+00 0.  1.
         11    1    1    2    0    0  0.53753723161E+02 -0.22319447655E+02 -0.65700641343E+02  0.87773542541E+02  0.00000000000E+00 0. -1.
</event>
<event>
 7    1  0.2641580E-009  0.9324873E+02  0.7561462E-02  0.1295170E+00
          1   -1    0    0  501    0  0.00000000000E+00  0.00000000000E+00  0.15776673851E+03  0.15776673851E+03  0.00000000000E+00 0. -1.
         -1   -1    0    0    0  501 -0.00000000000E+00 -0.00000000000E+00 -0.14111498395E+03  0.14111498395E+03  0.00000000000E+00 0.  1.
         25    2    1    2    0    0  0.17899816162E+02  0.41580562781E+02 -0.80811619218E+02  0.15565077507E+03  0.12508916564E+03 0.  0.
          5    1    3    3  502    0  0.11634077941E+02  0.62605086041E+02 -0.10491079794E+03  0.12279452957E+03  0.41800000000E+01 0.  1.
         -5    1    3    3    0  502  0.62657382208E+01 -0.21024523260E+02  0.24099178717E+02  0.32856245504E+02  0.41800000000E+01 0.  1.
        -11    1    1    2    0    0 -0.10402542431E+02 -0.70097153904E+02  0.86385200020E+02  0.11173283607E+03  0.00000000000E+00 0. -1.
         11    1    1    2    0    0 -0.74972737310E+01  0.28516591123E+02  0.11078173760E+02  0.31498111317E+02  0.00000000000E+00 0.  1.
</event>
<event>
 7    1  0.2641580E-009  0.1062651E+03  0.7561462E-02  0.1267647E+00
          2   -1    0    0  501    0  0.00000000000E+00  0.00000000000E+00  0.18935536401E+03  0.18935536401E+03  0.00000000000E+00 0. -1.
         -2   -1    0    0    0  501 -0.00000000000E+00 -0.00000000000E+00 -0.93894258461E+02  0.93894258461E+02  0.00000000000E+00 0.  1.
         25    2    1    2    0    0  0.42235468254E+02  0.56088333567E+02  0.83610679231E+02  0.16603025453E+03  0.12508222814E+03 0.  0.
          5    1    3    3  502    0 -0.22582188919E+02  0.71820113202E+02  0.33550821968E+02  0.82530079192E+02  0.41800000000E+01 0. -1.
         -5    1    3    3    0  502  0.64817657174E+02 -0.15731779635E+02  0.50059857262E+02  0.83500175336E+02  0.41800000000E+01 0. -1.
        -11    1    1    2    0    0 -0.18926661711E+02 -0.22299395980E+02  0.52088223304E+02  0.59738300876E+02  0.00000000000E+00 0. -1.
         11    1    1    2    0    0 -0.23308806543E+02 -0.33788937587E+02 -0.40237796981E+02  0.57481067071E+02  0.00000000000E+00 0.  1.
</event>
<event>
 7    1  0.2641580E-009  0.1502099E+03  0.7561462E-02  0.1200215E+00
         -2   -1    0    0    0  501 -0.00000000000E+00  0.00000000000E+00  0.14343647523E+02  0.14343647523E+02  0.00000000000E+00 0.  1.
          2   -1    0    0  501    0  0.00000000000E+00 -0.00000000000E+00 -0.28025382622E+04  0.28025382622E+04  0.00000000000E+00 0. -1.
         25    2    1    2    0    0  0.16993905461E+02  0.10983203081E+03 -0.23436009652E+04  0.23495669673E+04  0.12509029625E+03 0.  0.
          5    1    3    3  502    0  0.53313695408E+02  0.13691556322E+02 -0.12262090430E+04  0.12274509760E+04  0.41800000000E+01 0.  1.
         -5    1    3    3    0  502 -0.36319789947E+02  0.96140474491E+02 -0.11173919221E+04  0.11221159914E+04  0.41800000000E+01 0.  1.
        -11    1    1    2    0    0 -0.53448727508E+02 -0.56660441035E+02 -0.20839147201E+03  0.22247286949E+03  0.00000000000E+00 0.  1.
         11    1    1    2    0    0  0.36454822048E+02 -0.53171589777E+02 -0.23620217749E+03  0.24484207290E+03  0.00000000000E+00 0. -1.
</event>
<event>
 7    1  0.2641580E-009  0.1077998E+03  0.7561462E-02  0.1264699E+00
         -2   -1    0    0    0  501 -0.00000000000E+00  0.00000000000E+00  0.18018866056E+02  0.18018866056E+02  0.00000000000E+00 0. -1.
          2   -1    0    0  501    0  0.00000000000E+00 -0.00000000000E+00 -0.80376430714E+03  0.80376430714E+03  0.00000000000E+00 0.  1.
         25    2    1    2    0    0 -0.83083574414E+01 -0.73057136494E+01 -0.61794657390E+03  0.63057674437E+03  0.12508661037E+03 0.  0.
          5    1    3    3  502    0 -0.55125787210E+02 -0.38821214744E+02 -0.38291246191E+03  0.38882562289E+03  0.41800000000E+01 0. -1.
         -5    1    3    3    0  502  0.46817429768E+02  0.31515501095E+02 -0.23503411199E+03  0.24175112148E+03  0.41800000000E+01 0. -1.
        -11    1    1    2    0    0 -0.98268021630E+01 -0.39791636103E+02 -0.81750301862E+02  0.91449724980E+02  0.00000000000E+00 0. -1.
         11    1    1    2    0    0  0.18135159604E+02  0.47097349752E+02 -0.86048565329E+02  0.99756703849E+02  0.00000000000E+00 0.  1.
</event>
<event>
 7    1  0.2742500E-009  0.1746898E+03  0.7561462E-02  0.1173044E+00
          2   -1    0    0  501    0  0.00000000000E+00  0.00000000000E+00  0.25607823523E+03  0.25607823523E+03  0.00000000000E+00 0.  1.
         -2   -1    0    0    0  501 -0.00000000000E+00 -0.00000000000E+00 -0.13288861914E+03  0.13288861914E+03  0.00000000000E+00 0. -1.
         25    2    1    2    0    0 -0.72204910979E+02  0.11902912145E+03  0.92571177647E+01  0.18740026170E+03  0.12510668620E+03 0.  0.
          5    1    3    3  502    0 -0.41197965971E+02 -0.17932976993E+02 -0.80827532913E+01  0.45843945781E+02  0.41800000000E+01 0. -1.
         -5    1    3    3    0  502 -0.31006945008E+02  0.13696209844E+03  0.17339871056E+02  0.14155631592E+03  0.41800000000E+01 0. -1.
        -11    1    1    2    0    0  0.89915676230E+02 -0.77840170616E+02  0.97598770554E+02  0.15384876017E+03  0.00000000000E+00 0. -1.
         11    1    1    2    0    0 -0.17710765251E+02 -0.41188950830E+02  0.16333727772E+02  0.47717832507E+02  0.00000000000E+00 0.  1.
</event>
<event>
 7    1  0.2641580E-009  0.1938456E+03  0.7561462E-02  0.1155038E+00
          1   -1    0    0  501    0  0.00000000000E+00  0.00000000000E+00  0.11876184889E+04  0.11876184889E+04  0.00000000000E+00 0. -1.
         -1   -1    0    0    0  501 -0.00000000000E+00 -0.00000000000E+00 -0.10908149307E+03  0.10908149307E+03  0.00000000000E+00 0.  1.
         25    2    1    2    0    0 -0.17518260561E+03 -0.43523350353E+02  0.10721120606E+04  0.10943742587E+04  0.12509004812E+03 0.  0.
          5    1    3    3  502    0 -0.10726962577E+02 -0.21816019110E+02  0.28672957107E+02  0.37823501757E+02  0.41800000000E+01 0.  1.
         -5    1    3    3    0  502 -0.16445564304E+03 -0.21707331243E+02  0.10434391035E+04  0.10565507569E+04  0.41800000000E+01 0.  1.
        -11    1    1    2    0    0  0.16435106650E+03  0.13189471247E+02  0.22361823813E+02  0.16638896110E+03  0.00000000000E+00 0.  1.
         11    1    1    2    0    0  0.10831539117E+02  0.30333879106E+02 -0.15936888601E+02  0.35936762229E+02  0.00000000000E+00 0. -1.
</event>
<event>
 7    1  0.2641580E-009  0.1382445E+03  0.7561462E-02  0.1215711E+00
          1   -1    0    0  501    0  0.00000000000E+00  0.00000000000E+00  0.27805640605E+03  0.27805640605E+03  0.00000000000E+00 0. -1.
         -1   -1    0    0    0  501 -0.00000000000E+00 -0.00000000000E+00 -0.77498250919E+02  0.77498250919E+02  0.00000000000E+00 0.  1.
         25    2    1    2    0    0 -0.10305119801E+02 -0.96004066148E+02  0.12937454116E+03  0.20422549786E+03  0.12508919164E+03 0.  0.
          5    1    3    3  502    0  0.50501216695E+02 -0.14944192573E+02  0.24173370830E+02  0.58099277419E+02  0.41800000000E+01 0. -1.
         -5    1    3    3    0  502 -0.60806336496E+02 -0.81059873575E+02  0.10520117033E+03  0.14612622044E+03  0.41800000000E+01 0. -1.
        -11    1    1    2    0    0 -0.24988098180E+02  0.79393207438E+02  0.17636153881E+02  0.85080669730E+02  0.00000000000E+00 0.  1.
         11    1    1    2    0    0  0.35293217980E+02  0.16610858710E+02  0.53547460092E+02  0.66248489378E+02  0.00000000000E+00 0. -1.
</event>
<event>
 7    1  0.2641580E-009  0.8449435E+02  0.7561462E-02  0.1316760E+00
          2   -1    0    0  501    0  0.00000000000E+00  0.00000000000E+00  0.69985312041E+02  0.69985312041E+02  0.00000000000E+00 0. -1.
         -2   -1    0    0    0  501 -0.00000000000E+00 -0.00000000000E+00 -0.18669205298E+03  0.18669205298E+03  0.00000000000E+00 0.  1.
         25    2    1    2    0    0  0.19319883990E+02 -0.30135824051E+02 -0.52472469662E+02  0.14029431497E+03  0.12509080274E+03 0.  0.
          5    1    3    3  502    0  0.48101717435E+01  0.28297466588E+02 -0.71380601050E+02  0.77048990738E+02  0.41800000000E+01 0. -1.
         -5    1    3    3    0  502  0.14509712247E+02 -0.58433290639E+02  0.18908131387E+02  0.63245324230E+02  0.41800000000E+01 0. -1.
        -11    1    1    2    0    0 -0.12655620161E+02  0.53684627137E+02 -0.72007724383E+02  0.90704554921E+02  0.00000000000E+00 0.  1.
         11    1    1    2    0    0 -0.66642638288E+01 -0.23548803087E+02  0.77734531044E+01  0.25678495134E+02  0.00000000000E+00 0. -1.
</event>
<event>
 7    1  0.2641580E-009  0.1303497E+03  0.7561462E-02  0.1226938E+00
          1   -1    0    0  501    0  0.00000000000E+00  0.00000000000E+00  0.16602830999E+03  0.16602830999E+03  0.00000000000E+00 0. -1.
         -1   -1    0    0    0  501 -0.00000000000E+00 -0.00000000000E+00 -0.13494608192E+03  0.13494608192E+03  0.00000000000E+00 0.  1.
         25    2    1    2    0    0 -0.20276917189E+02 -0.83577398576E+02 -0.21673790963E+02  0.15334598888E+03  0.12509558013E+03 0.  0.
          5    1    3    3  502    0  0.15792900113E+02 -0.90464973300E+02 -0.51930308618E+02  0.10558198919E+03  0.41800000000E+01 0.  1.
         -5    1    3    3    0  502 -0.36069817303E+02  0.68875747234E+01  0.30256517655E+02  0.47763999690E+02  0.41800000000E+01 0.  1.
        -11    1    1    2    0    0 -0.34631710999E+02  0.65346824023E+02  0.50830917016E+02  0.89740430918E+02  0.00000000000E+00 0. -1.
         11    1    1    2    0    0  0.54908628188E+02  0.18230574553E+02  0.19251020133E+01  0.57887972117E+02  0.00000000000E+00 0.  1.
</event>
<event>
 7    1  0.2641580E-009  0.1017889E+03  0.7561462E-02  0.1276578E+00
          2   -1    0    0  501    0  0.00000000000E+00  0.00000000000E+00  0.17073698935E+04  0.17073698935E+04  0.00000000000E+00 0. -1.
         -2   -1    0    0    0  501 -0.00000000000E+00 -0.00000000000E+00 -0.13206268593E+02  0.13206268593E+02  0.00000000000E+00 0.  1.
         25    2    1    2    0    0  0.32434879584E+01  0.37646488873E+02  0.14711718885E+04  0.14769638662E+04  0.12509100030E+03 0.  0.
          5    1    3    3  502    0 -0.16576702912E+01 -0.45684742081E+02  0.62057435877E+03  0.62226991787E+03  0.41800000000E+01 0.  1.
         -5    1    3    3    0  502  0.49011582496E+01  0.83331230953E+02  0.85059752973E+03  0.85469394837E+03  0.41800000000E+01 0.  1.
        -11    1    1    2    0    0  0.10693394345E+02 -0.52585582670E+02  0.21512919222E+03  0.22172090910E+03  0.00000000000E+00 0. -1.
         11    1    1    2    0    0 -0.13936882303E+02  0.14939093797E+02  0.78625441637E+01  0.21891386720E+02  0.00000000000E+00 0.  1.
</event>
<event>
 7    1  0.2641580E-009  0.8505066E+02  0.7561462E-02  0.1315300E+00
          3   -1    0    0  501    0  0.00000000000E+00  0.00000000000E+00  0.36604806008E+03  0.36604806008E+03  0.00000000000E+00 0. -1.
         -3   -1    0    0    0  501 -0.00000000000E+00 -0.00000000000E+00 -0.50331851117E+02  0.50331851117E+02  0.00000000000E+00 0.  1.
         25    2    1    2    0    0  0.10568770311E+02 -0.53049258562E+02  0.26647627676E+03  0.29930558969E+03  0.12509319407E+03 0.  0.
          5    1    3    3  502    0  0.52529621398E+02 -0.65215450122E+01  0.20372970205E+03  0.21053540218E+03  0.41800000000E+01 0.  1.
         -5    1    3    3    0  502 -0.41960851087E+02 -0.46527713550E+02  0.62746574711E+02  0.88770187508E+02  0.41800000000E+01 0.  1.
        -11    1    1    2    0    0 -0.69175133252E+01  0.25560119481E+02 -0.25863590392E+02  0.37014821443E+02  0.00000000000E+00 0.  1.
         11    1    1    2    0    0 -0.36512569855E+01  0.27489139081E+02  0.75103522593E+02  0.80059500066E+02  0.00000000000E+00 0. -1.
</event>
<event>
 7    1  0.2641580E-009  0.1614818E+03  0.7561462E-02  0.1187034E+00
          2   -1    0    0  501    0  0.00000000000E+00  0.00000000000E+00  0.37975349556E+03  0.37975349556E+03  0.00000000000E+00 0. -1.
         -2   -1    0    0    0  501 -0.00000000000E+00 -0.00000000000E+00 -0.84216656813E+02  0.84216656813E+02  0.00000000000E+00 0.  1.
         25    2    1    2    0    0 -0.11777814168E+03  0.78803567299E+02  0.15235647105E+03  0.24276457454E+03  0.12506179075E+03 0.  0.
          5    1    3    3  502    0 -0.12610087633E+03  0.64485011259E+02  0.16787980224E+03  0.21968351802E+03  0.41800000000E+01 0. -1.
         -5    1    3    3    0  502  0.83227346559E+01  0.14318556039E+02 -0.15523331186E+02  0.23081056525E+02  0.41800000000E+01 0. -1.
        -11    1    1    2    0    0  0.11491956067E+03 -0.34773077210E+02  0.80506334727E+02  0.14455774713E+03  0.00000000000E+00 0.  1.
         11    1    1    2    0    0  0.28585810092E+01 -0.44030490089E+02  0.62674032971E+02  0.76647830705E+02  0.00000000000E+00 0. -1.
</event>
<event>
 7    1  0.2641580E-009  0.1406971E+03  0.7561462E-02  0.1212394E+00
         -4   -1    0    0    0  501 -0.00000000000E+00  0.00000000000E+00  0.40969282324E+03  0.40969282324E+03  0.00000000000E+00 0.  1.
          4   -1    0    0  501    0  0.00000000000E+00 -0.00000000000E+00 -0.60569602916E+02  0.60569602916E+02  0.00000000000E+00 0. -1.
         25    2    1    2    0    0 -0.65186706104E+02  0.68206345702E+02  0.28232760973E+03  0.32288954135E+03  0.12508942582E+03 0.  0.
          5    1    3    3  502    0 -0.92878538002E+02  0.18713165498E+02  0.21344831236E+03  0.23356853348E+03  0.41800000000E+01 0. -1.
         -5    1    3    3    0  502  0.27691831898E+02  0.49493180204E+02  0.68879297370E+02  0.89321007869E+02  0.41800000000E+01 0. -1.
        -11    1    1    2    0    0  0.26727123156E+02 -0.83973116883E+02  0.56056183114E+02  0.10444194146E+03  0.00000000000E+00 0.  1.
         11    1    1    2    0    0  0.38459582948E+02  0.15766771181E+02  0.10739427489E+02  0.42930943348E+02  0.00000000000E+00 0. -1.
</event>
<event>
 7    1  0.2641580E-009  0.1327826E+03  0.7561462E-02  0.1223384E+00
         -2   -1    0    0    0  501 -0.00000000000E+00  0.00000000000E+00  0.98915277626E+02  0.98915277626E+02  0.00000000000E+00 0.  1.
          2   -1    0    0  501    0  0.00000000000E+00 -0.00000000000E+00 -0.23939712676E+03  0.23939712676E+03  0.00000000000E+00 0. -1.
         25    2    1    2    0    0  0.51715284946E+02 -0.89859660822E+02 -0.11167928065E+03  0.19715226666E+03  0.12509006828E+03 0.  0.
          5    1    3    3  502    0  0.93798113378E+01  0.13365160474E+02 -0.79061085699E+02  0.80837714263E+02  0.41800000000E+01 0. -1.
         -5    1    3    3    0  502  0.42335473608E+02 -0.10322482130E+03 -0.32618194956E+02  0.11631455240E+03  0.41800000000E+01 0. -1.
        -11    1    1    2    0    0 -0.76683105663E+02  0.55819306909E+02 -0.11522702068E+02  0.95545101292E+02  0.00000000000E+00 0.  1.
         11    1    1    2    0    0  0.24967820717E+02  0.34040353913E+02 -0.17279866416E+02  0.45615036437E+02  0.00000000000E+00 0. -1.
</event>
<event>
 7    1  0.2641580E-009  0.1189061E+03  0.7561462E-02  0.1244913E+00
         -1   -1    0    0    0  501 -0.00000000000E+00  0.00000000000E+00  0.40830274662E+02  0.40830274662E+02  0.00000000000E+00 0.  1.
          1   -1    0    0  501    0  0.00000000000E+00 -0.00000000000E+00 -0.42902541023E+03  0.42902541023E+03  0.00000000000E+00 0. -1.
         25    2    1    2    0    0 -0.21547097420E+02 -0.42622496846E+02 -0.11270109070E+03  0.17501504735E+03  0.12509107206E+03 0.  0.
          5    1    3    3  502    0 -0.36498761021E+02 -0.82901164862E+02 -0.78672802819E+02  0.12004851101E+03  0.41800000000E+01 0. -1.
         -5    1    3    3    0  502  0.14951663602E+02  0.40278668016E+02 -0.34028287884E+02  0.54966536346E+02  0.41800000000E+01 0. -1.
        -11    1    1    2    0    0  0.35946661399E+02 -0.19018686508E+02 -0.12890846725E+03  0.13517124632E+03  0.00000000000E+00 0. -1.
         11    1    1    2    0    0 -0.14399563979E+02  0.61641183354E+02 -0.14658557762E+03  0.15966939122E+03  0.00000000000E+00 0.  1.
</event>
<event>
 7    1  0.2641580E-009  0.1203462E+03  0.7561462E-02  0.1242527E+00
          1   -1    0    0  501    0  0.00000000000E+00  0.00000000000E+00  0.46007898890E+03  0.46007898890E+03  0.00000000000E+00 0. -1.
         -1   -1    0    0    0  501 -0.00000000000E+00 -0.00000000000E+00 -0.46247024800E+02  0.46247024800E+02  0.00000000000E+00 0.  1.
         25    2    1    2    0    0 -0.45819435711E+02  0.84436846779E+02  0.20163097136E+03  0.25598964201E+03  0.12508655572E+03 0.  0.
          5    1    3    3  502    0 -0.23277957877E+02  0.10478939858E+03  0.19780782766E+03  0.22509573621E+03  0.41800000000E+01 0.  1.
         -5    1    3    3    0  502 -0.22541477834E+02 -0.20352551803E+02  0.38231437037E+01  0.30893905801E+02  0.41800000000E+01 0.  1.
        -11    1    1    2    0    0  0.43320043382E+02 -0.42793588217E+02  0.39299725462E+02  0.72473345255E+02  0.00000000000E+00 0.  1.
         11    1    1    2    0    0  0.24993923289E+01 -0.41643258563E+02  0.17290126728E+03  0.17786302643E+03  0.00000000000E+00 0. -1.
</event>
<event>
 7    1  0.2641580E-009  0.1659727E+03  0.7561462E-02  0.1182114E+00
         -1   -1    0    0    0  501 -0.00000000000E+00  0.00000000000E+00  0.22806565290E+03  0.22806565290E+03  0.00000000000E+00 0.  1.
          1   -1    0    0  501    0  0.00000000000E+00 -0.00000000000E+00 -0.16037900945E+03  0.16037900945E+03  0.00000000000E+00 0. -1.
         25    2    1    2    0    0  0.13473342277E+03  0.80804916914E+02  0.33688931821E+02  0.20364980884E+03  0.12512302228E+03 0.  0.
          5    1    3    3  502    0  0.93316627453E+02  0.67668479674E+02  0.79719654520E+02  0.14021309432E+03  0.41800000000E+01 0.  1.
         -5    1    3    3    0  502  0.41416795319E+02  0.13136437240E+02 -0.46030722700E+02  0.63436714528E+02  0.41800000000E+01 0.  1.
        -11    1    1    2    0    0 -0.44905465263E+02 -0.69033349221E+02 -0.11945330282E+02  0.83215353335E+02  0.00000000000E+00 0.  1.
         11    1    1    2    0    0 -0.89827957509E+02 -0.11771567693E+02  0.45943041913E+02  0.10157950018E+03  0.00000000000E+00 0. -1.
</event>
<event>
 7    1  0.2641580E-009  0.1292735E+03  0.7561462E-02  0.1228538E+00
         -1   -1    0    0    0  501 -0.00000000000E+00  0.00000000000E+00  0.71947792667E+02  0.71947792667E+02  0.00000000000E+00 0.  1.
          1   -1    0    0  501    0  0.00000000000E+00 -0.00000000000E+00 -0.30402828082E+03  0.30402828082E+03  0.00000000000E+00 0. -1.
         25    2    1    2    0    0 -0.55265218493E+02  0.71294079981E+02 -0.70189113743E+02  0.16944349005E+03  0.12508994530E+03 0.  0.
          5    1    3    3  502    0 -0.55385538852E+02  0.94342172043E+02 -0.16301945435E+02  0.11068527077E+03  0.41800000000E+01 0.  1.
         -5    1    3    3    0  502  0.12032035876E+00 -0.23048092061E+02 -0.53887168307E+02  0.58758219279E+02  0.41800000000E+01 0.  1.
        -11    1    1    2    0    0 -0.15135213239E+02 -0.49779930977E+02 -0.87995849459E+02  0.10222712815E+03  0.00000000000E+00 0. -1.
         11    1    1    2    0    0  0.70400431732E+02 -0.21514149004E+02 -0.73895524947E+02  0.10430545529E+03  0.00000000000E+00 0.  1.
</event>
<event>
 7    1  0.2641580E-009  0.2803436E+03  0.7561462E-02  0.1095501E+00
         -2   -1    0    0    0  501 -0.00000000000E+00  0.00000000000E+00  0.30642615162E+03  0.30642615162E+03  0.00000000000E+00 0.  1.
          2   -1    0    0  501    0  0.00000000000E+00 -0.00000000000E+00 -0.26559560867E+03  0.26559560867E+03  0.00000000000E+00 0. -1.
         25    2    1    2    0    0 -0.66626562777E+02  0.25137206981E+03 -0.19936582585E+02  0.28926039107E+03  0.12508832948E+03 0.  0.
          5    1    3    3  502    0  0.16215368954E+02  0.16246106587E+03  0.11314890405E+02  0.16371327148E+03  0.41800000000E+01 0. -1.
         -5    1    3    3    0  502 -0.82841931731E+02  0.88911003943E+02 -0.31251472990E+02  0.12554711960E+03  0.41800000000E+01 0. -1.
        -11    1    1    2    0    0  0.35890736788E+02 -0.24050725478E+03  0.48694117552E+02  0.24799798724E+03  0.00000000000E+00 0.  1.
         11    1    1    2    0    0  0.30735825989E+02 -0.10864815026E+02  0.12073007979E+02  0.34763381976E+02  0.00000000000E+00 0. -1.
</event>
<event>
 7    1  0.2641580E-009  0.1486690E+03  0.7561462E-02  0.1202118E+00
          2   -1    0    0  501    0  0.00000000000E+00  0.00000000000E+00  0.85276026309E+03  0.85276026309E+03  0.00000000000E+00 0. -1.
         -2   -1    0    0    0  501 -0.00000000000E+00 -0.00000000000E+00 -0.32466902251E+02  0.32466902251E+02  0.00000000000E+00 0.  1.
         25    2    1    2    0    0  0.65061849345E+02 -0.97888260731E+02  0.58973141193E+03  0.61420347769E+03  0.12509043912E+03 0.  0.
          5    1    3    3  502    0  0.85155374256E+02 -0.10801923628E+03  0.56012456493E+03  0.57678123566E+03  0.41800000000E+01 0. -1.
         -5    1    3    3    0  502 -0.20093524911E+02  0.10130975553E+02  0.29606846992E+02  0.37422242020E+02  0.41800000000E+01 0. -1.
        -11    1    1    2    0    0 -0.30966021921E+02  0.97964563913E+02  0.20166814271E+03  0.22633159320E+03  0.00000000000E+00 0.  1.
         11    1    1    2    0    0 -0.34095827424E+02 -0.76303182612E-01  0.28893806197E+02  0.44692094452E+02  0.00000000000E+00 0. -1.
</event>
<event>
 7    1  0.2641580E-009  0.1025324E+03  0.7561462E-02  0.1275059E+00
         -2   -1    0    0    0  501 -0.00000000000E+00  0.00000000000E+00  0.86759147069E+02  0.86759147069E+02  0.00000000000E+00 0.  1.
          2   -1    0    0  501    0  0.00000000000E+00 -0.00000000000E+00 -0.19605283587E+03  0.19605283587E+03  0.00000000000E+00 0. -1.
         25    2    1    2    0    0  0.15502053592E+02 -0.67144094144E+02 -0.85126845037E+02  0.16626143704E+03  0.12509053783E+03 0.  0.
          5    1    3    3  502    0  0.58053636498E+01 -0.10027349960E+03 -0.37505953831E+02  0.10729699876E+03  0.41800000000E+01 0.  1.
         -5    1    3    3    0  502  0.96966899419E+01  0.33129405460E+02 -0.47620891206E+02  0.58964438276E+02  0.41800000000E+01 0.  1.
        -11    1    1    2    0    0 -0.39353949416E+01  0.40852204961E+02  0.32940929786E+02  0.52625990145E+02  0.00000000000E+00 0.  1.
         11    1    1    2    0    0 -0.11566658650E+02  0.26291889183E+02 -0.57107773551E+02  0.63924555760E+02  0.00000000000E+00 0. -1.
</event>
<event>
 7    1  0.2931338E-009  0.1199190E+03  0.7561462E-02  0.1243231E+00
         -2   -1    0    0    0  501 -0.00000000000E+00  0.00000000000E+00  0.26437828255E+03  0.26437828255E+03  0.00000000000E+00 0.  1.
          2   -1    0    0  501    0  0.00000000000E+00 -0.00000000000E+00 -0.66976143770E+02  0.66976143770E+02  0.00000000000E+00 0. -1.
         25    2    1    2    0    0 -0.73912366995E+02  0.16340810673E+02  0.12392544515E+03  0.19166382074E+03  0.12508974433E+03 0.  0.
          5    1    3    3  502    0  0.32270862175E+02  0.14333658537E+01  0.76848432586E+01  0.33466286007E+02  0.41800000000E+01 0. -1.
         -5    1    3    3    0  502 -0.10618322917E+03  0.14907444820E+02  0.11624060189E+03  0.15819753473E+03  0.41800000000E+01 0. -1.
        -11    1    1    2    0    0 -0.83520631297E+01  0.10509844906E+02  0.47469943089E+02  0.49331625712E+02  0.00000000000E+00 0.  1.
         11    1    1    2    0    0  0.82264430125E+02 -0.26850655580E+02  0.26006750539E+02  0.90358979866E+02  0.00000000000E+00 0. -1.
</event>
<event>
 7    1  0.2641580E-009  0.1103852E+03  0.7561462E-02  0.1259858E+00
         -1   -1    0    0    0  501 -0.00000000000E+00  0.00000000000E+00  0.15576515702E+02  0.15576515702E+02  0.00000000000E+00 0.  1.
          1   -1    0    0  501    0  0.00000000000E+00 -0.00000000000E+00 -0.10481865161E+04  0.10481865161E+04  0.00000000000E+00 0. -1.
         25    2    1    2    0    0  0.57512021601E+02  0.15059053199E+02 -0.70844266250E+03  0.72185397739E+03  0.12509097053E+03 0.  0.
          5    1    3    3  502    0  0.42949981998E+02 -0.51716843878E+02 -0.42195689610E+03  0.42729899071E+03  0.41800000000E+01 0. -1.
         -5    1    3    3    0  502  0.14562039603E+02  0.66775897077E+02 -0.28648576640E+03  0.29455498668E+03  0.41800000000E+01 0. -1.
        -11    1    1    2    0    0 -0.60849885829E+02 -0.31253549046E+02 -0.31627295823E+03  0.32358627449E+03  0.00000000000E+00 0. -1.
         11    1    1    2    0    0  0.33378642282E+01  0.16194495847E+02 -0.78943796542E+01  0.18322779906E+02  0.00000000000E+00 0.  1.
</event>
<event>
 7    1  0.2641580E-009  0.9965383E+02  0.7561462E-02  0.1281026E+00
          1   -1    0    0  501    0  0.00000000000E+00  0.00000000000E+00  0.14285686137E+03  0.14285686137E+03  0.00000000000E+00 0. -1.
         -1   -1    0    0    0  501 -0.00000000000E+00 -0.00000000000E+00 -0.12049292781E+03  0.12049292781E+03  0.00000000000E+00 0.  1.
         25    2    1    2    0    0 -0.53909623274E+02 -0.63339142764E+01 -0.39501119146E+02  0.14196564308E+03  0.12509012531E+03 0.  0.
          5    1    3    3  502    0  0.17508330105E+02 -0.40528010123E+02  0.13777278233E+02  0.46436483751E+02  0.41800000000E+01 0. -1.
         -5    1    3    3    0  502 -0.71417953379E+02  0.34194095847E+02 -0.53278397379E+02  0.95529159334E+02  0.41800000000E+01 0. -1.
        -11    1    1    2    0    0 -0.10523647014E+02 -0.19615681201E+01 -0.16452813560E+02  0.19628804599E+02  0.00000000000E+00 0.  1.
         11    1    1    2    0    0  0.64433270288E+02  0.82954823965E+01  0.78317866262E+02  0.10175534150E+03  0.00000000000E+00 0. -1.
</event>
<event>
 7    1  0.2641580E-009  0.1087407E+03  0.7561462E-02  0.1262920E+00
          2   -1    0    0  501    0  0.00000000000E+00  0.00000000000E+00  0.19016447015E+03  0.19016447015E+03  0.00000000000E+00 0. -1.
         -2   -1    0    0    0  501 -0.00000000000E+00 -0.00000000000E+00 -0.65744743128E+02  0.65744743128E+02  0.00000000000E+00 0.  1.
         25    2    1    2    0    0  0.27557417106E+02 -0.36194726128E+01  0.75785611836E+02  0.14887156767E+03  0.12508706120E+03 0.  0.
          5    1    3    3  502    0 -0.41025517772E+02 -0.33535572660E+02  0.33390164780E+02  0.62770241725E+02  0.41800000000E+01 0. -1.
         -5    1    3    3    0  502  0.68582934878E+02  0.29916100047E+02  0.42395447056E+02  0.86101325946E+02  0.41800000000E+01 0. -1.
        -11    1    1    2    0    0  0.15578302518E+02 -0.30593862298E+02  0.11792598010E+01  0.34351980632E+02  0.00000000000E+00 0. -1.
         11    1    1    2    0    0 -0.43135719624E+02  0.34213334911E+02  0.47454855384E+02  0.72685664974E+02  0.00000000000E+00 0.  1.
</event>
<event>
 7    1  0.2641580E-009  0.1865553E+03  0.7561462E-02  0.1161605E+00
          2   -1    0    0  501    0  0.00000000000E+00  0.00000000000E+00  0.10150549720E+04  0.10150549720E+04  0.00000000000E+00 0. -1.
         -2   -1    0    0    0  501 -0.00000000000E+00 -0.00000000000E+00 -0.35236417364E+02  0.35236417364E+02  0.00000000000E+00 0.  1.
         25    2    1    2    0    0  0.92357533018E+02  0.12145660736E+03  0.53009247702E+03  0.56562134778E+03  0.12509138056E+03 0.  0.
          5    1    3    3  502    0 -0.25939299959E+02 -0.56573499817E+00  0.92678559531E+02  0.96332523766E+02  0.41800000000E+01 0.  1.
         -5    1    3    3    0  502  0.11829683298E+03  0.12202234236E+03  0.43741391749E+03  0.46928882401E+03  0.41800000000E+01 0.  1.
        -11    1    1    2    0    0 -0.10218687530E+03 -0.68630832796E+02  0.26326705042E+03  0.29062327596E+03  0.00000000000E+00 0.  1.
         11    1    1    2    0    0  0.98293422773E+01 -0.52825774563E+02  0.18645902718E+03  0.19404676561E+03  0.00000000000E+00 0. -1.
</event>
<event>
 7    1  0.2641580E-009  0.1280000E+03  0.7561462E-02  0.1230454E+00
          2   -1    0    0  501    0  0.00000000000E+00  0.00000000000E+00  0.23004904392E+03  0.23004904392E+03  0.00000000000E+00 0.  1.
         -2   -1    0    0    0  501 -0.00000000000E+00 -0.00000000000E+00 -0.92396885553E+02  0.92396885553E+02  0.00000000000E+00 0. -1.
         25    2    1    2    0    0 -0.95385957263E+02 -0.15240486467E+02  0.81370008977E+02  0.17775801397E+03  0.12508429117E+03 0.  0.
          5    1    3    3  502    0 -0.27531095836E+02 -0.59183507279E+02  0.36033570016E+01  0.65506529091E+02  0.41800000000E+01 0. -1.
         -5    1    3    3    0  502 -0.67854861427E+02  0.43943020812E+02  0.77766651976E+02  0.11225148488E+03  0.41800000000E+01 0. -1.
        -11    1    1    2    0    0  0.21575408658E+02  0.27361369154E+02 -0.18044426986E+02  0.39239573468E+02  0.00000000000E+00 0. -1.
         11    1    1    2    0    0  0.73810548605E+02 -0.12120882687E+02  0.74326576373E+02  0.10544834203E+03  0.00000000000E+00 0.  1.
</event>
<event>
 7    1  0.2641580E-009  0.1074422E+03  0.7561462E-02  0.1265381E+00
          1   -1    0    0  501    0  0.00000000000E+00  0.00000000000E+00  0.50816010879E+02  0.50816010879E+02  0.00000000000E+00 0. -1.
         -1   -1    0    0    0  501 -0.00000000000E+00 -0.00000000000E+00 -0.27807616116E+03  0.27807616116E+03  0.00000000000E+00 0.  1.
         25    2    1    2    0    0  0.30106890656E+02  0.31811318430E+01 -0.18019618881E+03  0.22143591823E+03  0.12508658983E+03 0.  0.
          5    1    3    3  502    0  0.75587631390E+02 -0.74253118297E+01 -0.77757654920E+02  0.10877660858E+03  0.41800000000E+01 0.  1.
         -5    1    3    3    0  502 -0.45480740734E+02  0.10606443673E+02 -0.10243853389E+03  0.11265930965E+03  0.41800000000E+01 0.  1.
        -11    1    1    2    0    0  0.28107294010E+02  0.13768698833E+02 -0.10058206597E+01  0.31314672589E+02  0.00000000000E+00 0.  1.
         11    1    1    2    0    0 -0.58214184667E+02 -0.16949830676E+02 -0.46058140814E+02  0.76141581226E+02  0.00000000000E+00 0. -1.
</event>
<event>
 7    1  0.2641580E-009  0.9174932E+02  0.7561462E-02  0.1298670E+00
         -2   -1    0    0    0  501 -0.00000000000E+00  0.00000000000E+00  0.35838696526E+02  0.35838696526E+02  0.00000000000E+00 0. -1.
          2   -1    0    0  501    0  0.00000000000E+00 -0.00000000000E+00 -0.42296083210E+03  0.42296083210E+03  0.00000000000E+00 0.  1.
         25    2    1    2    0    0 -0.14774295505E+02 -0.12067131716E+02 -0.11625739944E+03  0.17183619014E+03  0.12509195755E+03 0.  0.
          5    1    3    3  502    0 -0.47648890795E+02 -0.42109200053E+02 -0.21849732217E+02  0.67368276815E+02  0.41800000000E+01 0. -1.
         -5    1    3    3    0  502  0.32874595290E+02  0.30042068336E+02 -0.94407667220E+02  0.10446791333E+03  0.41800000000E+01 0. -1.
        -11    1    1    2    0    0 -0.29290365104E+02 -0.24022997907E+00 -0.30516511836E+02  0.42299417171E+02  0.00000000000E+00 0. -1.
         11    1    1    2    0    0  0.44064660609E+02  0.12307361695E+02 -0.24034822431E+03  0.24466392132E+03  0.00000000000E+00 0.  1.
</event>
<event>
 7    1  0.2641580E-009  0.1039526E+03  0.7561462E-02  0.1272197E+00
          1   -1    0    0  501    0  0.00000000000E+00  0.00000000000E+00  0.35091323305E+03  0.35091323305E+03  0.00000000000E+00 0. -1.
         -1   -1    0    0    0  501 -0.00000000000E+00 -0.00000000000E+00 -0.51302950983E+02  0.51302950983E+02  0.00000000000E+00 0.  1.
         25    2    1    2    0    0 -0.37777784600E+02  0.32489387382E+02  0.12394641512E+03  0.18301110605E+03  0.12509048651E+03 0.  0.
          5    1    3    3  502    0 -0.71954784247E+02  0.54528396276E+02  0.65208335517E+02  0.11144701161E+03  0.41800000000E+01 0.  1.
         -5    1    3    3    0  502  0.34176999647E+02 -0.22039008894E+02  0.58738079598E+02  0.71564094438E+02  0.41800000000E+01 0.  1.
        -11    1    1    2    0    0  0.31290345371E+02 -0.49432146281E+02  0.18824560624E+03  0.19712694151E+03  0.00000000000E+00 0. -1.
         11    1    1    2    0    0  0.64874392287E+01  0.16942758899E+02 -0.12581739286E+02  0.22078136478E+02  0.00000000000E+00 0.  1.
</event>
<event>
 7    1  0.2641580E-009  0.1226158E+03  0.7561462E-02  0.1238843E+00
          2   -1    0    0  501    0  0.00000000000E+00  0.00000000000E+00  0.29890658605E+03  0.29890658605E+03  0.00000000000E+00 0. -1.
         -2   -1    0    0    0  501 -0.00000000000E+00 -0.00000000000E+00 -0.93190366733E+02  0.93190366733E+02  0.00000000000E+00 0.  1.
         25    2    1    2    0    0  0.55329981476E+02  0.58406876806E+02 -0.64419734431E+01  0.14887051843E+03  0.12509261420E+03 0.  0.
          5    1    3    3  502    0  0.26970747664E+02 -0.33275536506E+02  0.22476749265E+02  0.48552643768E+02  0.41800000000E+01 0. -1.
         -5    1    3    3    0  502  0.28359233812E+02  0.91682413312E+02 -0.28918722708E+02  0.10031787466E+03  0.41800000000E+01 0. -1.
        -11    1    1    2    0    0 -0.52129909838E+01 -0.55702293041E+02  0.55823685099E+02  0.79032933281E+02  0.00000000000E+00 0.  1.
         11    1    1    2    0    0 -0.50116990493E+02 -0.27045837658E+01  0.15633450767E+03  0.16419350108E+03  0.00000000000E+00 0. -1.
</event>
<event>
 7    1  0.2641580E-009  0.8478163E+02  0.7561462E-02  0.1316005E+00
         -1   -1    0    0    0  501 -0.00000000000E+00  0.00000000000E+00  0.53735887059E+03  0.53735887059E+03  0.00000000000E+00 0.  1.
          1   -1    0    0  501    0  0.00000000000E+00 -0.00000000000E+00 -0.29571980922E+02  0.29571980922E+02  0.00000000000E+00 0. -1.
         25    2    1    2    0    0  0.11502165972E+02  0.57878171016E+02  0.32397013016E+03  0.35225820002E+03  0.12508801599E+03 0.  0.
          5    1    3    3  502    0 -0.33983646265E+02  0.14159075564E+02  0.20649232512E+02  0.42417341237E+02  0.41800000000E+01 0. -1.
         -5    1    3    3    0  502  0.45485812237E+02  0.43719095452E+02  0.30332089764E+03  0.30984085878E+03  0.41800000000E+01 0. -1.
        -11    1    1    2    0    0 -0.24615228002E+02 -0.33103113307E+02  0.18196261422E+03  0.18658005932E+03  0.00000000000E+00 0.  1.
         11    1    1    2    0    0  0.13113062030E+02 -0.24775057709E+02  0.18541452869E+01  0.28092592174E+02  0.00000000000E+00 0. -1.
</event>
<event>
 7    1  0.2641580E-009  0.1243809E+03  0.7561462E-02  0.1236040E+00
          1   -1    0    0  501    0  0.00000000000E+00  0.00000000000E+00  0.15298325601E+03  0.15298325601E+03  0.00000000000E+00 0. -1.
         -1   -1    0    0    0  501 -0.00000000000E+00 -0.00000000000E+00 -0.12179639472E+03  0.12179639472E+03  0.00000000000E+00 0.  1.
         25    2    1    2    0    0  0.99314888091E+01  0.74949265434E+02  0.49926581930E+02  0.15445780652E+03  0.12509405882E+03 0.  0.
          5    1    3    3  502    0 -0.38132879493E+02  0.72413265941E+02 -0.40134854073E+01  0.82044975762E+02  0.41800000000E+01 0. -1.
         -5    1    3    3    0  502  0.48064368302E+02  0.25359994933E+01  0.53940067337E+02  0.72412830756E+02  0.41800000000E+01 0. -1.
        -11    1    1    2    0    0 -0.39944222367E+02 -0.78699749287E+02 -0.17962088885E+02  0.90065687559E+02  0.00000000000E+00 0.  1.
         11    1    1    2    0    0  0.30012733558E+02  0.37504838525E+01 -0.77763175391E+00  0.30256156661E+02  0.00000000000E+00 0. -1.
</event>
<event>
 7    1  0.2641580E-009  0.1184135E+03  0.7561462E-02  0.1245737E+00
          1   -1    0    0  501    0  0.00000000000E+00  0.00000000000E+00  0.50833763187E+03  0.50833763187E+03  0.00000000000E+00 0. -1.
         -1   -1    0    0    0  501 -0.00000000000E+00 -0.00000000000E+00 -0.31424200156E+02  0.31424200156E+02  0.00000000000E+00 0.  1.
         25    2    1    2    0    0 -0.63506273321E+02 -0.16127850630E+02  0.23790675141E+03  0.27665960510E+03  0.12509100851E+03 0.  0.
          5    1    3    3  502    0 -0.86304181240E+02  0.16957299488E+02  0.20956641239E+03  0.22731369362E+03  0.41800000000E+01 0. -1.
         -5    1    3    3    0  502  0.22797907919E+02 -0.33085150118E+02  0.28340339025E+02  0.49345911481E+02  0.41800000000E+01 0. -1.
        -11    1    1    2    0    0  0.45591880685E+02 -0.32871220574E+02  0.10136961666E+03  0.11590917094E+03  0.00000000000E+00 0.  1.
         11    1    1    2    0    0  0.17914392636E+02  0.48999071204E+02  0.13763706364E+03  0.14719305598E+03  0.00000000000E+00 0. -1.
</event>
<event>
 7    1  0.3008782E-009  0.1454188E+03  0.7561462E-02  0.1206218E+00
         -2   -1    0    0    0  501 -0.00000000000E+00  0.00000000000E+00  0.65229872390E+02  0.65229872390E+02  0.00000000000E+00 0.  1.
          2   -1    0    0  501    0  0.00000000000E+00 -0.00000000000E+00 -0.47633579101E+03  0.47633579101E+03  0.00000000000E+00 0. -1.
         25    2    1    2    0    0 -0.10177612956E+03  0.63484793638E+02 -0.32336090130E+03  0.36687705296E+03  0.12509116644E+03 0.  0.
          5    1    3    3  502    0 -0.23824418256E+02  0.85426269870E+02 -0.20503334216E+03  0.22343096089E+03  0.41800000000E+01 0.  1.
         -5    1    3    3    0  502 -0.77951711303E+02 -0.21941476232E+02 -0.11832755915E+03  0.14344609206E+03  0.41800000000E+01 0.  1.
        -11    1    1    2    0    0  0.50443568914E+02 -0.40639982656E+02 -0.98098431950E+02  0.11755621713E+03  0.00000000000E+00 0. -1.
         11    1    1    2    0    0  0.51332560645E+02 -0.22844810982E+02  0.10353414635E+02  0.57132393314E+02  0.00000000000E+00 0.  1.
</event>
<event>
 7    1  0.2641580E-009  0.1226716E+03  0.7561462E-02  0.1238754E+00
          2   -1    0    0  501    0  0.00000000000E+00  0.00000000000E+00  0.23905450417E+03  0.23905450417E+03  0.00000000000E+00 0. -1.
         -2   -1    0    0    0  501 -0.00000000000E+00 -0.00000000000E+00 -0.11150416381E+03  0.11150416381E+03  0.00000000000E+00 0.  1.
         25    2    1    2    0    0 -0.75943652347E+02 -0.39182197822E+02 -0.25254334925E+02  0.15358403382E+03  0.12509033158E+03 0.  0.
          5    1    3    3  502    0 -0.97026813144E+02 -0.47808680438E+02 -0.50394032016E+02  0.11940227492E+03  0.41800000000E+01 0.  1.
         -5    1    3    3    0  502  0.21083160797E+02  0.86264826160E+01  0.25139697090E+02  0.34181758897E+02  0.41800000000E+01 0.  1.
        -11    1    1    2    0    0  0.45594823340E+02  0.61289683181E+02  0.13568129502E+03  0.15570718351E+03  0.00000000000E+00 0.  1.
         11    1    1    2    0    0  0.30348829008E+02 -0.22107485359E+02  0.17123380266E+02  0.41267450645E+02  0.00000000000E+00 0. -1.
</event>
<event>
 7    1  0.2641580E-009  0.9852141E+02  0.7561462E-02  0.1283436E+00
          2   -1    0    0  501    0  0.00000000000E+00  0.00000000000E+00  0.66937457378E+02  0.66937457378E+02  0.00000000000E+00 0. -1.
         -2   -1    0    0    0  501 -0.00000000000E+00 -0.00000000000E+00 -0.20910061488E+03  0.20910061488E+03  0.00000000000E+00 0.  1.
         25    2    1    2    0    0 -0.31600906844E+02 -0.12892929090E+02 -0.41154223077E+02  0.13603511307E+03  0.12508811685E+03 0.  0.
          5    1    3    3  502    0  0.47145391129E+02  0.74646988672E+01 -0.19756192245E+02  0.51828459035E+02  0.41800000000E+01 0. -1.
         -5    1    3    3    0  502 -0.78746297973E+02 -0.20357627958E+02 -0.21398030832E+02  0.84206654036E+02  0.41800000000E+01 0. -1.
        -11    1    1    2    0    0  0.39601116511E+02 -0.12127590692E+02 -0.10551369802E+03  0.11335108007E+03  0.00000000000E+00 0.  1.
         11    1    1    2    0    0 -0.80002096667E+01  0.25020519783E+02  0.45047635960E+01  0.26651879108E+02  0.00000000000E+00 0. -1.
</event>
<event>
 7    1  0.2641580E-009  0.4366997E+03  0.7561462E-02  0.1031764E+00
          2   -1    0    0  501    0  0.00000000000E+00  0.00000000000E+00  0.57451535430E+03  0.57451535430E+03  0.00000000000E+00 0. -1.
         -2   -1    0    0    0  501 -0.00000000000E+00 -0.00000000000E+00 -0.34510129443E+03  0.34510129443E+03  0.00000000000E+00 0.  1.
         25    2    1    2    0    0  0.42256408332E+03 -0.57158610148E+02  0.47276833949E+02  0.44688627486E+03  0.12507890472E+03 0.  0.
          5    1    3    3  502    0  0.19590858430E+03 -0.84814450475E+02 -0.72147429450E+00  0.21352203010E+03  0.41800000000E+01 0.  1.
         -5    1    3    3    0  502  0.22665549902E+03  0.27655840327E+02  0.47998308244E+02  0.23336424477E+03  0.41800000000E+01 0.  1.
        -11    1    1    2    0    0 -0.29419377913E+03  0.87950087614E+01  0.15590147670E+03  0.33306546247E+03  0.00000000000E+00 0.  1.
         11    1    1    2    0    0 -0.12837030420E+03  0.48363601387E+02  0.26235749219E+02  0.13966491140E+03  0.00000000000E+00 0. -1.
</event>
<event>
 7    1  0.2641580E-009  0.7559129E+02  0.7561462E-02  0.1342050E+00
         -3   -1    0    0    0  501 -0.00000000000E+00  0.00000000000E+00  0.45139057526E+03  0.45139057526E+03  0.00000000000E+00 0.  1.
          3   -1    0    0  501    0  0.00000000000E+00 -0.00000000000E+00 -0.32270442497E+02  0.32270442497E+02  0.00000000000E+00 0. -1.
         25    2    1    2    0    0 -0.14358870748E+02 -0.34750539011E+02  0.31210279347E+03  0.33833361939E+03  0.12509079577E+03 0.  0.
          5    1    3    3  502    0 -0.44358037147E+01 -0.53737429966E+02  0.45041474677E+02  0.70381777294E+02  0.41800000000E+01 0. -1.
         -5    1    3    3    0  502 -0.99230670328E+01  0.18986890955E+02  0.26706131879E+03  0.26795184209E+03  0.41800000000E+01 0. -1.
        -11    1    1    2    0    0 -0.44843940651E+00  0.52305343447E+02  0.21115272283E+02  0.56408375039E+02  0.00000000000E+00 0. -1.
         11    1    1    2    0    0  0.14807310154E+02 -0.17554804436E+02  0.85902067016E+02  0.88919023332E+02  0.00000000000E+00 0.  1.
</event>
<event>
 7    1  0.2641580E-009  0.1095856E+03  0.7561462E-02  0.1261339E+00
         -1   -1    0    0    0  501 -0.00000000000E+00  0.00000000000E+00  0.48063016135E+02  0.48063016135E+02  0.00000000000E+00 0.  1.
          1   -1    0    0  501    0  0.00000000000E+00 -0.00000000000E+00 -0.29058828249E+03  0.29058828249E+03  0.00000000000E+00 0. -1.
         25    2    1    2    0    0  0.89138589267E+01  0.38964758454E+02 -0.10315649030E+03  0.16701524331E+03  0.12512042488E+03 0.  0.
          5    1    3    3  502    0  0.40116079654E+02  0.67255022924E+02 -0.96212866010E+02  0.12412463874E+03  0.41800000000E+01 0.  1.
         -5    1    3    3    0  502 -0.31202220728E+02 -0.28290264469E+02 -0.69436242945E+01  0.42890604571E+02  0.41800000000E+01 0.  1.
        -11    1    1    2    0    0 -0.50589540717E+01  0.29459911535E+02 -0.28531546434E+02  0.41322252430E+02  0.00000000000E+00 0.  1.
         11    1    1    2    0    0 -0.38549048550E+01 -0.68424669989E+02 -0.11083722962E+03  0.13031380289E+03  0.00000000000E+00 0. -1.
</event>
<event>
 7    1  0.2641580E-009  0.7483387E+02  0.7561462E-02  0.1344386E+00
          2   -1    0    0  501    0  0.00000000000E+00  0.00000000000E+00  0.61021404045E+02  0.61021404045E+02  0.00000000000E+00 0. -1.
         -2   -1    0    0    0  501 -0.00000000000E+00 -0.00000000000E+00 -0.18645716011E+03  0.18645716011E+03  0.00000000000E+00 0.  1.
         25    2    1    2    0    0 -0.12044215291E+02  0.10904080410E+02 -0.74647390112E+02  0.14657150185E+03  0.12508800987E+03 0.  0.
          5    1    3    3  502    0  0.25402163104E+02  0.34553958338E+02  0.15703942941E+02  0.45862099288E+02  0.41800000000E+01 0.  1.
         -5    1    3    3    0  502 -0.37446378395E+02 -0.23649877928E+02 -0.90351333053E+02  0.10070940257E+03  0.41800000000E+01 0.  1.
        -11    1    1    2    0    0  0.16746050527E+02 -0.34331170472E+02 -0.63302442821E+02  0.73934151388E+02  0.00000000000E+00 0.  1.
         11    1    1    2    0    0 -0.47018352356E+01  0.23427090062E+02  0.12514076867E+02  0.26972910915E+02  0.00000000000E+00 0. -1.
</event>
<event>
 7    1  0.2641580E-009  0.1871184E+03  0.7561462E-02  0.1161086E+00
          2   -1    0    0  501    0  0.00000000000E+00  0.00000000000E+00  0.46358546219E+03  0.46358546219E+03  0.00000000000E+00 0. -1.
         -2   -1    0    0    0  501 -0.00000000000E+00 -0.00000000000E+00 -0.80467443982E+02  0.80467443982E+02  0.00000000000E+00 0.  1.
         25    2    1    2    0    0  0.31840070624E+02 -0.15091348227E+03  0.16231476887E+03  0.25648019404E+03  0.12508931413E+03 0.  0.
          5    1    3    3  502    0 -0.30843741745E+02 -0.36363116220E+01  0.44926665972E+01  0.31657789250E+02  0.41800000000E+01 0. -1.
         -5    1    3    3    0  502  0.62683812369E+02 -0.14727717064E+03  0.15782210228E+03  0.22482240479E+03  0.41800000000E+01 0. -1.
        -11    1    1    2    0    0  0.32185295839E+02  0.22428280122E+02  0.33510694997E+02  0.51593485022E+02  0.00000000000E+00 0.  1.
         11    1    1    2    0    0 -0.64025366463E+02  0.12848520214E+03  0.18729255434E+03  0.23597922712E+03  0.00000000000E+00 0. -1.
</event>
<event>
 7    1  0.2641580E-009  0.1387033E+03  0.7561462E-02  0.1215084E+00
         -2   -1    0    0    0  501 -0.00000000000E+00  0.00000000000E+00  0.16791491404E+02  0.16791491404E+02  0.00000000000E+00 0. -1.
          2   -1    0    0  501    0  0.00000000000E+00 -0.00000000000E+00 -0.12237943875E+04  0.12237943875E+04  0.00000000000E+00 0.  1.
         25    2    1    2    0    0  0.29751922139E+01  0.93005606482E+02 -0.71939707416E+03  0.73609698127E+03  0.12509085069E+03 0.  0.
          5    1    3    3  502    0  0.31137935612E+02 -0.21124623276E+02 -0.19932318343E+03  0.20288672849E+03  0.41800000000E+01 0. -1.
         -5    1    3    3    0  502 -0.28162743398E+02  0.11413022976E+03 -0.52007389073E+03  0.53321025278E+03  0.41800000000E+01 0. -1.
        -11    1    1    2    0    0 -0.21473086918E+02  0.51124801886E+01 -0.38144200135E+02  0.44070522114E+02  0.00000000000E+00 0. -1.
         11    1    1    2    0    0  0.18497894704E+02 -0.98118086670E+02 -0.44946162179E+03  0.46041837550E+03  0.00000000000E+00 0.  1.
</event>
<event>
 7    1  0.2641580E-009  0.2117816E+03  0.7561462E-02  0.1140163E+00
          2   -1    0    0  501    0  0.00000000000E+00  0.00000000000E+00  0.30230446647E+03  0.30230446647E+03  0.00000000000E+00 0.  1.
         -2   -1    0    0    0  501 -0.00000000000E+00 -0.00000000000E+00 -0.15124668592E+03  0.15124668592E+03  0.00000000000E+00 0. -1.
         25    2    1    2    0    0 -0.94633093583E+02 -0.15799266503E+03  0.67215835121E+02  0.23255448305E+03  0.12508602835E+03 0.  0.
          5    1    3    3  502    0 -0.12366839523E+03 -0.12935353213E+03  0.40227186616E+02  0.18347181581E+03  0.41800000000E+01 0.  1.
         -5    1    3    3    0  502  0.29035301645E+02 -0.28639132899E+02  0.26988648505E+02  0.49082667236E+02  0.41800000000E+01 0.  1.
        -11    1    1    2    0    0  0.48019846599E+02  0.14839080080E+03  0.55180627083E+02  0.16544073572E+03  0.00000000000E+00 0. -1.
         11    1    1    2    0    0  0.46613246984E+02  0.96018642308E+01  0.28661318348E+02  0.55555933621E+02  0.00000000000E+00 0.  1.
</event>
<event>
 7    1  0.2641580E-009  0.9122947E+02  0.7561462E-02  0.1299901E+00
         -2   -1    0    0    0  501 -0.00000000000E+00  0.00000000000E+00  0.20289169059E+02  0.20289169059E+02  0.00000000000E+00 0.  1.
          2   -1    0    0  501    0  0.00000000000E+00 -0.00000000000E+00 -0.79475229754E+03  0.79475229754E+03  0.00000000000E+00 0. -1.
         25    2    1    2    0    0 -0.30851640590E+02  0.56498959167E+02 -0.45526117582E+03  0.47650601311E+03  0.12510510065E+03 0.  0.
          5    1    3    3  502    0 -0.22204757734E+02  0.14510904659E+02 -0.41995465947E+03  0.42081231687E+03  0.41800000000E+01 0.  1.
         -5    1    3    3    0  502 -0.86468828562E+01  0.41988054508E+02 -0.35306516355E+02  0.55693696247E+02  0.41800000000E+01 0.  1.
        -11    1    1    2    0    0 -0.32936975961E+02 -0.13449060073E+02 -0.91028946282E+02  0.97734286018E+02  0.00000000000E+00 0.  1.
         11    1    1    2    0    0  0.63788616551E+02 -0.43049899094E+02 -0.22817300638E+03  0.24080116747E+03  0.00000000000E+00 0. -1.
</event>
<event>
 7    1  0.2641580E-009  0.2413850E+03  0.7561462E-02  0.1118874E+00
         -1   -1    0    0    0  501 -0.00000000000E+00  0.00000000000E+00  0.14865003704E+03  0.14865003704E+03  0.00000000000E+00 0.  1.
          1   -1    0    0  501    0  0.00000000000E+00 -0.00000000000E+00 -0.61159690833E+03  0.61159690833E+03  0.00000000000E+00 0. -1.
         25    2    1    2    0    0  0.11804356509E+03 -0.19965255238E+03 -0.38416806427E+03  0.46586208227E+03  0.12508778180E+03 0.  0.
          5    1    3    3  502    0  0.76352673004E+02 -0.42816427652E+02 -0.21112616649E+03  0.22859288643E+03  0.41800000000E+01 0. -1.
         -5    1    3    3    0  502  0.41690892086E+02 -0.15683612473E+03 -0.17304189779E+03  0.23726919584E+03  0.41800000000E+01 0. -1.
        -11    1    1    2    0    0 -0.97949682847E+02  0.14909932125E+03 -0.12915644624E+03  0.22024108511E+03  0.00000000000E+00 0. -1.
         11    1    1    2    0    0 -0.20093882243E+02  0.50553231133E+02  0.50377639214E+02  0.74143777989E+02  0.00000000000E+00 0.  1.
</event>
<event>
 7    1  0.2641580E-009  0.9285180E+02  0.7561462E-02  0.1296089E+00
          1   -1    0    0  501    0  0.00000000000E+00  0.00000000000E+00  0.35668094738E+03  0.35668094738E+03  0.00000000000E+00 0.  1.
         -1   -1    0    0    0  501 -0.00000000000E+00 -0.00000000000E+00 -0.63054883122E+02  0.63054883122E+02  0.00000000000E+00 0. -1.
         25    2    1    2    0    0 -0.21953401192E+02  0.75350291541E+01  0.16767642302E+02  0.12832392419E+03  0.12508855744E+03 0.  0.
          5    1    3    3  502    0 -0.56776860397E+02 -0.70569178636E+01  0.51320911755E+02  0.76972205046E+02  0.41800000000E+01 0.  1.
         -5    1    3    3    0  502  0.34823459205E+02  0.14591947018E+02 -0.34553269453E+02  0.51351719140E+02  0.41800000000E+01 0.  1.
        -11    1    1    2    0    0  0.32762665074E+02  0.34127115760E+02  0.16145672085E+03  0.16824483636E+03  0.00000000000E+00 0.  1.
         11    1    1    2    0    0 -0.10809263882E+02 -0.41662144914E+02  0.11540170110E+03  0.12316706995E+03  0.00000000000E+00 0. -1.
</event>
<event>
 7    1  0.2641580E-009  0.1821670E+03  0.7561462E-02  0.1165722E+00
         -1   -1    0    0    0  501 -0.00000000000E+00  0.00000000000E+00  0.16723793755E+04  0.16723793755E+04  0.00000000000E+00 0.  1.
          1   -1    0    0  501    0  0.00000000000E+00 -0.00000000000E+00 -0.27312324653E+02  0.27312324653E+02  0.00000000000E+00 0. -1.
         25    2    1    2    0    0  0.74211839888E+01 -0.17805247405E+03  0.10437907033E+04  0.10662607571E+04  0.12512079091E+03 0.  0.
          5    1    3    3  502    0  0.25495055186E+02 -0.46984886944E+02  0.10221111946E+03  0.11542167379E+03  0.41800000000E+01 0.  1.
         -5    1    3    3    0  502 -0.18073871197E+02 -0.13106758711E+03  0.94157958389E+03  0.95083908334E+03  0.41800000000E+01 0.  1.
        -11    1    1    2    0    0 -0.81712658798E+01  0.11759337248E+03  0.24291917050E+03  0.27000869289E+03  0.00000000000E+00 0. -1.
         11    1    1    2    0    0  0.75008189104E+00  0.60459101570E+02  0.35835717699E+03  0.36342225012E+03  0.00000000000E+00 0.  1.
</event>
<event>
 7    1  0.2641580E-009  0.9282469E+02  0.7561462E-02  0.1296152E+00
          2   -1    0    0  501    0  0.00000000000E+00  0.00000000000E+00  0.47524941439E+03  0.47524941439E+03  0.00000000000E+00 0. -1.
         -2   -1    0    0    0  501 -0.00000000000E+00 -0.00000000000E+00 -0.31924222931E+02  0.31924222931E+02  0.00000000000E+00 0.  1.
         25    2    1    2    0    0 -0.19654757064E+02  0.43025169952E+02  0.33425824830E+03  0.36001845385E+03  0.12508891170E+03 0.  0.
          5    1    3    3  502    0 -0.63752673088E+02  0.34501205908E+02  0.28097517111E+03  0.29020554047E+03  0.41800000000E+01 0.  1.
         -5    1    3    3    0  502  0.44097916024E+02  0.85239640446E+01  0.53283077185E+02  0.69812913383E+02  0.41800000000E+01 0.  1.
        -11    1    1    2    0    0 -0.16262995889E+02 -0.97083198395E+01 -0.77627809352E+01  0.20469422982E+02  0.00000000000E+00 0.  1.
         11    1    1    2    0    0  0.35917752953E+02 -0.33316850113E+02  0.11682972410E+03  0.12668576049E+03  0.00000000000E+00 0. -1.
</event>
<event>
 7    1  0.2641580E-009  0.1383752E+03  0.7561462E-02  0.1215532E+00
          1   -1    0    0  501    0  0.00000000000E+00  0.00000000000E+00  0.10747768690E+04  0.10747768690E+04  0.00000000000E+00 0. -1.
         -1   -1    0    0    0  501 -0.00000000000E+00 -0.00000000000E+00 -0.19015682150E+02  0.19015682150E+02  0.00000000000E+00 0.  1.
         25    2    1    2    0    0  0.40658050170E+02  0.81782205556E+01  0.46905830995E+03  0.48721971973E+03  0.12508955523E+03 0.  0.
          5    1    3    3  502    0  0.80945262676E+02  0.19039120076E+02  0.23215011427E+03  0.24662881340E+03  0.41800000000E+01 0.  1.
         -5    1    3    3    0  502 -0.40287212506E+02 -0.10860899521E+02  0.23690819568E+03  0.24059090633E+03  0.41800000000E+01 0.  1.
        -11    1    1    2    0    0 -0.89099301521E+02  0.25360473876E+02  0.40888934036E+03  0.41925211010E+03  0.00000000000E+00 0. -1.
         11    1    1    2    0    0  0.48441251351E+02 -0.33538694432E+02  0.17781353653E+03  0.18732072131E+03  0.00000000000E+00 0.  1.
</event>
<event>
 7    1  0.2641580E-009  0.1197490E+03  0.7561462E-02  0.1243512E+00
         -2   -1    0    0    0  501 -0.00000000000E+00  0.00000000000E+00  0.87550926357E+02  0.87550926357E+02  0.00000000000E+00 0.  1.
          2   -1    0    0  501    0  0.00000000000E+00 -0.00000000000E+00 -0.23785983806E+03  0.23785983806E+03  0.00000000000E+00 0. -1.
         25    2    1    2    0    0  0.33874250376E+02 -0.82202054622E+02 -0.10834022996E+03  0.18785586312E+03  0.12509027644E+03 0.  0.
          5    1    3    3  502    0  0.15739140614E+02 -0.11058069293E+03 -0.10566674185E+03  0.15381398808E+03  0.41800000000E+01 0.  1.
         -5    1    3    3    0  502  0.18135109763E+02  0.28378638303E+02 -0.26734881130E+01  0.34041875047E+02  0.41800000000E+01 0.  1.
        -11    1    1    2    0    0 -0.37588266611E+02  0.56769857034E+02  0.19588291993E+02  0.70847693242E+02  0.00000000000E+00 0.  1.
         11    1    1    2    0    0  0.37140162349E+01  0.25432197588E+02 -0.61556973739E+02  0.66707208056E+02  0.00000000000E+00 0. -1.
</event>
<event>
 7    1  0.2641580E-009  0.1178564E+03  0.7561462E-02  0.1246676E+00
          2   -1    0    0  501    0  0.00000000000E+00  0.00000000000E+00  0.30770243057E+03  0.30770243057E+03  0.00000000000E+00 0. -1.
         -2   -1    0    0    0  501 -0.00000000000E+00 -0.00000000000E+00 -0.54809374300E+02  0.54809374300E+02  0.00000000000E+00 0.  1.
         25    2    1    2    0    0 -0.72844052147E+02 -0.92545275548E+00  0.15489377084E+03  0.21200586313E+03  0.12508914165E+03 0.  0.
          5    1    3    3  502    0 -0.54445230058E+02  0.57161653165E+02  0.60368467116E+02  0.99466385732E+02  0.41800000000E+01 0. -1.
         -5    1    3    3    0  502 -0.18398822089E+02 -0.58087105921E+02  0.94525303728E+02  0.11253947740E+03  0.41800000000E+01 0. -1.
        -11    1    1    2    0    0  0.43355175217E+02 -0.30102139800E+02  0.11535772029E+02  0.54026697797E+02  0.00000000000E+00 0.  1.
         11    1    1    2    0    0  0.29488876930E+02  0.31027592555E+02  0.86463513402E+02  0.96479243945E+02  0.00000000000E+00 0. -1.
</event>
<event>
 7    1  0.2641580E-009  0.8052299E+02  0.7561462E-02  0.1327574E+00
          1   -1    0    0  501    0  0.00000000000E+00  0.00000000000E+00  0.16197650324E+03  0.16197650324E+03  0.00000000000E+00 0. -1.
         -1   -1    0    0    0  501 -0.00000000000E+00 -0.00000000000E+00 -0.75158875937E+02  0.75158875937E+02  0.00000000000E+00 0.  1.
         25    2    1    2    0    0 -0.17645273948E+02 -0.65576156353E+01  0.62734338902E+02  0.14119988094E+03  0.12508977210E+03 0.  0.
          5    1    3    3  502    0  0.42093169688E+02 -0.23785591622E+02 -0.54460878553E+01  0.48833611132E+02  0.41800000000E+01 0. -1.
         -5    1    3    3    0  502 -0.59738443636E+02  0.17227975987E+02  0.68180426758E+02  0.92366269804E+02  0.41800000000E+01 0. -1.
        -11    1    1    2    0    0  0.31989793224E+02 -0.42124655884E+01 -0.26824421226E+02  0.41959996556E+02  0.00000000000E+00 0.  1.
         11    1    1    2    0    0 -0.14344519275E+02  0.10770081224E+02  0.50907709625E+02  0.53975501684E+02  0.00000000000E+00 0. -1.
</event>
<event>
 6    1  0.2641580E-009  0.1361966E+03  0.7561462E-02  0.1218540E+00
         -1   -1    0    0    0  501 -0.00000000000E+00  0.00000000000E+00  0.34733603728E+02  0.34733603728E+02  0.00000000000E+00 0.  1.
          1   -1    0    0  501    0  0.00000000000E+00 -0.00000000000E+00 -0.69104210299E+03  0.69104210299E+03  0.00000000000E+00 0. -1.
          5    1    1    2  502    0 -0.28680342613E+02  0.56745419384E+01 -0.11652272616E+03  0.12020724017E+03  0.41800000000E+01 0.  1.
         -5    1    1    2    0  502  0.77992083350E+02 -0.10072399819E+03 -0.21538351364E+03  0.25027109147E+03  0.41800000000E+01 0.  1.
        -11    1    1    2    0    0 -0.25068837740E+01  0.51212470604E+02 -0.43720515669E+02  0.67383121788E+02  0.00000000000E+00 0.  1.
         11    1    1    2    0    0 -0.46804856963E+02  0.43836985653E+02 -0.28068174379E+03  0.28791425328E+03  0.00000000000E+00 0. -1.
</event>
<event>
 7    1  0.2641580E-009  0.1012124E+03  0.7561462E-02  0.1277767E+00
          1   -1    0    0  501    0  0.00000000000E+00  0.00000000000E+00  0.93570802953E+02  0.93570802953E+02  0.00000000000E+00 0. -1.
         -1   -1    0    0    0  501 -0.00000000000E+00 -0.00000000000E+00 -0.33848447236E+03  0.33848447236E+03  0.00000000000E+00 0.  1.
         25    2    1    2    0    0  0.14721685112E+02 -0.13585451443E+02 -0.30139933926E+03  0.32694028881E+03  0.12508836170E+03 0.  0.
          5    1    3    3  502    0 -0.11550953593E+01 -0.62659245682E+02 -0.23212393401E+03  0.24047142961E+03  0.41800000000E+01 0. -1.
         -5    1    3    3    0  502  0.15876780472E+02  0.49073794239E+02 -0.69275405251E+02  0.86468859203E+02  0.41800000000E+01 0. -1.
        -11    1    1    2    0    0 -0.47773656491E+02 -0.79343385795E+01  0.38002125112E+02  0.61558407194E+02  0.00000000000E+00 0. -1.
         11    1    1    2    0    0  0.33051971378E+02  0.21519790023E+02  0.18483544748E+02  0.43556579309E+02  0.00000000000E+00 0.  1.
</event>
<event>
 7    1  0.2641580E-009  0.1598340E+03  0.7561462E-02  0.1188884E+00
         -1   -1    0    0    0  501 -0.00000000000E+00  0.00000000000E+00  0.56623009663E+02  0.56623009663E+02  0.00000000000E+00 0.  1.
          1   -1    0    0  501    0  0.00000000000E+00 -0.00000000000E+00 -0.62311375055E+03  0.62311375055E+03  0.00000000000E+00 0. -1.
         25    2    1    2    0    0  0.39619632062E+02  0.12856226128E+03 -0.16532422827E+03  0.24713617096E+03  0.12508483630E+03 0.  0.
          5    1    3    3  502    0  0.21556743465E+02  0.15192484409E+03 -0.14397842707E+03  0.21045928657E+03  0.41800000000E+01 0.  1.
         -5    1    3    3    0  502  0.18062888597E+02 -0.23362582806E+02 -0.21345801205E+02  0.36676884395E+02  0.41800000000E+01 0.  1.
        -11    1    1    2    0    0 -0.31614387362E+02 -0.65062223015E+02 -0.32575758344E+03  0.33369232164E+03  0.00000000000E+00 0. -1.
         11    1    1    2    0    0 -0.80052446996E+01 -0.63500038270E+02 -0.75408929175E+02  0.98908267614E+02  0.00000000000E+00 0.  1.
</event>
<event>
 7    1  0.2641580E-009  0.1076233E+03  0.7561462E-02  0.1265035E+00
         -2   -1    0    0    0  501 -0.00000000000E+00  0.00000000000E+00  0.18122982570E+02  0.18122982570E+02  0.00000000000E+00 0.  1.
          2   -1    0    0  501    0  0.00000000000E+00 -0.00000000000E+00 -0.84827671302E+03  0.84827671302E+03  0.00000000000E+00 0. -1.
         25    2    1    2    0    0 -0.30711446457E+02  0.41802192197E+02 -0.56069767335E+03  0.57681884316E+03  0.12508989051E+03 0.  0.
          5    1    3    3  502    0  0.75556835124E+01  0.67196448372E+02 -0.16390001192E+03  0.17735032375E+03  0.41800000000E+01 0.  1.
         -5    1    3    3    0  502 -0.38267129969E+02 -0.25394256175E+02 -0.39679766143E+03  0.39946851941E+03  0.41800000000E+01 0.  1.
        -11    1    1    2    0    0  0.61308427549E+02 -0.32564794062E+02 -0.22002915871E+03  0.23072065314E+03  0.00000000000E+00 0. -1.
         11    1    1    2    0    0 -0.30596981092E+02 -0.92373981349E+01 -0.49426898383E+02  0.58860199286E+02  0.00000000000E+00 0.  1.
</event>
<event>
 7    1  0.2641580E-009  0.1216917E+03  0.7561462E-02  0.1240332E+00
          3   -1    0    0  501    0  0.00000000000E+00  0.00000000000E+00  0.28664802239E+03  0.28664802239E+03  0.00000000000E+00 0. -1.
         -3   -1    0    0    0  501 -0.00000000000E+00 -0.00000000000E+00 -0.81851415561E+02  0.81851415561E+02  0.00000000000E+00 0.  1.
         25    2    1    2    0    0  0.98136405664E+02  0.25488665468E+02  0.80744600934E+02  0.18013287370E+03  0.12509090863E+03 0.  0.
          5    1    3    3  502    0  0.96417139532E+02  0.34978418547E+02  0.10915520427E+03  0.14984020014E+03  0.41800000000E+01 0. -1.
         -5    1    3    3    0  502  0.17192661316E+01 -0.94897530799E+01 -0.28410603331E+02  0.30292673556E+02  0.41800000000E+01 0. -1.
        -11    1    1    2    0    0 -0.11239445313E+03 -0.27789089404E+02  0.76746749173E+02  0.13890575976E+03  0.00000000000E+00 0.  1.
         11    1    1    2    0    0  0.14258047470E+02  0.23004239364E+01  0.47305256723E+02  0.49460804498E+02  0.00000000000E+00 0. -1.
</event>
<event>
 7    1  0.2967047E-009  0.8437340E+02  0.7561462E-02  0.1317079E+00
          1   -1    0    0  501    0  0.00000000000E+00  0.00000000000E+00  0.25341145549E+03  0.25341145549E+03  0.00000000000E+00 0. -1.
         -1   -1    0    0    0  501 -0.00000000000E+00 -0.00000000000E+00 -0.14756449264E+03  0.14756449264E+03  0.00000000000E+00 0.  1.
         25    2    1    2    0    0 -0.43586062047E+01  0.68495283954E+02  0.20479137182E+03  0.24959680654E+03  0.12509379876E+03 0.  0.
          5    1    3    3  502    0  0.18840376220E+02  0.69225567419E+02  0.38282019656E+02  0.81425575770E+02  0.41800000000E+01 0. -1.
         -5    1    3    3    0  502 -0.23198982425E+02 -0.73028346510E+00  0.16650935216E+03  0.16817123077E+03  0.41800000000E+01 0. -1.
        -11    1    1    2    0    0 -0.10824134163E+02 -0.31513868545E+02  0.10440227590E+02  0.34918249429E+02  0.00000000000E+00 0. -1.
         11    1    1    2    0    0  0.15182740368E+02 -0.36981415408E+02 -0.10938463656E+03  0.11646089217E+03  0.00000000000E+00 0.  1.
</event>
<event>
 7    1  0.2641580E-009  0.1492514E+03  0.7561462E-02  0.1201396E+00
         -1   -1    0    0    0  501 -0.00000000000E+00  0.00000000000E+00  0.39924138162E+02  0.39924138162E+02  0.00000000000E+00 0.  1.
          1   -1    0    0  501    0  0.00000000000E+00 -0.00000000000E+00 -0.68751694687E+03  0.68751694687E+03  0.00000000000E+00 0. -1.
         25    2    1    2    0    0 -0.41653476086E+02  0.99007160461E+02 -0.20446119675E+03  0.26265718873E+03  0.12508792076E+03 0.  0.
          5    1    3    3  502    0 -0.83513765366E+02  0.56826604646E+02 -0.98807188471E+02  0.14136528886E+03  0.41800000000E+01 0. -1.
         -5    1    3    3    0  502  0.41860289280E+02  0.42180555815E+02 -0.10565400828E+03  0.12129189987E+03  0.41800000000E+01 0. -1.
        -11    1    1    2    0    0 -0.15264313100E+02 -0.74176953177E+02 -0.28517235329E+03  0.29505675847E+03  0.00000000000E+00 0. -1.
         11    1    1    2    0    0  0.56917789186E+02 -0.24830207284E+02 -0.15795925866E+03  0.16972713783E+03  0.00000000000E+00 0.  1.
</event>
<event>
 7    1  0.2641580E-009  0.1729396E+03  0.7561462E-02  0.1174817E+00
         -1   -1    0    0    0  501 -0.00000000000E+00  0.00000000000E+00  0.12019642901E+03  0.12019642901E+03  0.00000000000E+00 0.  1.
          1   -1    0    0  501    0  0.00000000000E+00 -0.00000000000E+00 -0.32255084884E+03  0.32255084884E+03  0.00000000000E+00 0. -1.
         25    2    1    2    0    0 -0.11374310084E+03  0.10082315986E+03 -0.27809308999E+02  0.19880059862E+03  0.12508204424E+03 0.  0.
          5    1    3    3  502    0  0.85472024008E+01 -0.19691487914E+02  0.81374706493E+01  0.23334527930E+02  0.41800000000E+01 0. -1.
         -5    1    3    3    0  502 -0.12229030324E+03  0.12051464778E+03 -0.35946779649E+02  0.17546607069E+03  0.41800000000E+01 0. -1.
        -11    1    1    2    0    0  0.77626650990E+02 -0.63071234816E+02 -0.56542184967E+02  0.11489515345E+03  0.00000000000E+00 0.  1.
         11    1    1    2    0    0  0.36116449853E+02 -0.37751925049E+02 -0.11800292586E+03  0.12905152578E+03  0.00000000000E+00 0. -1.
</event>
<event>
 7    1  0.2641580E-009  0.1266958E+03  0.7561462E-02  0.1232443E+00
          1   -1    0    0  501    0  0.00000000000E+00  0.00000000000E+00  0.60625042494E+03  0.60625042494E+03  0.00000000000E+00 0. -1.
         -1   -1    0    0    0  501 -0.00000000000E+00 -0.00000000000E+00 -0.31592916107E+02  0.31592916107E+02  0.00000000000E+00 0.  1.
         25    2    1    2    0    0 -0.27943403151E+02 -0.80791821588E+02  0.31076190405E+03  0.34572251101E+03  0.12507174500E+03 0.  0.
          5    1    3    3  502    0  0.30916026568E+02 -0.85696587398E+02  0.20815255793E+03  0.22725462716E+03  0.41800000000E+01 0.  1.
         -5    1    3    3    0  502 -0.58859429719E+02  0.49047658103E+01  0.10260934611E+03  0.11846788385E+03  0.41800000000E+01 0.  1.
        -11    1    1    2    0    0 -0.81192510205E+01  0.61595387423E+02  0.68407164911E+02  0.92409167295E+02  0.00000000000E+00 0.  1.
         11    1    1    2    0    0  0.36062654172E+02  0.19196434164E+02  0.19548843987E+03  0.19971166274E+03  0.00000000000E+00 0. -1.
</event>
<event>
 7    1  0.2641580E-009  0.1000409E+03  0.7561462E-02  0.1280210E+00
          1   -1    0    0  501    0  0.00000000000E+00  0.00000000000E+00  0.44353693057E+03  0.44353693057E+03  0.00000000000E+00 0. -1.
         -1   -1    0    0    0  501 -0.00000000000E+00 -0.00000000000E+00 -0.27397348105E+02  0.27397348105E+02  0.00000000000E+00 0.  1.
         25    2    1    2    0    0  0.50482116578E+01  0.20334555874E+02  0.23957227359E+03  0.27107431825E+03  0.12508970037E+03 0.  0.
          5    1    3    3  502    0  0.40162346553E+02 -0.36772543661E+02  0.14607563086E+03  0.15595126284E+03  0.41800000000E+01 0.  1.
         -5    1    3    3    0  502 -0.35114134895E+02  0.57107099535E+02  0.93496642727E+02  0.11512305541E+03  0.41800000000E+01 0.  1.
        -11    1    1    2    0    0 -0.24625363658E+01 -0.49228027074E+02  0.50767345699E+02  0.70758646993E+02  0.00000000000E+00 0.  1.
         11    1    1    2    0    0 -0.25856752920E+01  0.28893471200E+02  0.12579996317E+03  0.12910131343E+03  0.00000000000E+00 0. -1.
</event>
<event>
 7    1  0.2641580E-009  0.2443454E+03  0.7561462E-02  0.1116931E+00
         -1   -1    0    0    0  501 -0.00000000000E+00  0.00000000000E+00  0.25343674259E+03  0.25343674259E+03  0.00000000000E+00 0.  1.
          1   -1    0    0  501    0  0.00000000000E+00 -0.00000000000E+00 -0.23642775449E+03  0.23642775449E+03  0.00000000000E+00 0. -1.
         25    2    1    2    0    0  0.21787897359E+03  0.17388190008E+02  0.17012808995E+02  0.25242334904E+03  0.12511800503E+03 0.  0.
          5    1    3    3  502    0  0.17178971063E+03 -0.41096670013E+02  0.41018647085E+01  0.17673409026E+03  0.41800000000E+01 0.  1.
         -5    1    3    3    0  502  0.46089262962E+02  0.58484860021E+02  0.12910944286E+02  0.75689258779E+02  0.41800000000E+01 0.  1.
        -11    1    1    2    0    0 -0.16484071598E+03  0.28504751562E+02  0.12889535882E+01  0.16729209159E+03  0.00000000000E+00 0. -1.
         11    1    1    2    0    0 -0.53038257616E+02 -0.45892941570E+02 -0.12927744833E+01  0.70149056464E+02  0.00000000000E+00 0.  1.
</event>
<event>
 7    1  0.2641580E-009  0.9513123E+02  0.7561462E-02  0.1290881E+00
          2   -1    0    0  501    0  0.00000000000E+00  0.00000000000E+00  0.42382554153E+03  0.42382554153E+03  0.00000000000E+00 0. -1.
         -2   -1    0    0    0  501 -0.00000000000E+00 -0.00000000000E+00 -0.36957435157E+02  0.36957435157E+02  0.00000000000E+00 0.  1.
         25    2    1    2    0    0  0.21460243287E+02 -0.47244314255E+02  0.15766504586E+03  0.20784459326E+03  0.12509412852E+03 0.  0.
          5    1    3    3  502    0  0.44021851303E+02 -0.39034191419E+02  0.17041976277E+03  0.18033845800E+03  0.41800000000E+01 0.  1.
         -5    1    3    3    0  502 -0.22561608015E+02 -0.82101228356E+01 -0.12754716912E+02  0.27506135256E+02  0.41800000000E+01 0.  1.
        -11    1    1    2    0    0 -0.21051964277E+02  0.75637534621E+02  0.17220798418E+03  0.18926122598E+03  0.00000000000E+00 0. -1.
         11    1    1    2    0    0 -0.40827901018E+00 -0.28393220366E+02  0.56995076330E+02  0.63677157446E+02  0.00000000000E+00 0.  1.
</event>
<event>
 7    1  0.2641580E-009  0.1295416E+03  0.7561462E-02  0.1228137E+00
         -3   -1    0    0    0  501 -0.00000000000E+00  0.00000000000E+00  0.46191244617E+02  0.46191244617E+02  0.00000000000E+00 0.  1.
          3   -1    0    0  501    0  0.00000000000E+00 -0.00000000000E+00 -0.61838546399E+03  0.61838546399E+03  0.00000000000E+00 0. -1.
         25    2    1    2    0    0  0.76624916727E+02  0.43229263519E+02 -0.49201494868E+03  0.51523256736E+03  0.12508293910E+03 0.  0.
          5    1    3    3  502    0  0.85658891111E+01  0.76153114145E+02 -0.22774554782E+03  0.24032931200E+03  0.41800000000E+01 0.  1.
         -5    1    3    3    0  502  0.68059027616E+02 -0.32923850626E+02 -0.26426940086E+03  0.27490325537E+03  0.41800000000E+01 0.  1.
        -11    1    1    2    0    0 -0.26175576125E+02 -0.49284913653E+02 -0.16736766614E+01  0.55829783206E+02  0.00000000000E+00 0.  1.
         11    1    1    2    0    0 -0.50449340602E+02  0.60556501349E+01 -0.78505594024E+02  0.93514358035E+02  0.00000000000E+00 0. -1.
</event>
<event>
 7    1  0.2641580E-009  0.1730447E+03  0.7561462E-02  0.1174709E+00
         -2   -1    0    0    0  501 -0.00000000000E+00  0.00000000000E+00  0.35532559472E+03  0.35532559472E+03  0.00000000000E+00 0. -1.
          2   -1    0    0  501    0  0.00000000000E+00 -0.00000000000E+00 -0.95908415328E+02  0.95908415328E+02  0.00000000000E+00 0.  1.
         25    2    1    2    0    0  0.28919536648E+01 -0.14847060541E+03  0.12839228501E+03  0.23278712256E+03  0.12511347453E+03 0.  0.
          5    1    3    3  502    0  0.10430173623E+02 -0.16093536707E+03  0.76159875410E+02  0.17840061636E+03  0.41800000000E+01 0. -1.
         -5    1    3    3    0  502 -0.75382199586E+01  0.12464761657E+02  0.52232409600E+02  0.54386506194E+02  0.41800000000E+01 0. -1.
        -11    1    1    2    0    0 -0.42266352757E+02  0.84709293370E+02  0.98919037328E+02  0.13691999454E+03  0.00000000000E+00 0. -1.
         11    1    1    2    0    0  0.39374399092E+02  0.63761312043E+02  0.32105857052E+02  0.81526892952E+02  0.00000000000E+00 0.  1.
</event>
<event>
 7    1  0.2641580E-009  0.1222923E+03  0.7561462E-02  0.1239363E+00
         -2   -1    0    0    0  501 -0.00000000000E+00  0.00000000000E+00  0.48917430912E+02  0.48917430912E+02  0.00000000000E+00 0.  1.
          2   -1    0    0  501    0  0.00000000000E+00 -0.00000000000E+00 -0.49863927846E+03  0.49863927846E+03  0.00000000000E+00 0. -1.
         25    2    1    2    0    0  0.84310295712E+02  0.76057689058E+02 -0.23980117988E+03  0.29333465019E+03  0.12509041973E+03 0.  0.
          5    1    3    3  502    0  0.80757016640E+02  0.78382242047E+02 -0.92017651204E+02  0.14543105630E+03  0.41800000000E+01 0.  1.
         -5    1    3    3    0  502  0.35532790725E+01 -0.23245529896E+01 -0.14778352867E+03  0.14790359389E+03  0.41800000000E+01 0.  1.
        -11    1    1    2    0    0 -0.61572939801E+02 -0.81964627258E+02 -0.20641429689E+03  0.23046971384E+03  0.00000000000E+00 0. -1.
         11    1    1    2    0    0 -0.22737355911E+02  0.59069382006E+01 -0.35063707795E+01  0.23752345332E+02  0.00000000000E+00 0.  1.
</event>
<event>
 7    1  0.2641580E-009  0.1127165E+03  0.7561462E-02  0.1255620E+00
         -2   -1    0    0    0  501 -0.00000000000E+00  0.00000000000E+00  0.12932008760E+03  0.12932008760E+03  0.00000000000E+00 0. -1.
          2   -1    0    0  501    0  0.00000000000E+00 -0.00000000000E+00 -0.11701600100E+03  0.11701600100E+03  0.00000000000E+00 0.  1.
         25    2    1    2    0    0  0.16348843900E+02 -0.49701018808E+02 -0.14678997322E+02  0.13638697941E+03  0.12509380170E+03 0.  0.
          5    1    3    3  502    0 -0.14392198325E+02  0.33517665465E+02 -0.28533359121E+02  0.46499400572E+02  0.41800000000E+01 0.  1.
         -5    1    3    3    0  502  0.30741042225E+02 -0.83218684273E+02  0.13854361800E+02  0.89887578842E+02  0.41800000000E+01 0.  1.
        -11    1    1    2    0    0 -0.99494595744E+00 -0.24303222866E+02  0.24209272465E+02  0.34318004494E+02  0.00000000000E+00 0. -1.
         11    1    1    2    0    0 -0.15353897943E+02  0.74004241674E+02  0.27738114558E+01  0.75631104698E+02  0.00000000000E+00 0.  1.
</event>
<event>
 7    1  0.2641580E-009  0.2543675E+03  0.7561462E-02  0.1110575E+00
          3   -1    0    0  501    0  0.00000000000E+00  0.00000000000E+00  0.46687890198E+03  0.46687890198E+03  0.00000000000E+00 0. -1.
         -3   -1    0    0    0  501 -0.00000000000E+00 -0.00000000000E+00 -0.34667672311E+03  0.34667672311E+03  0.00000000000E+00 0.  1.
         25    2    1    2    0    0 -0.14325737348E+03 -0.20395753644E+03  0.36014773394E+03  0.45549538919E+03  0.12509319561E+03 0.  0.
          5    1    3    3  502    0 -0.64791338278E+02 -0.10658878347E+03  0.78853628820E+02  0.14762944644E+03  0.41800000000E+01 0. -1.
         -5    1    3    3    0  502 -0.78466035200E+02 -0.97368752975E+02  0.28129410512E+03  0.30786594276E+03  0.41800000000E+01 0. -1.
        -11    1    1    2    0    0  0.75249998149E+02  0.49578983689E+02 -0.12431427386E+03  0.15354047196E+03  0.00000000000E+00 0.  1.
         11    1    1    2    0    0  0.68007375329E+02  0.15437855275E+03 -0.11563128120E+03  0.20451976394E+03  0.00000000000E+00 0. -1.
</event>
<event>
 7    1  0.2641580E-009  0.1329820E+03  0.7561462E-02  0.1223097E+00
         -2   -1    0    0    0  501 -0.00000000000E+00  0.00000000000E+00  0.40353188022E+02  0.40353188022E+02  0.00000000000E+00 0.  1.
          2   -1    0    0  501    0  0.00000000000E+00 -0.00000000000E+00 -0.74055465678E+03  0.74055465678E+03  0.00000000000E+00 0. -1.
         25    2    1    2    0    0  0.11889129988E+03  0.45766609706E+02 -0.27780577294E+03  0.33024329548E+03  0.12511939491E+03 0.  0.
          5    1    3    3  502    0  0.10757017805E+03  0.57199630493E+02 -0.11828490168E+03  0.16985856264E+03  0.41800000000E+01 0. -1.
         -5    1    3    3    0  502  0.11321121824E+02 -0.11433020787E+02 -0.15952087126E+03  0.16038473285E+03  0.41800000000E+01 0. -1.
        -11    1    1    2    0    0 -0.46157346805E+02 -0.19438533373E+02 -0.51686700057E+02  0.71971329059E+02  0.00000000000E+00 0.  1.
         11    1    1    2    0    0 -0.72733953072E+02 -0.26328076333E+02 -0.37070899576E+03  0.37869322026E+03  0.00000000000E+00 0. -1.
</event>
<event>
 7    1  0.2641580E-009  0.1635246E+03  0.7561462E-02  0.1184774E+00
          1   -1    0    0  501    0  0.00000000000E+00  0.00000000000E+00  0.57470080248E+03  0.57470080248E+03  0.00000000000E+00 0. -1.
         -1   -1    0    0    0  501 -0.00000000000E+00 -0.00000000000E+00 -0.53530722864E+02  0.53530722864E+02  0.00000000000E+00 0.  1.
         25    2    1    2    0    0 -0.68547755260E+02 -0.12926973699E+03  0.33795865253E+03  0.38894322662E+03  0.12510524796E+03 0.  0.
          5    1    3    3  502    0 -0.45366786205E+02 -0.32993806465E+01  0.28101450653E+02  0.53630169979E+02  0.41800000000E+01 0.  1.
         -5    1    3    3    0  502 -0.23180969056E+02 -0.12597035634E+03  0.30985720187E+03  0.33531305665E+03  0.41800000000E+01 0.  1.
        -11    1    1    2    0    0  0.30655382409E+02  0.10206806972E+03  0.11656217244E+03  0.15793790986E+03  0.00000000000E+00 0. -1.
         11    1    1    2    0    0  0.37892372852E+02  0.27201667272E+02  0.66649254647E+02  0.81350388860E+02  0.00000000000E+00 0.  1.
</event>
<event>
 7    1  0.2641580E-009  0.9864702E+02  0.7561462E-02  0.1283167E+00
          2   -1    0    0  501    0  0.00000000000E+00  0.00000000000E+00  0.14734271503E+03  0.14734271503E+03  0.00000000000E+00 0. -1.
         -2   -1    0    0    0  501 -0.00000000000E+00 -0.00000000000E+00 -0.11011519408E+03  0.11011519408E+03  0.00000000000E+00 0.  1.
         25    2    1    2    0    0 -0.23602888099E+02 -0.61803082628E+02  0.21715289184E+02  0.14316345477E+03  0.12508998220E+03 0.  0.
          5    1    3    3  502    0  0.10978867590E+01  0.22603608547E+02  0.46339232461E+02  0.51739011778E+02  0.41800000000E+01 0. -1.
         -5    1    3    3    0  502 -0.24700774858E+02 -0.84406691175E+02 -0.24623943277E+02  0.91424442991E+02  0.41800000000E+01 0. -1.
        -11    1    1    2    0    0 -0.13332038372E+02  0.42536799266E+02 -0.29117081267E+02  0.53244032159E+02  0.00000000000E+00 0.  1.
         11    1    1    2    0    0  0.36934926472E+02  0.19266283362E+02  0.44629313031E+02  0.61050422190E+02  0.00000000000E+00 0. -1.
</event>
<event>
 7    1  0.2641580E-009  0.1022632E+03  0.7561462E-02  0.1275607E+00
         -2   -1    0    0    0  501 -0.00000000000E+00  0.00000000000E+00  0.34123121147E+02  0.34123121147E+02  0.00000000000E+00 0.  1.
          2   -1    0    0  501    0  0.00000000000E+00 -0.00000000000E+00 -0.46594208334E+03  0.46594208334E+03  0.00000000000E+00 0. -1.
         25    2    1    2    0    0 -0.53384836397E+02  0.16656663517E+02 -0.19247731895E+03  0.23626912172E+03  0.12509274308E+03 0.  0.
          5    1    3    3  502    0 -0.47111176997E+02 -0.34495733328E+02 -0.30032082373E+02  0.65793745808E+02  0.41800000000E+01 0.  1.
         -5    1    3    3    0  502 -0.62736594004E+01  0.51152396845E+02 -0.16244523658E+03  0.17047537591E+03  0.41800000000E+01 0.  1.
        -11    1    1    2    0    0  0.68757218348E+02  0.36014790630E+01 -0.22343015407E+03  0.23379811691E+03  0.00000000000E+00 0. -1.
         11    1    1    2    0    0 -0.15372381951E+02 -0.20258142580E+02 -0.15911489180E+02  0.29997965857E+02  0.00000000000E+00 0.  1.
</event>
<event>
 7    1  0.2641580E-009  0.6799097E+02  0.7561462E-02  0.1367061E+00
          2   -1    0    0  501    0  0.00000000000E+00  0.00000000000E+00  0.92100651775E+03  0.92100651775E+03  0.00000000000E+00 0.  1.
         -2   -1    0    0    0  501 -0.00000000000E+00 -0.00000000000E+00 -0.14040947943E+02  0.14040947943E+02  0.00000000000E+00 0. -1.
         25    2    1    2    0    0 -0.83540309091E+01  0.70495851867E+01  0.64939204932E+03  0.66142069279E+03  0.12509121731E+03 0.  0.
          5    1    3    3  502    0  0.17625027450E+02  0.90547415127E+01  0.12116490924E+02  0.23598976435E+02  0.41800000000E+01 0.  1.
         -5    1    3    3    0  502 -0.25979058360E+02 -0.20051563260E+01  0.63727555840E+03  0.63782171636E+03  0.41800000000E+01 0.  1.
        -11    1    1    2    0    0  0.35969437806E+02 -0.34902064627E+02  0.10912608649E+03  0.12008520860E+03  0.00000000000E+00 0. -1.
         11    1    1    2    0    0 -0.27615406896E+02  0.27852479440E+02  0.14844743400E+03  0.15354156430E+03  0.00000000000E+00 0.  1.
</event>
<event>
 7    1  0.2641580E-009  0.8821685E+02  0.7561462E-02  0.1307228E+00
          1   -1    0    0  501    0  0.00000000000E+00  0.00000000000E+00  0.15856615035E+03  0.15856615035E+03  0.00000000000E+00 0. -1.
         -1   -1    0    0    0  501 -0.00000000000E+00 -0.00000000000E+00 -0.10494169016E+03  0.10494169016E+03  0.00000000000E+00 0.  1.
         25    2    1    2    0    0  0.18402649783E+02 -0.51949031166E+02 -0.15188108351E+02  0.13753365738E+03  0.12508984339E+03 0.  0.
          5    1    3    3  502    0 -0.34136713908E+02 -0.24991302452E+02 -0.52501836725E+02  0.67555870909E+02  0.41800000000E+01 0.  1.
         -5    1    3    3    0  502  0.52539363692E+02 -0.26957728714E+02  0.37313728374E+02  0.69977786473E+02  0.41800000000E+01 0.  1.
        -11    1    1    2    0    0 -0.23211817990E+02  0.67442434959E+00  0.70724332993E+02  0.74439066490E+02  0.00000000000E+00 0. -1.
         11    1    1    2    0    0  0.48091682070E+01  0.51274606816E+02 -0.19117644488E+01  0.51535116632E+02  0.00000000000E+00 0.  1.
</event>
<event>
 7    1  0.2641580E-009  0.1341162E+03  0.7561462E-02  0.1221473E+00
          2   -1    0    0  501    0  0.00000000000E+00  0.00000000000E+00  0.98806096302E+03  0.98806096302E+03  0.00000000000E+00 0. -1.
         -2   -1    0    0    0  501 -0.00000000000E+00 -0.00000000000E+00 -0.25780880909E+02  0.25780880909E+02  0.00000000000E+00 0.  1.
         25    2    1    2    0    0 -0.94336886314E+02  0.69813714230E+02  0.49870127136E+03  0.52737492938E+03  0.12509178737E+03 0.  0.
          5    1    3    3  502    0 -0.27153551251E+02  0.37208903254E+02  0.40429071405E+03  0.40692784581E+03  0.41800000000E+01 0. -1.
         -5    1    3    3    0  502 -0.67183335062E+02  0.32604810976E+02  0.94410557310E+02  0.12044708357E+03  0.41800000000E+01 0. -1.
        -11    1    1    2    0    0  0.50158627352E+02 -0.86475996947E+02  0.30068993178E+03  0.31687287832E+03  0.00000000000E+00 0.  1.
         11    1    1    2    0    0  0.44178258961E+02  0.16662282717E+02  0.16288887897E+03  0.16959403622E+03  0.00000000000E+00 0. -1.
</event>
<event>
 7    1  0.2641580E-009  0.3765044E+03  0.7561462E-02  0.1052233E+00
         -1   -1    0    0    0  501 -0.00000000000E+00  0.00000000000E+00  0.14360758301E+03  0.14360758301E+03  0.00000000000E+00 0.  1.
          1   -1    0    0  501    0  0.00000000000E+00 -0.00000000000E+00 -0.13078393976E+04  0.13078393976E+04  0.00000000000E+00 0. -1.
         25    2    1    2    0    0 -0.12602233260E+03 -0.34436481428E+03 -0.24291273850E+03  0.45729934630E+03  0.12508932798E+03 0.  0.
          5    1    3    3  502    0 -0.87202192857E+02 -0.84593225338E+02 -0.50290581839E+02  0.13155550628E+03  0.41800000000E+01 0. -1.
         -5    1    3    3    0  502 -0.38820139740E+02 -0.25977158894E+03 -0.19262215666E+03  0.32574384002E+03  0.41800000000E+01 0. -1.
        -11    1    1    2    0    0  0.11712272377E+03  0.27612186958E+03 -0.68006290458E+03  0.74326749793E+03  0.00000000000E+00 0.  1.
         11    1    1    2    0    0  0.88996088289E+01  0.68242944698E+02 -0.24125617151E+03  0.25088013638E+03  0.00000000000E+00 0. -1.
</event>
<event>
 7    1  0.2641580E-009  0.1094528E+03  0.7561462E-02  0.1261587E+00
          2   -1    0    0  501    0  0.00000000000E+00  0.00000000000E+00  0.47992661367E+03  0.47992661367E+03  0.00000000000E+00 0. -1.
         -2   -1    0    0    0  501 -0.00000000000E+00 -0.00000000000E+00 -0.35061773507E+02  0.35061773507E+02  0.00000000000E+00 0.  1.
         25    2    1    2    0    0  0.30801374703E+02  0.63648826435E+02  0.22294741286E+03  0.26524208466E+03  0.12509163355E+03 0.  0.
          5    1    3    3  502    0  0.18027364362E+00 -0.25053273950E+02  0.13225816791E+03  0.13467514400E+03  0.41800000000E+01 0.  1.
         -5    1    3    3    0  502  0.30621101059E+02  0.88702100385E+02  0.90689244953E+02  0.13056694066E+03  0.41800000000E+01 0.  1.
        -11    1    1    2    0    0  0.22852780140E+02 -0.20954102104E+02  0.13768893577E+03  0.14113669611E+03  0.00000000000E+00 0.  1.
         11    1    1    2    0    0 -0.53654154842E+02 -0.42694724331E+02  0.84228491530E+02  0.10860960640E+03  0.00000000000E+00 0. -1.
</event>
<event>
 7    1  0.2641580E-009  0.9559267E+02  0.7561462E-02  0.1289847E+00
          1   -1    0    0  501    0  0.00000000000E+00  0.00000000000E+00  0.11312388393E+03  0.11312388393E+03  0.00000000000E+00 0. -1.
         -1   -1    0    0    0  501 -0.00000000000E+00 -0.00000000000E+00 -0.14651768580E+03  0.14651768580E+03  0.00000000000E+00 0.  1.
         25    2    1    2    0    0  0.13887510134E+02  0.12479968649E+02  0.49396091807E+02  0.13577943632E+03  0.12508984326E+03 0.  0.
          5    1    3    3  502    0 -0.41970557407E+01  0.65001193775E+02  0.46231594417E+02  0.79985018544E+02  0.41800000000E+01 0.  1.
         -5    1    3    3    0  502  0.18084565875E+02 -0.52521225126E+02  0.31644973898E+01  0.55794417780E+02  0.41800000000E+01 0.  1.
        -11    1    1    2    0    0 -0.36746464529E+02  0.10069197393E+02 -0.83460388720E+02  0.91745996517E+02  0.00000000000E+00 0. -1.
         11    1    1    2    0    0  0.22858954395E+02 -0.22549166041E+02  0.67049505110E+00  0.32116136891E+02  0.00000000000E+00 0.  1.
</event>
<event>
 7    1  0.2641580E-009  0.1188032E+03  0.7561462E-02  0.1245085E+00
         -2   -1    0    0    0  501 -0.00000000000E+00  0.00000000000E+00  0.11646207040E+03  0.11646207040E+03  0.00000000000E+00 0.  1.
          2   -1    0    0  501    0  0.00000000000E+00 -0.00000000000E+00 -0.27234323260E+03  0.27234323260E+03  0.00000000000E+00 0. -1.
         25    2    1    2    0    0  0.10105285007E+03  0.33276007348E+02 -0.18165701495E+03  0.24487949977E+03  0.12509087559E+03 0.  0.
          5    1    3    3  502    0  0.57891943094E+02  0.46551282632E+02 -0.20089974844E+02  0.77068660811E+02  0.41800000000E+01 0.  1.
         -5    1    3    3    0  502  0.43160906975E+02 -0.13275275284E+02 -0.16156704010E+03  0.16781083896E+03  0.41800000000E+01 0.  1.
        -11    1    1    2    0    0 -0.81300670467E+02 -0.25684239283E+01  0.54122705834E+02  0.97701909432E+02  0.00000000000E+00 0.  1.
         11    1    1    2    0    0 -0.19752179602E+02 -0.30707583420E+02 -0.28346853087E+02  0.46223893805E+02  0.00000000000E+00 0. -1.
</event>
<event>
 7    1  0.2641580E-009  0.1130661E+03  0.7561462E-02  0.1254995E+00
          1   -1    0    0  501    0  0.00000000000E+00  0.00000000000E+00  0.23783505028E+03  0.23783505028E+03  0.00000000000E+00 0. -1.
         -1   -1    0    0    0  501 -0.00000000000E+00 -0.00000000000E+00 -0.61173379305E+02  0.61173379305E+02  0.00000000000E+00 0.  1.
         25    2    1    2    0    0  0.48641971056E+02  0.85673979180E+01  0.12767628018E+03  0.18543888493E+03  0.12508759277E+03 0.  0.
          5    1    3    3  502    0  0.84329523974E+02  0.21104978087E+02  0.53746172113E+02  0.10228886611E+03  0.41800000000E+01 0. -1.
         -5    1    3    3    0  502 -0.35687552918E+02 -0.12537580169E+02  0.73930108067E+02  0.83150018813E+02  0.41800000000E+01 0. -1.
        -11    1    1    2    0    0  0.26002577738E+02 -0.10604336628E+01  0.46775973474E+01  0.26441227005E+02  0.00000000000E+00 0. -1.
         11    1    1    2    0    0 -0.74644548794E+02 -0.75069642552E+01  0.44307793442E+02  0.87128317651E+02  0.00000000000E+00 0.  1.
</event>
<event>
 7    1  0.2641580E-009  0.1372160E+03  0.7561462E-02  0.1217125E+00
          1   -1    0    0  501    0  0.00000000000E+00  0.00000000000E+00  0.41962512898E+03  0.41962512898E+03  0.00000000000E+00 0. -1.
         -1   -1    0    0    0  501 -0.00000000000E+00 -0.00000000000E+00 -0.69597857880E+02  0.69597857880E+02  0.00000000000E+00 0.  1.
         25    2    1    2    0    0  0.10984439123E+03 -0.77996474433E+01  0.25771974330E+03  0.30691007485E+03  0.12509077972E+03 0.  0.
          5    1    3    3  502    0  0.43607168156E+01 -0.45024622622E+02  0.33977365681E+02  0.56728883931E+02  0.41800000000E+01 0.  1.
         -5    1    3    3    0  502  0.10548367442E+03  0.37224975179E+02  0.22374237762E+03  0.25018119092E+03  0.41800000000E+01 0.  1.
        -11    1    1    2    0    0 -0.33428937696E+02 -0.15958744662E+02 -0.21769988565E+02  0.42966356708E+02  0.00000000000E+00 0.  1.
         11    1    1    2    0    0 -0.76415453538E+02  0.23758392105E+02  0.11407751636E+03  0.13934655530E+03  0.00000000000E+00 0. -1.
</event>
<event>
 7    1  0.2641580E-009  0.8251995E+02  0.7561462E-02  0.1322049E+00
          3   -1    0    0  501    0  0.00000000000E+00  0.00000000000E+00  0.53717544078E+02  0.53717544078E+02  0.00000000000E+00 0. -1.
         -3   -1    0    0    0  501 -0.00000000000E+00 -0.00000000000E+00 -0.27576701760E+03  0.27576701760E+03  0.00000000000E+00 0.  1.
         25    2    1    2    0    0  0.21980153400E+02 -0.20081603627E+02 -0.61621125315E+02  0.14258339334E+03  0.12508582263E+03 0.  0.
          5    1    3    3  502    0 -0.16762860771E+02 -0.43359821733E+02 -0.80795514501E+02  0.93308387648E+02  0.41800000000E+01 0. -1.
         -5    1    3    3    0  502  0.38743014171E+02  0.23278218105E+02  0.19174389186E+02  0.49275005691E+02  0.41800000000E+01 0. -1.
        -11    1    1    2    0    0 -0.41831275821E+02 -0.37014733520E+01 -0.27004169819E+02  0.49927765116E+02  0.00000000000E+00 0. -1.
         11    1    1    2    0    0  0.19851122421E+02  0.23783076979E+02 -0.13342417839E+03  0.13697340322E+03  0.00000000000E+00 0.  1.
</event>
<event>
 7    1  0.2641580E-009  0.3362973E+03  0.7561462E-02  0.1068384E+00
         -2   -1    0    0    0  501 -0.00000000000E+00  0.00000000000E+00  0.93128213776E+02  0.93128213776E+02  0.00000000000E+00 0.  1.
          2   -1    0    0  501    0  0.00000000000E+00 -0.00000000000E+00 -0.19496813205E+04  0.19496813205E+04  0.00000000000E+00 0. -1.
         25    2    1    2    0    0  0.30390428290E+03  0.13605879223E+03 -0.35665581222E+03  0.50370622241E+03  0.12508709767E+03 0.  0.
          5    1    3    3  502    0  0.10538461144E+03  0.31428617030E+02 -0.20548812509E+03  0.23310194390E+03  0.41800000000E+01 0. -1.
         -5    1    3    3    0  502  0.19851967146E+03  0.10463017520E+03 -0.15116768712E+03  0.27060427851E+03  0.41800000000E+01 0. -1.
        -11    1    1    2    0    0 -0.18771923584E+03 -0.11464244454E+03 -0.81849103326E+03  0.84753110451E+03  0.00000000000E+00 0.  1.
         11    1    1    2    0    0 -0.11618504706E+03 -0.21416347690E+02 -0.68140626127E+03  0.69157220738E+03  0.00000000000E+00 0. -1.
</event>
<event>
 7    1  0.2641580E-009  0.1410280E+03  0.7561462E-02  0.1211952E+00
         -2   -1    0    0    0  501 -0.00000000000E+00  0.00000000000E+00  0.10125847435E+03  0.10125847435E+03  0.00000000000E+00 0.  1.
          2   -1    0    0  501    0  0.00000000000E+00 -0.00000000000E+00 -0.30608514138E+03  0.30608514138E+03  0.00000000000E+00 0. -1.
         25    2    1    2    0    0 -0.12627793064E+03 -0.35318099045E+02 -0.56996202947E+02  0.18997379924E+03  0.12509193963E+03 0.  0.
          5    1    3    3  502    0 -0.66219771947E+02  0.15818613911E+02  0.28184896383E+02  0.73804793387E+02  0.41800000000E+01 0.  1.
         -5    1    3    3    0  502 -0.60058158694E+02 -0.51136712956E+02 -0.85181099330E+02  0.11616900585E+03  0.41800000000E+01 0.  1.
        -11    1    1    2    0    0  0.52234151906E+02 -0.13020617235E+01 -0.11885105078E+03  0.12982940445E+03  0.00000000000E+00 0. -1.
         11    1    1    2    0    0  0.74043778735E+02  0.36620160769E+02 -0.28979413312E+02  0.87540412040E+02  0.00000000000E+00 0.  1.
</event>
<event>
 7    1  0.2641580E-009  0.1011098E+03  0.7561462E-02  0.1277979E+00
         -2   -1    0    0    0  501 -0.00000000000E+00  0.00000000000E+00  0.36656726064E+02  0.36656726064E+02  0.00000000000E+00 0.  1.
          2   -1    0    0  501    0  0.00000000000E+00 -0.00000000000E+00 -0.39075465085E+03  0.39075465085E+03  0.00000000000E+00 0. -1.
         25    2    1    2    0    0  0.20435265706E+02  0.38465560353E+02 -0.16271774449E+03  0.20981481095E+03  0.12509193062E+03 0.  0.
          5    1    3    3  502    0 -0.39887114353E+02  0.47116164042E+02 -0.12082587397E+03  0.13574711424E+03  0.41800000000E+01 0. -1.
         -5    1    3    3    0  502  0.60322380059E+02 -0.86506036884E+01 -0.41891870524E+02  0.74067696712E+02  0.41800000000E+01 0. -1.
        -11    1    1    2    0    0  0.20502892600E+02  0.33147675464E+01 -0.38079187125E+01  0.21115315148E+02  0.00000000000E+00 0.  1.
         11    1    1    2    0    0 -0.40938158307E+02 -0.41780327900E+02 -0.18757226158E+03  0.19648125081E+03  0.00000000000E+00 0. -1.
</event>
<event>
 6    1  0.2641580E-009  0.2620851E+03  0.7561462E-02  0.1105897E+00
         -2   -1    0    0    0  501 -0.00000000000E+00  0.00000000000E+00  0.10505522391E+04  0.10505522391E+04  0.00000000000E+00 0.  1.
          2   -1    0    0  501    0  0.00000000000E+00 -0.00000000000E+00 -0.15546590215E+03  0.15546590215E+03  0.00000000000E+00 0. -1.
          5    1    1    2  502    0 -0.15529752785E+03  0.52268811440E+02 -0.27212596811E+02  0.16615459257E+03  0.41800000000E+01 0.  1.
         -5    1    1    2    0  502 -0.36790916372E+02  0.96857795889E+02  0.27776768781E+02  0.10735001367E+03  0.41800000000E+01 0.  1.
        -11    1    1    2    0    0  0.49494803151E+02 -0.88951299467E+02  0.25586770351E+03  0.27537311218E+03  0.00000000000E+00 0. -1.
         11    1    1    2    0    0  0.14259364107E+03 -0.60175307862E+02  0.63865446147E+03  0.65714042282E+03  0.00000000000E+00 0.  1.
</event>
<event>
 7    1  0.2641580E-009  0.2437292E+03  0.7561462E-02  0.1117333E+00
         -1   -1    0    0    0  501 -0.00000000000E+00  0.00000000000E+00  0.36959126337E+03  0.36959126337E+03  0.00000000000E+00 0.  1.
          1   -1    0    0  501    0  0.00000000000E+00 -0.00000000000E+00 -0.19884428368E+03  0.19884428368E+03  0.00000000000E+00 0. -1.
         25    2    1    2    0    0  0.31137848567E+02  0.22400647486E+03  0.19430579642E+03  0.32334587848E+03  0.12509735494E+03 0.  0.
          5    1    3    3  502    0  0.52122349278E+02  0.45010976494E+02  0.95374622844E+02  0.11771371365E+03  0.41800000000E+01 0.  1.
         -5    1    3    3    0  502 -0.20984500711E+02  0.17899549836E+03  0.98931173581E+02  0.20563216482E+03  0.41800000000E+01 0.  1.
        -11    1    1    2    0    0 -0.26437055255E+02 -0.17657094855E+02  0.14940269150E+02  0.35126948793E+02  0.00000000000E+00 0.  1.
         11    1    1    2    0    0 -0.47007933126E+01 -0.20634938000E+03 -0.38499085875E+02  0.20996271978E+03  0.00000000000E+00 0. -1.
</event>
<event>
 7    1  0.2641580E-009  0.1032759E+03  0.7561462E-02  0.1273554E+00
         -1   -1    0    0    0  501 -0.00000000000E+00  0.00000000000E+00  0.14640705946E+03  0.14640705946E+03  0.00000000000E+00 0.  1.
          1   -1    0    0  501    0  0.00000000000E+00 -0.00000000000E+00 -0.11655645264E+03  0.11655645264E+03  0.00000000000E+00 0. -1.
         25    2    1    2    0    0  0.38006662279E+02 -0.31048530928E+02 -0.38688760365E+02  0.13983269188E+03  0.12509134219E+03 0.  0.
          5    1    3    3  502    0  0.55795281579E+02  0.30219688799E+02  0.27372887831E+01  0.63649887569E+02  0.41800000000E+01 0. -1.
         -5    1    3    3    0  502 -0.17788619300E+02 -0.61268219726E+02 -0.41426049148E+02  0.76182804313E+02  0.41800000000E+01 0. -1.
        -11    1    1    2    0    0  0.16889395346E+02  0.12745045438E+02 -0.11718340290E+02  0.24186925342E+02  0.00000000000E+00 0. -1.
         11    1    1    2    0    0 -0.54896057626E+02  0.18303485490E+02  0.80257707472E+02  0.98943894873E+02  0.00000000000E+00 0.  1.
</event>
<event>
 7    1  0.2641580E-009  0.1543999E+03  0.7561462E-02  0.1195168E+00
          2   -1    0    0  501    0  0.00000000000E+00  0.00000000000E+00  0.12961209316E+04  0.12961209316E+04  0.00000000000E+00 0. -1.
         -2   -1    0    0    0  501 -0.00000000000E+00 -0.00000000000E+00 -0.21423197189E+02  0.21423197189E+02  0.00000000000E+00 0.  1.
         25    2    1    2    0    0  0.11305726883E+03 -0.54804242580E+02  0.62875921476E+03  0.65327661735E+03  0.12508692011E+03 0.  0.
          5    1    3    3  502    0  0.47808324063E+02  0.23467300225E+02  0.87700841382E+02  0.10269011641E+03  0.41800000000E+01 0.  1.
         -5    1    3    3    0  502  0.65248944768E+02 -0.78271542805E+02  0.54105837338E+03  0.55058650094E+03  0.41800000000E+01 0.  1.
        -11    1    1    2    0    0 -0.10492232354E+03  0.72782797385E+01  0.48439944756E+03  0.49568588051E+03  0.00000000000E+00 0. -1.
         11    1    1    2    0    0 -0.81349452871E+01  0.47525962841E+02  0.16153907206E+03  0.16858163091E+03  0.00000000000E+00 0.  1.
</event>
<event>
 7    1  0.2641580E-009  0.1217831E+03  0.7561462E-02  0.1240184E+00
         -1   -1    0    0    0  501 -0.00000000000E+00  0.00000000000E+00  0.17206507950E+02  0.17206507950E+02  0.00000000000E+00 0.  1.
          1   -1    0    0  501    0  0.00000000000E+00 -0.00000000000E+00 -0.91723394574E+03  0.91723394574E+03  0.00000000000E+00 0. -1.
         25    2    1    2    0    0 -0.24182848673E+02  0.52846547988E+02 -0.54350035526E+03  0.56072828966E+03  0.12508401521E+03 0.  0.
          5    1    3    3  502    0  0.53780848123E+01 -0.38082828818E+02 -0.21970405674E+03  0.22308422310E+03  0.41800000000E+01 0.  1.
         -5    1    3    3    0  502 -0.29560933485E+02  0.90929376806E+02 -0.32379629851E+03  0.33764406657E+03  0.41800000000E+01 0.  1.
        -11    1    1    2    0    0 -0.14795780657E+02 -0.66306139349E+02 -0.26033955413E+03  0.26905780547E+03  0.00000000000E+00 0. -1.
         11    1    1    2    0    0  0.38978629329E+02  0.13459591361E+02 -0.96187528407E+02  0.10465435856E+03  0.00000000000E+00 0.  1.
</event>
<event>
 7    1  0.2641580E-009  0.1087812E+03  0.7561462E-02  0.1262844E+00
          2   -1    0    0  501    0  0.00000000000E+00  0.00000000000E+00  0.96327195638E+03  0.96327195638E+03  0.00000000000E+00 0. -1.
         -2   -1    0    0    0  501 -0.00000000000E+00 -0.00000000000E+00 -0.20054362647E+02  0.20054362647E+02  0.00000000000E+00 0.  1.
         25    2    1    2    0    0 -0.66126626396E+02 -0.37401198718E+02  0.67072435094E+03  0.68650625384E+03  0.12509237078E+03 0.  0.
          5    1    3    3  502    0  0.33662387150E+02 -0.22249408207E+02  0.12220613911E+03  0.12876336944E+03  0.41800000000E+01 0. -1.
         -5    1    3    3    0  502 -0.99789013546E+02 -0.15151790511E+02  0.54851821184E+03  0.55774288440E+03  0.41800000000E+01 0. -1.
        -11    1    1    2    0    0  0.27722097164E+02  0.15167957125E+02  0.14029792454E+02  0.34574798204E+02  0.00000000000E+00 0.  1.
         11    1    1    2    0    0  0.38404529232E+02  0.22233241593E+02  0.25846345034E+03  0.26224526699E+03  0.00000000000E+00 0. -1.
</event>
<event>
 7    1  0.2641580E-009  0.1093188E+03  0.7561462E-02  0.1261836E+00
         -2   -1    0    0    0  501 -0.00000000000E+00  0.00000000000E+00  0.50238998953E+02  0.50238998953E+02  0.00000000000E+00 0.  1.
          2   -1    0    0  501    0  0.00000000000E+00 -0.00000000000E+00 -0.37435970755E+03  0.37435970755E+03  0.00000000000E+00 0. -1.
         25    2    1    2    0    0 -0.17816726388E+02 -0.70838928347E+02 -0.24162079256E+03  0.28171683005E+03  0.12509266735E+03 0.  0.
          5    1    3    3  502    0  0.11626023176E+02 -0.71199330829E+02 -0.50174244758E+02  0.87974066419E+02  0.41800000000E+01 0. -1.
         -5    1    3    3    0  502 -0.29442749564E+02  0.36040248163E+00 -0.19144654780E+03  0.19374276363E+03  0.41800000000E+01 0. -1.
        -11    1    1    2    0    0 -0.23581472368E+02 -0.10153890296E+02 -0.16985166918E+02  0.30784463978E+02  0.00000000000E+00 0.  1.
         11    1    1    2    0    0  0.41398198757E+02  0.80992818643E+02 -0.65514749114E+02  0.11209741247E+03  0.00000000000E+00 0. -1.
</event>
<event>
 7    1  0.2887817E-009  0.4684646E+02  0.7561462E-02  0.1463133E+00
          2   -1    0    0  501    0  0.00000000000E+00  0.00000000000E+00  0.34581511998E+03  0.34581511998E+03  0.00000000000E+00 0. -1.
         -2   -1    0    0    0  501 -0.00000000000E+00 -0.00000000000E+00 -0.42392579755E+02  0.42392579755E+02  0.00000000000E+00 0.  1.
         25    2    1    2    0    0 -0.21301334695E+02 -0.21142984966E+01  0.89479350879E+02  0.15528092647E+03  0.12508954702E+03 0.  0.
          5    1    3    3  502    0 -0.10385798710E+02  0.10772873220E+02  0.11954163338E+03  0.12054706187E+03  0.41800000000E+01 0.  1.
         -5    1    3    3    0  502 -0.10915535985E+02 -0.12887171717E+02 -0.30062282506E+02  0.34733864602E+02  0.41800000000E+01 0.  1.
        -11    1    1    2    0    0  0.40551048510E+02  0.63564558807E+01  0.20846578741E+03  0.21246829548E+03  0.00000000000E+00 0. -1.
         11    1    1    2    0    0 -0.19249713814E+02 -0.42421573842E+01  0.54774019416E+01  0.20458477784E+02  0.00000000000E+00 0.  1.
</event>
<event>
 7    1  0.2641580E-009  0.1039963E+03  0.7561462E-02  0.1272110E+00
          2   -1    0    0  501    0  0.00000000000E+00  0.00000000000E+00  0.18421239288E+04  0.18421239288E+04  0.00000000000E+00 0. -1.
         -2   -1    0    0    0  501 -0.00000000000E+00 -0.00000000000E+00 -0.10837132486E+02  0.10837132486E+02  0.00000000000E+00 0.  1.
         25    2    1    2    0    0 -0.26784882568E+02  0.64043801214E+02  0.13844820473E+04  0.13918535132E+04  0.12508646871E+03 0.  0.
          5    1    3    3  502    0 -0.18985801917E+02  0.76556908164E+02  0.42671186929E+03  0.43396072709E+03  0.41800000000E+01 0.  1.
         -5    1    3    3    0  502 -0.77990806503E+01 -0.12513106950E+02  0.95777017798E+03  0.95789278613E+03  0.41800000000E+01 0.  1.
        -11    1    1    2    0    0 -0.24411967133E+02  0.76503791272E+01  0.87766999223E+02  0.91419465064E+02  0.00000000000E+00 0. -1.
         11    1    1    2    0    0  0.51196849700E+02 -0.71694180341E+02  0.35903774984E+03  0.36968808302E+03  0.00000000000E+00 0.  1.
</event>
<event>
 7    1  0.2641580E-009  0.9703272E+02  0.7561462E-02  0.1286662E+00
          1   -1    0    0  501    0  0.00000000000E+00  0.00000000000E+00  0.30797689822E+02  0.30797689822E+02  0.00000000000E+00 0. -1.
         -1   -1    0    0    0  501 -0.00000000000E+00 -0.00000000000E+00 -0.38478468752E+03  0.38478468752E+03  0.00000000000E+00 0.  1.
         25    2    1    2    0    0 -0.99801184551E+00 -0.49823335738E+01 -0.21718607893E+03  0.25068353575E+03  0.12508646025E+03 0.  0.
          5    1    3    3  502    0  0.49269597281E+02  0.28886033420E+02 -0.14752382832E+03  0.15824869183E+03  0.41800000000E+01 0.  1.
         -5    1    3    3    0  502 -0.50267609127E+02 -0.33868366994E+02 -0.69662250607E+02  0.92434843916E+02  0.41800000000E+01 0.  1.
        -11    1    1    2    0    0  0.38306593189E+02  0.56950106927E+01 -0.11574620122E+03  0.12205331346E+03  0.00000000000E+00 0.  1.
         11    1    1    2    0    0 -0.37308581344E+02 -0.71267711892E+00 -0.21054717548E+02  0.42845528140E+02  0.00000000000E+00 0. -1.
</event>
<event>
 7    1  0.2641580E-009  0.9828061E+02  0.7561462E-02  0.1283954E+00
         -2   -1    0    0    0  501 -0.00000000000E+00  0.00000000000E+00  0.35012266776E+02  0.35012266776E+02  0.00000000000E+00 0.  1.
          2   -1    0    0  501    0  0.00000000000E+00 -0.00000000000E+00 -0.45713094300E+03  0.45713094300E+03  0.00000000000E+00 0. -1.
         25    2    1    2    0    0  0.52520385894E+02  0.44582476839E+02 -0.28033231623E+03  0.31461090237E+03  0.12509126343E+03 0.  0.
          5    1    3    3  502    0 -0.12336849523E+02  0.58031553290E+02 -0.20847677072E+03  0.21679459256E+03  0.41800000000E+01 0. -1.
         -5    1    3    3    0  502  0.64857235417E+02 -0.13449076450E+02 -0.71855545519E+02  0.97816309812E+02  0.41800000000E+01 0. -1.
        -11    1    1    2    0    0 -0.28249481356E+02 -0.13580047504E+02 -0.13371634301E+03  0.13734085799E+03  0.00000000000E+00 0. -1.
         11    1    1    2    0    0 -0.24270904539E+02 -0.31002429335E+02 -0.80700169779E+01  0.40191449412E+02  0.00000000000E+00 0.  1.
</event>
<event>
 7    1  0.2641580E-009  0.8404720E+02  0.7561462E-02  0.1317943E+00
          2   -1    0    0  501    0  0.00000000000E+00  0.00000000000E+00  0.88084140597E+03  0.88084140597E+03  0.00000000000E+00 0. -1.
         -2   -1    0    0    0  501 -0.00000000000E+00 -0.00000000000E+00 -0.28518113892E+02  0.28518113892E+02  0.00000000000E+00 0.  1.
         25    2    1    2    0    0 -0.38765177473E+02  0.55730140823E+02  0.72322004564E+03  0.73709118454E+03  0.12509033668E+03 0.  0.
          5    1    3    3  502    0 -0.40076993804E+02  0.24437819894E+02  0.68863415463E+03  0.69024477093E+03  0.41800000000E+01 0. -1.
         -5    1    3    3    0  502  0.13118163315E+01  0.31292320929E+02  0.34585891011E+02  0.46846413612E+02  0.41800000000E+01 0. -1.
        -11    1    1    2    0    0 -0.44289493078E+01 -0.44528323671E+02  0.11812218275E+03  0.12631404221E+03  0.00000000000E+00 0. -1.
         11    1    1    2    0    0  0.43194126781E+02 -0.11201817153E+02  0.10981063686E+02  0.45954293113E+02  0.00000000000E+00 0.  1.
</event>
<event>
 7    1  0.2641580E-009  0.1446034E+03  0.7561462E-02  0.1207266E+00
          1   -1    0    0  501    0  0.00000000000E+00  0.00000000000E+00  0.13760624942E+03  0.13760624942E+03  0.00000000000E+00 0. -1.
         -1   -1    0    0    0  501 -0.00000000000E+00 -0.00000000000E+00 -0.15984929281E+03  0.15984929281E+03  0.00000000000E+00 0.  1.
         25    2    1    2    0    0  0.31611814432E+02  0.94939071380E+02 -0.11313190535E+01  0.16016932259E+03  0.12506077694E+03 0.  0.
          5    1    3    3  502    0 -0.34048292326E+02  0.79655709064E+02  0.20736470417E+02  0.89172819862E+02  0.41800000000E+01 0.  1.
         -5    1    3    3    0  502  0.65660106758E+02  0.15283362316E+02 -0.21867789471E+02  0.70996502727E+02  0.41800000000E+01 0.  1.
        -11    1    1    2    0    0  0.13503349620E+02  0.12503686804E+02 -0.78357949182E+01  0.20002057810E+02  0.00000000000E+00 0.  1.
         11    1    1    2    0    0 -0.45115164052E+02 -0.10744275818E+03 -0.13275929424E+02  0.11728416183E+03  0.00000000000E+00 0. -1.
</event>
<event>
 7    1  0.2641580E-009  0.9150760E+02  0.7561462E-02  0.1299241E+00
          1   -1    0    0  501    0  0.00000000000E+00  0.00000000000E+00  0.31217942818E+02  0.31217942818E+02  0.00000000000E+00 0. -1.
         -1   -1    0    0    0  501 -0.00000000000E+00 -0.00000000000E+00 -0.43666873638E+03  0.43666873638E+03  0.00000000000E+00 0.  1.
         25    2    1    2    0    0 -0.62370955402E+01  0.40006487927E+01 -0.31467151295E+03  0.33870356917E+03  0.12508812956E+03 0.  0.
          5    1    3    3  502    0 -0.36706845232E+02 -0.37761785149E+02 -0.25140296597E+03  0.25689349661E+03  0.41800000000E+01 0. -1.
         -5    1    3    3    0  502  0.30469749692E+02  0.41762433942E+02 -0.63268546984E+02  0.81810072562E+02  0.41800000000E+01 0. -1.
        -11    1    1    2    0    0  0.36153978341E+02 -0.23029923902E+02 -0.82197302233E+02  0.92703204040E+02  0.00000000000E+00 0.  1.
         11    1    1    2    0    0 -0.29916882801E+02  0.19029275109E+02 -0.85819783764E+01  0.36479905983E+02  0.00000000000E+00 0. -1.
</event>
<event>
 7    1  0.2641580E-009  0.1785332E+03  0.7561462E-02  0.1169230E+00
         -2   -1    0    0    0  501 -0.00000000000E+00  0.00000000000E+00  0.28750215620E+02  0.28750215620E+02  0.00000000000E+00 0.  1.
          2   -1    0    0  501    0  0.00000000000E+00 -0.00000000000E+00 -0.13846032412E+04  0.13846032412E+04  0.00000000000E+00 0. -1.
         25    2    1    2    0    0 -0.14871044141E+03  0.48982604438E+02 -0.92805717719E+03  0.94944806846E+03  0.12508964646E+03 0.  0.
          5    1    3    3  502    0 -0.49688317983E+02 -0.33536846923E+02 -0.16571541647E+03  0.17627456056E+03  0.41800000000E+01 0.  1.
         -5    1    3    3    0  502 -0.99022123430E+02  0.82519451361E+02 -0.76234176072E+03  0.77317350790E+03  0.41800000000E+01 0.  1.
        -11    1    1    2    0    0  0.92327722498E+02 -0.60601924787E+02 -0.19505342740E+03  0.22414914939E+03  0.00000000000E+00 0.  1.
         11    1    1    2    0    0  0.56382718914E+02  0.11619320349E+02 -0.23274242096E+03  0.23975623894E+03  0.00000000000E+00 0. -1.
</event>
<event>
 7    1  0.2641580E-009  0.8791504E+02  0.7561462E-02  0.1307981E+00
          2   -1    0    0  501    0  0.00000000000E+00  0.00000000000E+00  0.34483406457E+03  0.34483406457E+03  0.00000000000E+00 0. -1.
         -2   -1    0    0    0  501 -0.00000000000E+00 -0.00000000000E+00 -0.38186139067E+02  0.38186139067E+02  0.00000000000E+00 0.  1.
         25    2    1    2    0    0  0.36981595408E+02  0.82955171351E+01  0.22217783027E+03  0.25777327636E+03  0.12509044624E+03 0.  0.
          5    1    3    3  502    0  0.63788209780E+02  0.14333410926E+01  0.22067076404E+03  0.22974779362E+03  0.41800000000E+01 0. -1.
         -5    1    3    3    0  502 -0.26806614372E+02  0.68621760424E+01  0.15070662318E+01  0.28025482739E+02  0.41800000000E+01 0. -1.
        -11    1    1    2    0    0 -0.57166684994E+02 -0.20008072090E+02  0.81764389765E+02  0.10175346803E+03  0.00000000000E+00 0. -1.
         11    1    1    2    0    0  0.20185089586E+02  0.11712554954E+02  0.27057054643E+01  0.23493459243E+02  0.00000000000E+00 0.  1.
</event>
<event>
 7    1  0.2641580E-009  0.1449659E+03  0.7561462E-02  0.1206799E+00
         -1   -1    0    0    0  501 -0.00000000000E+00  0.00000000000E+00  0.23730729848E+03  0.23730729848E+03  0.00000000000E+00 0.  1.
          1   -1    0    0  501    0  0.00000000000E+00 -0.00000000000E+00 -0.12846534456E+03  0.12846534456E+03  0.00000000000E+00 0. -1.
         25    2    1    2    0    0  0.38264444888E+02  0.90166410417E+02  0.15769309003E+03  0.22385633542E+03  0.12510155457E+03 0.  0.
          5    1    3    3  502    0  0.67250405552E+02  0.39121601753E+01  0.60345473894E+02  0.90537123125E+02  0.41800000000E+01 0.  1.
         -5    1    3    3    0  502 -0.28985960664E+02  0.86254250241E+02  0.97347616133E+02  0.13331921230E+03  0.41800000000E+01 0.  1.
        -11    1    1    2    0    0 -0.61846014524E+02 -0.34328374755E+02 -0.14362407694E+02  0.72177874592E+02  0.00000000000E+00 0.  1.
         11    1    1    2    0    0  0.23581569636E+02 -0.55838035662E+02 -0.34488728413E+02  0.69738433024E+02  0.00000000000E+00 0. -1.
</event>
<event>
 7    1  0.2641580E-009  0.1935083E+03  0.7561462E-02  0.1155335E+00
          1   -1    0    0  501    0  0.00000000000E+00  0.00000000000E+00  0.14134633552E+04  0.14134633552E+04  0.00000000000E+00 0. -1.
         -1   -1    0    0    0  501 -0.00000000000E+00 -0.00000000000E+00 -0.30583369771E+02  0.30583369771E+02  0.00000000000E+00 0.  1.
         25    2    1    2    0    0 -0.14413701424E+03  0.85264910169E+02  0.92310805111E+03  0.94647906439E+03  0.12509421057E+03 0.  0.
          5    1    3    3  502    0 -0.98362064470E+02  0.11593749411E+03  0.72662356325E+03  0.74237178916E+03  0.41800000000E+01 0. -1.
         -5    1    3    3    0  502 -0.45774949769E+02 -0.30672583937E+02  0.19648448786E+03  0.20410727523E+03  0.41800000000E+01 0. -1.
        -11    1    1    2    0    0  0.70407247286E+02 -0.78759223823E+02  0.18537887206E+03  0.21336710622E+03  0.00000000000E+00 0.  1.
         11    1    1    2    0    0  0.73729766953E+02 -0.65056863454E+01  0.27439306225E+03  0.28420055436E+03  0.00000000000E+00 0. -1.
</event>
<event>
 7    1  0.2641580E-009  0.9288920E+02  0.7561462E-02  0.1296002E+00
         -3   -1    0    0    0  501 -0.00000000000E+00  0.00000000000E+00  0.37152826024E+02  0.37152826024E+02  0.00000000000E+00 0.  1.
          3   -1    0    0  501    0  0.00000000000E+00 -0.00000000000E+00 -0.42341426404E+03  0.42341426404E+03  0.00000000000E+00 0. -1.
         25    2    1    2    0    0 -0.44318840801E+02 -0.16652868050E+02 -0.25581680659E+03  0.28867190738E+03  0.12509098253E+03 0.  0.
          5    1    3    3  502    0 -0.81672169780E+02  0.13847273289E+02 -0.18665774976E+03  0.20425640317E+03  0.41800000000E+01 0. -1.
         -5    1    3    3    0  502  0.37353328979E+02 -0.30500141339E+02 -0.69159056836E+02  0.84415504204E+02  0.41800000000E+01 0. -1.
        -11    1    1    2    0    0  0.23037734126E+02  0.22663836864E+02 -0.14290430559E+03  0.14651289108E+03  0.00000000000E+00 0. -1.
         11    1    1    2    0    0  0.21281106675E+02 -0.60109688148E+01  0.12459674162E+02  0.25382291615E+02  0.00000000000E+00 0.  1.
</event>
<event>
 7    1  0.2641580E-009  0.9964013E+02  0.7561462E-02  0.1281055E+00
         -1   -1    0    0    0  501 -0.00000000000E+00  0.00000000000E+00  0.13863721994E+04  0.13863721994E+04  0.00000000000E+00 0.  1.
          1   -1    0    0  501    0  0.00000000000E+00 -0.00000000000E+00 -0.11082900881E+02  0.11082900881E+02  0.00000000000E+00 0. -1.
         25    2    1    2    0    0 -0.61172058787E+01 -0.50988518247E+02  0.94003543842E+03  0.94971132941E+03  0.12509090508E+03 0.  0.
          5    1    3    3  502    0  0.32907122424E+02  0.89226449270E+00  0.72421180653E+02  0.79661625952E+02  0.41800000000E+01 0.  1.
         -5    1    3    3    0  502 -0.39024328303E+02 -0.51880782740E+02  0.86761425776E+03  0.87004970346E+03  0.41800000000E+01 0.  1.
        -11    1    1    2    0    0  0.46669293959E+02  0.26407537459E+02  0.29088945692E+03  0.29579056303E+03  0.00000000000E+00 0.  1.
         11    1    1    2    0    0 -0.40552088080E+02  0.24580980788E+02  0.14436440315E+03  0.15195320780E+03  0.00000000000E+00 0. -1.
</event>
<event>
 7    1  0.2709225E-009  0.7164864E+02  0.7561462E-02  0.1354575E+00
         -4   -1    0    0    0  501 -0.00000000000E+00  0.00000000000E+00  0.93526819726E+02  0.93526819726E+02  0.00000000000E+00 0.  1.
          4   -1    0    0  501    0  0.00000000000E+00 -0.00000000000E+00 -0.15420642834E+03  0.15420642834E+03  0.00000000000E+00 0. -1.
         25    2    1    2    0    0  0.17150860232E+01  0.52013877622E+02 -0.31048370247E+02  0.13899659970E+03  0.12509064093E+03 0.  0.
          5    1    3    3  502    0  0.24743980952E+02  0.49048401749E+02  0.37404233751E+02  0.66592487640E+02  0.41800000000E+01 0.  1.
         -5    1    3    3    0  502 -0.23028894929E+02  0.29654758731E+01 -0.68452603998E+02  0.72404112058E+02  0.41800000000E+01 0.  1.
        -11    1    1    2    0    0 -0.19729861115E+02 -0.32758804853E+02  0.26631859836E+02  0.46601101632E+02  0.00000000000E+00 0.  1.
         11    1    1    2    0    0  0.18014775091E+02 -0.19255072770E+02 -0.56263098201E+02  0.62135546736E+02  0.00000000000E+00 0. -1.
</event>
<event>
 7    1  0.2641580E-009  0.1383809E+03  0.7561462E-02  0.1215524E+00
         -1   -1    0    0    0  501 -0.00000000000E+00  0.00000000000E+00  0.10134485987E+03  0.10134485987E+03  0.00000000000E+00 0.  1.
          1   -1    0    0  501    0  0.00000000000E+00 -0.00000000000E+00 -0.24842479505E+03  0.24842479505E+03  0.00000000000E+00 0. -1.
         25    2    1    2    0    0 -0.82626839544E+02 -0.53997215388E+02 -0.14746046777E+03  0.21710757107E+03  0.12509282145E+03 0.  0.
          5    1    3    3  502    0  0.92095833406E+01 -0.57290395208E+02 -0.23500993402E+02  0.62743723983E+02  0.41800000000E+01 0.  1.
         -5    1    3    3    0  502 -0.91836422885E+02  0.32931798205E+01 -0.12395947437E+03  0.15436384709E+03  0.41800000000E+01 0.  1.
        -11    1    1    2    0    0  0.14828006477E+02  0.56834495417E+02  0.19959941130E+02  0.62035706616E+02  0.00000000000E+00 0.  1.
         11    1    1    2    0    0  0.67798833067E+02 -0.28372800297E+01 -0.19579408535E+02  0.70626377238E+02  0.00000000000E+00 0. -1.
</event>
<event>
 7    1  0.2641580E-009  0.9307469E+02  0.7561462E-02  0.1295572E+00
          1   -1    0    0  501    0  0.00000000000E+00  0.00000000000E+00  0.60020895563E+03  0.60020895563E+03  0.00000000000E+00 0. -1.
         -1   -1    0    0    0  501 -0.00000000000E+00 -0.00000000000E+00 -0.23945419310E+02  0.23945419310E+02  0.00000000000E+00 0.  1.
         25    2    1    2    0    0 -0.15634969853E+02 -0.59429726596E+01  0.50694585217E+03  0.52241832519E+03  0.12508812197E+03 0.  0.
          5    1    3    3  502    0  0.47743504113E+02  0.64194855582E+00  0.34539732345E+03  0.34870709446E+03  0.41800000000E+01 0.  1.
         -5    1    3    3    0  502 -0.63378473967E+02 -0.65849212154E+01  0.16154852872E+03  0.17371123073E+03  0.41800000000E+01 0.  1.
        -11    1    1    2    0    0 -0.26067817791E+02  0.17120969042E+02  0.26431162701E+02  0.40881108926E+02  0.00000000000E+00 0.  1.
         11    1    1    2    0    0  0.41702787644E+02 -0.11177996382E+02  0.42886521450E+02  0.60854940822E+02  0.00000000000E+00 0. -1.
</event>
<event>
 7    1  0.2641580E-009  0.8965838E+02  0.7561462E-02  0.1303681E+00
         -2   -1    0    0    0  501 -0.00000000000E+00  0.00000000000E+00  0.17591798944E+03  0.17591798944E+03  0.00000000000E+00 0.  1.
          2   -1    0    0  501    0  0.00000000000E+00 -0.00000000000E+00 -0.65594079941E+02  0.65594079941E+02  0.00000000000E+00 0. -1.
         25    2    1    2    0    0  0.30397152689E+02 -0.40083067655E+01  0.62710933157E+02  0.14324709278E+03  0.12508802916E+03 0.  0.
          5    1    3    3  502    0  0.14554357716E+02 -0.57937056253E+02  0.13075680122E+01  0.59897528746E+02  0.41800000000E+01 0.  1.
         -5    1    3    3    0  502  0.15842794974E+02  0.53928749487E+02  0.61403365145E+02  0.83349564036E+02  0.41800000000E+01 0.  1.
        -11    1    1    2    0    0 -0.45007166537E+02 -0.59367025937E+01  0.61039031424E+02  0.76070052153E+02  0.00000000000E+00 0.  1.
         11    1    1    2    0    0  0.14610013848E+02  0.99450093592E+01 -0.13426055086E+02  0.22194924441E+02  0.00000000000E+00 0. -1.
</event>
<event>
 7    1  0.2641580E-009  0.8634452E+02  0.7561462E-02  0.1311953E+00
         -1   -1    0    0    0  501 -0.00000000000E+00  0.00000000000E+00  0.58991562706E+02  0.58991562706E+02  0.00000000000E+00 0.  1.
          1   -1    0    0  501    0  0.00000000000E+00 -0.00000000000E+00 -0.24389947542E+03  0.24389947542E+03  0.00000000000E+00 0. -1.
         25    2    1    2    0    0 -0.13819492626E+02 -0.47933146412E+02 -0.81147938604E+02  0.15722900068E+03  0.12508959115E+03 0.  0.
          5    1    3    3  502    0  0.17882264311E+02  0.25925532660E+01  0.27526125895E+02  0.33191214441E+02  0.41800000000E+01 0. -1.
         -5    1    3    3    0  502 -0.31701756937E+02 -0.50525699678E+02 -0.10867406450E+03  0.12403778624E+03  0.41800000000E+01 0. -1.
        -11    1    1    2    0    0  0.44154368149E+02  0.91181574216E+01 -0.77944791142E+02  0.90045208021E+02  0.00000000000E+00 0.  1.
         11    1    1    2    0    0 -0.30334875523E+02  0.38814988990E+02 -0.25815182967E+02  0.55616829421E+02  0.00000000000E+00 0. -1.
</event>
<event>
 7    1  0.2641580E-009  0.1348278E+03  0.7561462E-02  0.1220463E+00
          1   -1    0    0  501    0  0.00000000000E+00  0.00000000000E+00  0.14958025852E+03  0.14958025852E+03  0.00000000000E+00 0. -1.
         -1   -1    0    0    0  501 -0.00000000000E+00 -0.00000000000E+00 -0.14288588588E+03  0.14288588588E+03  0.00000000000E+00 0.  1.
         25    2    1    2    0    0  0.87862537880E+02  0.41789351305E+02 -0.85998793008E+01  0.15870520723E+03  0.12508880618E+03 0.  0.
          5    1    3    3  502    0 -0.29280824265E+02  0.22367271577E+02 -0.14319631997E+02  0.39751550511E+02  0.41800000000E+01 0.  1.
         -5    1    3    3    0  502  0.11714336214E+03  0.19422079727E+02  0.57197526959E+01  0.11895365672E+03  0.41800000000E+01 0.  1.
        -11    1    1    2    0    0 -0.49693573973E+02 -0.54283866598E+02 -0.24162530716E+02  0.77459778968E+02  0.00000000000E+00 0.  1.
         11    1    1    2    0    0 -0.38168963906E+02  0.12494515294E+02  0.39456782651E+02  0.56301158206E+02  0.00000000000E+00 0. -1.
</event>
<event>
 7    1  0.2725169E-009  0.1656805E+03  0.7561462E-02  0.1182429E+00
          2   -1    0    0  501    0  0.00000000000E+00  0.00000000000E+00  0.11164821733E+04  0.11164821733E+04  0.00000000000E+00 0. -1.
         -2   -1    0    0    0  501 -0.00000000000E+00 -0.00000000000E+00 -0.40773541870E+02  0.40773541870E+02  0.00000000000E+00 0.  1.
         25    2    1    2    0    0  0.13812083575E+03 -0.81926128066E+00  0.88615444868E+03  0.90552969296E+03  0.12504511770E+03 0.  0.
          5    1    3    3  502    0  0.37721669002E+02  0.55470004855E+02  0.42078614777E+03  0.42612005387E+03  0.41800000000E+01 0.  1.
         -5    1    3    3    0  502  0.10039916675E+03 -0.56289266136E+02  0.46536830090E+03  0.47940963909E+03  0.41800000000E+01 0.  1.
        -11    1    1    2    0    0 -0.41983398830E+02  0.26267428385E+02  0.12154424159E+03  0.13124628084E+03  0.00000000000E+00 0. -1.
         11    1    1    2    0    0 -0.96137436924E+02 -0.25448167104E+02  0.68009941200E+02  0.12047974141E+03  0.00000000000E+00 0.  1.
</event>
<event>
 7    1  0.2641580E-009  0.1831329E+03  0.7561462E-02  0.1164805E+00
         -2   -1    0    0    0  501 -0.00000000000E+00  0.00000000000E+00  0.49999236377E+02  0.49999236377E+02  0.00000000000E+00 0.  1.
          2   -1    0    0  501    0  0.00000000000E+00 -0.00000000000E+00 -0.82999674131E+03  0.82999674131E+03  0.00000000000E+00 0. -1.
         25    2    1    2    0    0  0.10387337542E+03 -0.12742823811E+03 -0.29793666365E+03  0.36254694711E+03  0.12508556801E+03 0.  0.
          5    1    3    3  502    0  0.21672564831E+02 -0.10723406846E+03 -0.10445264048E+03  0.15131646311E+03  0.41800000000E+01 0.  1.
         -5    1    3    3    0  502  0.82200810591E+02 -0.20194169650E+02 -0.19348402317E+03  0.21123048400E+03  0.41800000000E+01 0.  1.
        -11    1    1    2    0    0 -0.47561875463E+02  0.21768175560E+02 -0.64400292930E+02  0.82966156921E+02  0.00000000000E+00 0.  1.
         11    1    1    2    0    0 -0.56311499959E+02  0.10566006255E+03 -0.41766054835E+03  0.43448287365E+03  0.00000000000E+00 0. -1.
</event>
<event>
 7    1  0.2641580E-009  0.1080158E+03  0.7561462E-02  0.1264289E+00
          2   -1    0    0  501    0  0.00000000000E+00  0.00000000000E+00  0.13466133064E+02  0.13466133064E+02  0.00000000000E+00 0. -1.
         -2   -1    0    0    0  501 -0.00000000000E+00 -0.00000000000E+00 -0.10318345963E+04  0.10318345963E+04  0.00000000000E+00 0.  1.
         25    2    1    2    0    0  0.12799268112E+02 -0.32206655068E+01 -0.76510245989E+03  0.77537301710E+03  0.12508935834E+03 0.  0.
          5    1    3    3  502    0  0.29016327341E+02  0.56474112201E+02 -0.40671181347E+03  0.41165913596E+03  0.41800000000E+01 0. -1.
         -5    1    3    3    0  502 -0.16217059229E+02 -0.59694777708E+02 -0.35839064641E+03  0.36371388114E+03  0.41800000000E+01 0. -1.
        -11    1    1    2    0    0  0.36594905589E+02 -0.12333074830E+02 -0.75940491642E+02  0.85195364432E+02  0.00000000000E+00 0.  1.
         11    1    1    2    0    0 -0.49394173701E+02  0.15553740337E+02 -0.17732551172E+03  0.18473234784E+03  0.00000000000E+00 0. -1.
</event>
<event>
 7    1  0.2641580E-009  0.1054088E+03  0.7561462E-02  0.1269316E+00
          1   -1    0    0  501    0  0.00000000000E+00  0.00000000000E+00  0.33400397271E+03  0.33400397271E+03  0.00000000000E+00 0. -1.
         -1   -1    0    0    0  501 -0.00000000000E+00 -0.00000000000E+00 -0.42638565922E+02  0.42638565922E+02  0.00000000000E+00 0.  1.
         25    2    1    2    0    0 -0.87570587867E+01 -0.28185032689E+01  0.88871469112E+02  0.15372182063E+03  0.12509048755E+03 0.  0.
          5    1    3    3  502    0  0.33702983436E+02  0.45353039123E+02  0.21621337880E+02  0.60644405364E+02  0.41800000000E+01 0.  1.
         -5    1    3    3    0  502 -0.42460042223E+02 -0.48171542392E+02  0.67250131231E+02  0.93077415266E+02  0.41800000000E+01 0.  1.
        -11    1    1    2    0    0  0.36333613553E+02  0.32889063643E+02  0.80079343829E+02  0.93885692676E+02  0.00000000000E+00 0.  1.
         11    1    1    2    0    0 -0.27576554766E+02 -0.30070560374E+02  0.12241459384E+03  0.12903502532E+03  0.00000000000E+00 0. -1.
</event>
<event>
 7    1  0.2641580E-009  0.1048437E+03  0.7561462E-02  0.1270428E+00
          4   -1    0    0  501    0  0.00000000000E+00  0.00000000000E+00  0.23656548918E+02  0.23656548918E+02  0.00000000000E+00 0. -1.
         -4   -1    0    0    0  501 -0.00000000000E+00 -0.00000000000E+00 -0.62918813719E+03  0.62918813719E+03  0.00000000000E+00 0.  1.
         25    2    1    2    0    0  0.47748902218E+02 -0.27434894869E+02 -0.36508806892E+03  0.38983204753E+03  0.12508835314E+03 0.  0.
          5    1    3    3  502    0  0.16000956100E+02 -0.62489930275E+02 -0.90765448147E+02  0.11143096948E+03  0.41800000000E+01 0. -1.
         -5    1    3    3    0  502  0.31747946118E+02  0.35055035406E+02 -0.27432262077E+03  0.27840107805E+03  0.41800000000E+01 0. -1.
        -11    1    1    2    0    0 -0.70061848427E+02  0.27468453291E+02 -0.22084524171E+03  0.23331480733E+03  0.00000000000E+00 0.  1.
         11    1    1    2    0    0  0.22312946208E+02 -0.33558422448E-01 -0.19598277636E+02  0.29697831250E+02  0.00000000000E+00 0. -1.
</event>
<event>
 7    1  0.3010232E-009  0.8313055E+02  0.7561462E-02  0.1320395E+00
         -1   -1    0    0    0  501 -0.00000000000E+00  0.00000000000E+00  0.37882077344E+03  0.37882077344E+03  0.00000000000E+00 0.  1.
          1   -1    0    0  501    0  0.00000000000E+00 -0.00000000000E+00 -0.64058187816E+02  0.64058187816E+02  0.00000000000E+00 0. -1.
         25    2    1    2    0    0 -0.56726750800E+02  0.55447366379E+02  0.27912768043E+03  0.31599106853E+03  0.12508300730E+03 0.  0.
          5    1    3    3  502    0 -0.13163019421E+02  0.31959167396E+02  0.24622034182E+01  0.34902554442E+02  0.41800000000E+01 0.  1.
         -5    1    3    3    0  502 -0.43563731379E+02  0.23488198983E+02  0.27666547701E+03  0.28108851409E+03  0.41800000000E+01 0.  1.
        -11    1    1    2    0    0  0.92919708441E+01 -0.21571643947E+02 -0.30653065068E+02  0.38617184553E+02  0.00000000000E+00 0. -1.
         11    1    1    2    0    0  0.47434779956E+02 -0.33875722432E+02  0.66287970263E+02  0.88270708173E+02  0.00000000000E+00 0.  1.
</event>
<event>
 7    1  0.2641580E-009  0.1211875E+03  0.7561462E-02  0.1241151E+00
          2   -1    0    0  501    0  0.00000000000E+00  0.00000000000E+00  0.15513549486E+04  0.15513549486E+04  0.00000000000E+00 0. -1.
         -2   -1    0    0    0  501 -0.00000000000E+00 -0.00000000000E+00 -0.19601281127E+02  0.19601281127E+02  0.00000000000E+00 0.  1.
         25    2    1    2    0    0  0.41893986371E+02 -0.78193290429E+02  0.12848531807E+04  0.12939723383E+04  0.12508964622E+03 0.  0.
          5    1    3    3  502    0  0.44059754487E+01 -0.10610729510E+03  0.91678253688E+03  0.92292245775E+03  0.41800000000E+01 0.  1.
         -5    1    3    3    0  502  0.37488010922E+02  0.27914004671E+02  0.36807064381E+03  0.37104988055E+03  0.41800000000E+01 0.  1.
        -11    1    1    2    0    0 -0.20336936948E+02  0.47408932910E+02  0.36353762208E+02  0.63109380846E+02  0.00000000000E+00 0.  1.
         11    1    1    2    0    0 -0.21557049423E+02  0.30784357519E+02  0.21054672460E+03  0.21387451061E+03  0.00000000000E+00 0. -1.
</event>
<event>
 7    1  0.2641580E-009  0.9866993E+02  0.7561462E-02  0.1283118E+00
          1   -1    0    0  501    0  0.00000000000E+00  0.00000000000E+00  0.10115797018E+04  0.10115797018E+04  0.00000000000E+00 0. -1.
         -1   -1    0    0    0  501 -0.00000000000E+00 -0.00000000000E+00 -0.14161448996E+02  0.14161448996E+02  0.00000000000E+00 0.  1.
         25    2    1    2    0    0 -0.46623145850E+02  0.18638640744E+02  0.87138899108E+03  0.88175187903E+03  0.12508591344E+03 0.  0.
          5    1    3    3  502    0  0.40127621960E+02  0.14824272513E+02  0.40977158959E+03  0.41201967566E+03  0.41800000000E+01 0.  1.
         -5    1    3    3    0  502 -0.86750767810E+02  0.38143682304E+01  0.46161740149E+03  0.46973220337E+03  0.41800000000E+01 0.  1.
        -11    1    1    2    0    0  0.39398882508E+02 -0.32969597579E+02  0.78435248516E+02  0.93762223295E+02  0.00000000000E+00 0.  1.
         11    1    1    2    0    0  0.72242633425E+01  0.14330956835E+02  0.47594013192E+02  0.50227048453E+02  0.00000000000E+00 0. -1.
</event>
<event>
 7    1  0.2641580E-009  0.1273793E+03  0.7561462E-02  0.1231397E+00
          2   -1    0    0  501    0  0.00000000000E+00  0.00000000000E+00  0.84169085804E+02  0.84169085804E+02  0.00000000000E+00 0. -1.
         -2   -1    0    0    0  501 -0.00000000000E+00 -0.00000000000E+00 -0.26322150828E+03  0.26322150828E+03  0.00000000000E+00 0.  1.
         25    2    1    2    0    0 -0.32625148733E+02  0.93680961625E+02 -0.71803985099E+02  0.17505196339E+03  0.12508738829E+03 0.  0.
          5    1    3    3  502    0  0.51654345788E+01 -0.14716706112E+02  0.21620697458E+02  0.26984997901E+02  0.41800000000E+01 0.  1.
         -5    1    3    3    0  502 -0.37790583311E+02  0.10839766774E+03 -0.93424682557E+02  0.14806696549E+03  0.41800000000E+01 0.  1.
        -11    1    1    2    0    0  0.52244892468E+02 -0.89569671208E+02 -0.57196415973E+02  0.11842163987E+03  0.00000000000E+00 0. -1.
         11    1    1    2    0    0 -0.19619743736E+02 -0.41112904167E+01 -0.50052021408E+02  0.53916990830E+02  0.00000000000E+00 0.  1.
</event>
<event>
 7    1  0.2641580E-009  0.7291036E+02  0.7561462E-02  0.1350467E+00
         -2   -1    0    0    0  501 -0.00000000000E+00  0.00000000000E+00  0.64237621904E+02  0.64237621904E+02  0.00000000000E+00 0.  1.
          2   -1    0    0  501    0  0.00000000000E+00 -0.00000000000E+00 -0.20826743769E+03  0.20826743769E+03  0.00000000000E+00 0. -1.
         25    2    1    2    0    0 -0.19108097882E+02  0.21345719192E+02 -0.11376064536E+03  0.17149129242E+03  0.12508804824E+03 0.  0.
          5    1    3    3  502    0 -0.49897457797E+02  0.21500223646E+02 -0.97285818734E+00  0.54501695060E+02  0.41800000000E+01 0. -1.
         -5    1    3    3    0  502  0.30789359915E+02 -0.15450445407E+00 -0.11278778717E+03  0.11698959736E+03  0.41800000000E+01 0. -1.
        -11    1    1    2    0    0 -0.39799560940E+01 -0.33792550777E+02  0.23387904764E+02  0.41288868085E+02  0.00000000000E+00 0.  1.
         11    1    1    2    0    0  0.23088053976E+02  0.12446831586E+02 -0.53657075190E+02  0.59724899086E+02  0.00000000000E+00 0. -1.
</event>
<event>
 7    1  0.2641580E-009  0.7799381E+02  0.7561462E-02  0.1334843E+00
         -2   -1    0    0    0  501 -0.00000000000E+00  0.00000000000E+00  0.18089885486E+03  0.18089885486E+03  0.00000000000E+00 0.  1.
          2   -1    0    0  501    0  0.00000000000E+00 -0.00000000000E+00 -0.97161531526E+02  0.97161531526E+02  0.00000000000E+00 0. -1.
         25    2    1    2    0    0  0.32621259658E+02 -0.24420322265E+02  0.11393255119E+03  0.17404281583E+03  0.12509906795E+03 0.  0.
          5    1    3    3  502    0  0.33990775217E+02  0.13255657410E+02 -0.14983684606E+02  0.39661927054E+02  0.41800000000E+01 0. -1.
         -5    1    3    3    0  502 -0.13695155593E+01 -0.37675979675E+02  0.12891623579E+03  0.13438088878E+03  0.41800000000E+01 0. -1.
        -11    1    1    2    0    0 -0.52149537361E+01 -0.24613501630E+02  0.17236292952E+02  0.30497704826E+02  0.00000000000E+00 0.  1.
         11    1    1    2    0    0 -0.27406305922E+02  0.49033823895E+02 -0.47431520809E+02  0.73519865725E+02  0.00000000000E+00 0. -1.
</event>
<event>
 7    1  0.2641580E-009  0.1140621E+03  0.7561462E-02  0.1253227E+00
         -2   -1    0    0    0  501 -0.00000000000E+00  0.00000000000E+00  0.45011613021E+02  0.45011613021E+02  0.00000000000E+00 0. -1.
          2   -1    0    0  501    0  0.00000000000E+00 -0.00000000000E+00 -0.44211726588E+03  0.44211726588E+03  0.00000000000E+00 0.  1.
         25    2    1    2    0    0  0.62600375485E+02 -0.55871516768E+02 -0.16177323534E+03  0.22101638866E+03  0.12504891438E+03 0.  0.
          5    1    3    3  502    0  0.48452922847E+02  0.27010734462E+01 -0.15227128839E+03  0.15987182115E+03  0.41800000000E+01 0. -1.
         -5    1    3    3    0  502  0.14147452638E+02 -0.58572590214E+02 -0.95019469528E+01  0.61144567513E+02  0.41800000000E+01 0. -1.
        -11    1    1    2    0    0 -0.68112840709E+02  0.73699250173E+02 -0.22054355363E+03  0.24230228557E+03  0.00000000000E+00 0. -1.
         11    1    1    2    0    0  0.55124652237E+01 -0.17827733405E+02 -0.14788863889E+02  0.23810204668E+02  0.00000000000E+00 0.  1.
</event>
<event>
 7    1  0.2641580E-009  0.1322834E+03  0.7561462E-02  0.1224106E+00
         -2   -1    0    0    0  501 -0.00000000000E+00  0.00000000000E+00  0.24354422792E+02  0.24354422792E+02  0.00000000000E+00 0.  1.
          2   -1    0    0  501    0  0.00000000000E+00 -0.00000000000E+00 -0.81768268803E+03  0.81768268803E+03  0.00000000000E+00 0. -1.
         25    2    1    2    0    0  0.57341723754E+02 -0.65034111634E+02 -0.36146451519E+03  0.39220109661E+03  0.12509034928E+03 0.  0.
          5    1    3    3  502    0  0.73351081095E+02 -0.85985478205E+02 -0.33880660506E+03  0.35718520629E+03  0.41800000000E+01 0.  1.
         -5    1    3    3    0  502 -0.16009357341E+02  0.20951366571E+02 -0.22657910129E+02  0.35015890322E+02  0.41800000000E+01 0.  1.
        -11    1    1    2    0    0 -0.70974263832E+02  0.78348065115E+02 -0.38489555955E+03  0.39914954240E+03  0.00000000000E+00 0. -1.
         11    1    1    2    0    0  0.13632540078E+02 -0.13313953480E+02 -0.46968190503E+02  0.50686471818E+02  0.00000000000E+00 0.  1.
</event>
<event>
 7    1  0.2641580E-009  0.2395017E+03  0.7561462E-02  0.1120125E+00
          1   -1    0    0  501    0  0.00000000000E+00  0.00000000000E+00  0.69429151358E+03  0.69429151358E+03  0.00000000000E+00 0. -1.
         -1   -1    0    0    0  501 -0.00000000000E+00 -0.00000000000E+00 -0.98391528092E+02  0.98391528092E+02  0.00000000000E+00 0.  1.
         25    2    1    2    0    0 -0.18675221883E+03  0.12415887420E+03  0.18836320134E+03  0.31846148743E+03  0.12508079817E+03 0.  0.
          5    1    3    3  502    0 -0.95631682534E+02  0.10816523349E+03  0.51774067022E+02  0.15343781430E+03  0.41800000000E+01 0.  1.
         -5    1    3    3    0  502 -0.91120536298E+02  0.15993640712E+02  0.13658913432E+03  0.16502367313E+03  0.41800000000E+01 0.  1.
        -11    1    1    2    0    0  0.13970876722E+03 -0.39633526992E+02  0.25977995331E+03  0.29761549060E+03  0.00000000000E+00 0. -1.
         11    1    1    2    0    0  0.47043451616E+02 -0.84525347208E+02  0.14775683083E+03  0.17660606365E+03  0.00000000000E+00 0.  1.
</event>
<event>
 7    1  0.3238786E-009  0.9042014E+02  0.7561462E-02  0.1301837E+00
          1   -1    0    0  501    0  0.00000000000E+00  0.00000000000E+00  0.70611837741E+03  0.70611837741E+03  0.00000000000E+00 0. -1.
         -1   -1    0    0    0  501 -0.00000000000E+00 -0.00000000000E+00 -0.36455854143E+02  0.36455854143E+02  0.00000000000E+00 0.  1.
         25    2    1    2    0    0 -0.55499424186E+02 -0.69172893646E+02  0.53822751255E+03  0.55964407875E+03  0.12509022470E+03 0.  0.
          5    1    3    3  502    0 -0.39123074112E+02 -0.59477766116E+02  0.53519437995E+03  0.53992473208E+03  0.41800000000E+01 0. -1.
         -5    1    3    3    0  502 -0.16376350074E+02 -0.96951275300E+01  0.30331326038E+01  0.19719346667E+02  0.41800000000E+01 0. -1.
        -11    1    1    2    0    0  0.32659577931E+02  0.52242124313E+02  0.14023198341E+03  0.15316950335E+03  0.00000000000E+00 0. -1.
         11    1    1    2    0    0  0.22839846255E+02  0.16930769332E+02 -0.87969727004E+01  0.29760649452E+02  0.00000000000E+00 0.  1.
</event>
<event>
 7    1  0.2641580E-009  0.1164050E+03  0.7561462E-02  0.1249148E+00
         -1   -1    0    0    0  501 -0.00000000000E+00  0.00000000000E+00  0.10516619853E+02  0.10516619853E+02  0.00000000000E+00 0.  1.
          1   -1    0    0  501    0  0.00000000000E+00 -0.00000000000E+00 -0.20440155537E+04  0.20440155537E+04  0.00000000000E+00 0. -1.
         25    2    1    2    0    0 -0.17991451309E+02  0.67094118242E+02 -0.15745387548E+04  0.15810266757E+04  0.12509094961E+03 0.  0.
          5    1    3    3  502    0 -0.51261018436E+02  0.10830848091E+02 -0.28371649161E+03  0.28854379094E+03  0.41800000000E+01 0. -1.
         -5    1    3    3    0  502  0.33269567127E+02  0.56263270151E+02 -0.12908222632E+04  0.12924828847E+04  0.41800000000E+01 0. -1.
        -11    1    1    2    0    0 -0.27209498821E+02 -0.63885754003E+02 -0.23680950418E+03  0.24678024163E+03  0.00000000000E+00 0.  1.
         11    1    1    2    0    0  0.45200950131E+02 -0.32083642392E+01 -0.22215067480E+03  0.22672525622E+03  0.00000000000E+00 0. -1.
</event>
<event>
 7    1  0.2641580E-009  0.1011545E+03  0.7561462E-02  0.1277887E+00
         -2   -1    0    0    0  501 -0.00000000000E+00  0.00000000000E+00  0.49553655128E+03  0.49553655128E+03  0.00000000000E+00 0. -1.
          2   -1    0    0  501    0  0.00000000000E+00 -0.00000000000E+00 -0.26170247184E+02  0.26170247184E+02  0.00000000000E+00 0.  1.
         25    2    1    2    0    0 -0.42636512611E+02  0.12192905947E+02  0.20328527889E+03  0.24277597370E+03  0.12509488251E+03 0.  0.
          5    1    3    3  502    0 -0.53495051887E+02 -0.39470839607E+02  0.16346937678E+03  0.17652018950E+03  0.41800000000E+01 0.  1.
         -5    1    3    3    0  502  0.10858539276E+02  0.51663745554E+02  0.39815902115E+02  0.66255784208E+02  0.41800000000E+01 0.  1.
        -11    1    1    2    0    0 -0.12724317414E+02 -0.23045463715E+02  0.66231342432E+02  0.71271259086E+02  0.00000000000E+00 0. -1.
         11    1    1    2    0    0  0.55360830025E+02  0.10852557768E+02  0.19984968277E+03  0.20765956567E+03  0.00000000000E+00 0.  1.
</event>
<event>
 7    1  0.2641580E-009  0.8564995E+02  0.7561462E-02  0.1313742E+00
         -1   -1    0    0    0  501 -0.00000000000E+00  0.00000000000E+00  0.17132484713E+03  0.17132484713E+03  0.00000000000E+00 0.  1.
          1   -1    0    0  501    0  0.00000000000E+00 -0.00000000000E+00 -0.70000049855E+02  0.70000049855E+02  0.00000000000E+00 0. -1.
         25    2    1    2    0    0  0.19422250618E+02  0.15714620693E+02  0.96331874025E+02  0.15984888106E+03  0.12509061396E+03 0.  0.
          5    1    3    3  502    0  0.64785318226E+02  0.13294469204E+02  0.17125566271E+02  0.68444413864E+02  0.41800000000E+01 0. -1.
         -5    1    3    3    0  502 -0.45363067608E+02  0.24201514889E+01  0.79206307754E+02  0.91404467199E+02  0.41800000000E+01 0. -1.
        -11    1    1    2    0    0  0.86325499483E+01 -0.27619365716E+02  0.30273834200E+02  0.41879055843E+02  0.00000000000E+00 0.  1.
         11    1    1    2    0    0 -0.28054800567E+02  0.11904745023E+02 -0.25280910951E+02  0.39596960078E+02  0.00000000000E+00 0. -1.
</event>
<event>
 7    1  0.2641580E-009  0.1535284E+03  0.7561462E-02  0.1196203E+00
         -3   -1    0    0    0  501 -0.00000000000E+00  0.00000000000E+00  0.10630512483E+04  0.10630512483E+04  0.00000000000E+00 0.  1.
          3   -1    0    0  501    0  0.00000000000E+00 -0.00000000000E+00 -0.28839200349E+02  0.28839200349E+02  0.00000000000E+00 0. -1.
         25    2    1    2    0    0 -0.99391209619E+02 -0.81908445775E+02  0.39768757190E+03  0.43633869922E+03  0.12509376304E+03 0.  0.
          5    1    3    3  502    0 -0.63151491513E+02 -0.98782276764E+02  0.17921611361E+03  0.21420069295E+03  0.41800000000E+01 0.  1.
         -5    1    3    3    0  502 -0.36239718106E+02  0.16873830989E+02  0.21847145829E+03  0.22213800627E+03  0.41800000000E+01 0.  1.
        -11    1    1    2    0    0  0.11191288779E+03  0.78053710989E+02  0.61787044874E+03  0.63275648371E+03  0.00000000000E+00 0.  1.
         11    1    1    2    0    0 -0.12521678174E+02  0.38547347858E+01  0.18654027337E+02  0.22795265746E+02  0.00000000000E+00 0. -1.
</event>
<event>
 7    1  0.2641580E-009  0.1100167E+03  0.7561462E-02  0.1260539E+00
          2   -1    0    0  501    0  0.00000000000E+00  0.00000000000E+00  0.41148852694E+03  0.41148852694E+03  0.00000000000E+00 0. -1.
         -2   -1    0    0    0  501 -0.00000000000E+00 -0.00000000000E+00 -0.34366617726E+02  0.34366617726E+02  0.00000000000E+00 0.  1.
         25    2    1    2    0    0  0.19392215953E+01 -0.23140363393E+02  0.13641455273E+03  0.18653665384E+03  0.12509099100E+03 0.  0.
          5    1    3    3  502    0  0.70368225336E+01 -0.74730874777E+02  0.78313108521E+02  0.10855706279E+03  0.41800000000E+01 0. -1.
         -5    1    3    3    0  502 -0.50976009383E+01  0.51590511385E+02  0.58101444208E+02  0.77979591044E+02  0.41800000000E+01 0. -1.
        -11    1    1    2    0    0 -0.21084232613E+02  0.53189469476E+02  0.18057714021E+03  0.18942483495E+03  0.00000000000E+00 0. -1.
         11    1    1    2    0    0  0.19145011018E+02 -0.30049106083E+02  0.60130216270E+02  0.69893655878E+02  0.00000000000E+00 0.  1.
</event>
<event>
 7    1  0.2641580E-009  0.9704740E+02  0.7561462E-02  0.1286630E+00
         -2   -1    0    0    0  501 -0.00000000000E+00  0.00000000000E+00  0.18384795320E+02  0.18384795320E+02  0.00000000000E+00 0. -1.
          2   -1    0    0  501    0  0.00000000000E+00 -0.00000000000E+00 -0.71753637051E+03  0.71753637051E+03  0.00000000000E+00 0.  1.
         25    2    1    2    0    0  0.27961049026E+02  0.22308596867E+02 -0.42656112340E+03  0.44596003347E+03  0.12508583334E+03 0.  0.
          5    1    3    3  502    0  0.40035318303E+00  0.56764346341E+02 -0.36873945062E+03  0.37310669539E+03  0.41800000000E+01 0.  1.
         -5    1    3    3    0  502  0.27560695843E+02 -0.34455749474E+02 -0.57821672774E+02  0.72853338081E+02  0.41800000000E+01 0.  1.
        -11    1    1    2    0    0 -0.21616662383E+02 -0.55239700042E+02 -0.21769588334E+03  0.22563289250E+03  0.00000000000E+00 0.  1.
         11    1    1    2    0    0 -0.63443866430E+01  0.32931103175E+02 -0.54894568448E+02  0.64328239859E+02  0.00000000000E+00 0. -1.
</event>
<event>
 7    1  0.2641580E-009  0.1252644E+03  0.7561462E-02  0.1234657E+00
          2   -1    0    0  501    0  0.00000000000E+00  0.00000000000E+00  0.79400677382E+03  0.79400677382E+03  0.00000000000E+00 0. -1.
         -2   -1    0    0    0  501 -0.00000000000E+00 -0.00000000000E+00 -0.32337043444E+02  0.32337043444E+02  0.00000000000E+00 0.  1.
         25    2    1    2    0    0 -0.84488611987E+02 -0.82838672584E+02  0.31489075043E+03  0.35889259487E+03  0.12508852352E+03 0.  0.
          5    1    3    3  502    0 -0.36210744134E+02 -0.28814426350E+02  0.12783952024E+02  0.48191191996E+02  0.41800000000E+01 0. -1.
         -5    1    3    3    0  502 -0.48277867854E+02 -0.54024246234E+02  0.30210679841E+03  0.31070140288E+03  0.41800000000E+01 0. -1.
        -11    1    1    2    0    0  0.72655906599E+02  0.32170308784E+02  0.33284965331E+03  0.34220271951E+03  0.00000000000E+00 0. -1.
         11    1    1    2    0    0  0.11832705389E+02  0.50668363799E+02  0.11392932663E+03  0.12524850288E+03  0.00000000000E+00 0.  1.
</event>
<event>
 7    1  0.2641580E-009  0.1322572E+03  0.7561462E-02  0.1224144E+00
          1   -1    0    0  501    0  0.00000000000E+00  0.00000000000E+00  0.22070427576E+03  0.22070427576E+03  0.00000000000E+00 0. -1.
         -1   -1    0    0    0  501 -0.00000000000E+00 -0.00000000000E+00 -0.28000723953E+03  0.28000723953E+03  0.00000000000E+00 0.  1.
         25    2    1    2    0    0 -0.58503294940E+02  0.65113409117E+02  0.17542229957E+03  0.23255664140E+03  0.12508883527E+03 0.  0.
          5    1    3    3  502    0  0.23261577963E+02 -0.82113301871E+01 -0.61421149756E+00  0.25027517027E+02  0.41800000000E+01 0.  1.
         -5    1    3    3    0  502 -0.81764872904E+02  0.73324739304E+02  0.17603651107E+03  0.20752912437E+03  0.41800000000E+01 0.  1.
        -11    1    1    2    0    0  0.24358566227E+02 -0.86119975968E+02 -0.16613245206E+03  0.18870607207E+03  0.00000000000E+00 0.  1.
         11    1    1    2    0    0  0.34144728714E+02  0.21006566852E+02 -0.68592811279E+02  0.79448801810E+02  0.00000000000E+00 0. -1.
</event>
<event>
 7    1  0.2641580E-009  0.1259687E+03  0.7561462E-02  0.1233563E+00
          1   -1    0    0  501    0  0.00000000000E+00  0.00000000000E+00  0.39978317257E+03  0.39978317257E+03  0.00000000000E+00 0. -1.
         -1   -1    0    0    0  501 -0.00000000000E+00 -0.00000000000E+00 -0.78379860292E+02  0.78379860292E+02  0.00000000000E+00 0.  1.
         25    2    1    2    0    0 -0.39405012412E+02 -0.92745888123E+02  0.39741536955E+02  0.16547149685E+03  0.12508745637E+03 0.  0.
          5    1    3    3  502    0  0.24203871440E+02 -0.32025150498E+02 -0.32317179033E+02  0.51704062875E+02  0.41800000000E+01 0. -1.
         -5    1    3    3    0  502 -0.63608883852E+02 -0.60720737625E+02  0.72058715988E+02  0.11376743397E+03  0.41800000000E+01 0. -1.
        -11    1    1    2    0    0 -0.98160383222E+01 -0.71719189944E+01  0.28958714410E+01  0.12497083732E+02  0.00000000000E+00 0.  1.
         11    1    1    2    0    0  0.49221050734E+02  0.99917807117E+02  0.27876590388E+03  0.30019445228E+03  0.00000000000E+00 0. -1.
</event>
<event>
 7    1  0.2641580E-009  0.5856065E+02  0.7561462E-02  0.1403973E+00
         -2   -1    0    0    0  501 -0.00000000000E+00  0.00000000000E+00  0.50772469746E+03  0.50772469746E+03  0.00000000000E+00 0.  1.
          2   -1    0    0  501    0  0.00000000000E+00 -0.00000000000E+00 -0.29241130542E+02  0.29241130542E+02  0.00000000000E+00 0. -1.
         25    2    1    2    0    0  0.49569552543E+02  0.21698537944E+02  0.28483320996E+03  0.31576510479E+03  0.12509866833E+03 0.  0.
          5    1    3    3  502    0  0.48071067088E+02  0.27440531919E+02  0.34564246770E+02  0.65390900268E+02  0.41800000000E+01 0.  1.
         -5    1    3    3    0  502  0.14984854546E+01 -0.57419939753E+01  0.25026896319E+03  0.25037420452E+03  0.41800000000E+01 0.  1.
        -11    1    1    2    0    0 -0.34258686607E+02 -0.17539947340E+02  0.20032466980E+03  0.20398843274E+03  0.00000000000E+00 0.  1.
         11    1    1    2    0    0 -0.15310865936E+02 -0.41585906043E+01 -0.66743128413E+01  0.17212290476E+02  0.00000000000E+00 0. -1.
</event>
<event>
 7    1  0.2641580E-009  0.1565199E+03  0.7561462E-02  0.1192683E+00
         -1   -1    0    0    0  501 -0.00000000000E+00  0.00000000000E+00  0.14800288446E+03  0.14800288446E+03  0.00000000000E+00 0.  1.
          1   -1    0    0  501    0  0.00000000000E+00 -0.00000000000E+00 -0.24162730043E+03  0.24162730043E+03  0.00000000000E+00 0. -1.
         25    2    1    2    0    0 -0.71343408208E+02  0.13520594687E+03 -0.71267587152E+02  0.20998830693E+03  0.12508193356E+03 0.  0.
          5    1    3    3  502    0 -0.65474435781E+01  0.44382407756E+02  0.34073547597E+02  0.56490230850E+02  0.41800000000E+01 0. -1.
         -5    1    3    3    0  502 -0.64795964630E+02  0.90823539117E+02 -0.10534113475E+03  0.15349807608E+03  0.41800000000E+01 0. -1.
        -11    1    1    2    0    0  0.26362917837E+02 -0.84683006169E+02 -0.55178275382E+02  0.10445504796E+03  0.00000000000E+00 0. -1.
         11    1    1    2    0    0  0.44980490371E+02 -0.50522940704E+02  0.32821446560E+02  0.75186830001E+02  0.00000000000E+00 0.  1.
</event>
<event>
 7    1  0.2641580E-009  0.1523861E+03  0.7561462E-02  0.1197571E+00
          2   -1    0    0  501    0  0.00000000000E+00  0.00000000000E+00  0.62362481159E+03  0.62362481159E+03  0.00000000000E+00 0. -1.
         -2   -1    0    0    0  501 -0.00000000000E+00 -0.00000000000E+00 -0.45981828226E+02  0.45981828226E+02  0.00000000000E+00 0.  1.
         25    2    1    2    0    0 -0.77039683625E+02 -0.98955792906E+02  0.37787487649E+03  0.41734014454E+03  0.12512398715E+03 0.  0.
          5    1    3    3  502    0 -0.86734442729E+02 -0.48601941305E+02  0.12751420872E+03  0.16174782249E+03  0.41800000000E+01 0. -1.
         -5    1    3    3    0  502  0.96947591046E+01 -0.50353851602E+02  0.25036066777E+03  0.25559232205E+03  0.41800000000E+01 0. -1.
        -11    1    1    2    0    0 -0.19923329696E+02  0.24392873464E+02  0.46731988228E+02  0.56354503509E+02  0.00000000000E+00 0. -1.
         11    1    1    2    0    0  0.96963013321E+02  0.74562919442E+02  0.15303611865E+03  0.19591199177E+03  0.00000000000E+00 0.  1.
</event>
<event>
 7    1  0.2641580E-009  0.1527669E+03  0.7561462E-02  0.1197114E+00
          2   -1    0    0  501    0  0.00000000000E+00  0.00000000000E+00  0.30651538357E+03  0.30651538357E+03  0.00000000000E+00 0. -1.
         -2   -1    0    0    0  501 -0.00000000000E+00 -0.00000000000E+00 -0.95963308292E+02  0.95963308292E+02  0.00000000000E+00 0.  1.
         25    2    1    2    0    0  0.10444380842E+03  0.43436468140E+02  0.32086722562E+02  0.17167124052E+03  0.12508485589E+03 0.  0.
          5    1    3    3  502    0 -0.72017794033E+01 -0.26579270189E+02  0.28386744337E+02  0.39769371184E+02  0.41800000000E+01 0.  1.
         -5    1    3    3    0  502  0.11164558782E+03  0.70015738328E+02  0.36999782244E+01  0.13190186933E+03  0.41800000000E+01 0.  1.
        -11    1    1    2    0    0 -0.11041945245E+03 -0.61787476188E+02  0.16106495932E+03  0.20482204182E+03  0.00000000000E+00 0. -1.
         11    1    1    2    0    0  0.59756440333E+01  0.18351008049E+02  0.17400393404E+02  0.25985409533E+02  0.00000000000E+00 0.  1.
</event>
<event>
 7    1  0.2641580E-009  0.1662921E+03  0.7561462E-02  0.1181771E+00
         -2   -1    0    0    0  501 -0.00000000000E+00  0.00000000000E+00  0.48325987754E+02  0.48325987754E+02  0.00000000000E+00 0.  1.
          2   -1    0    0  501    0  0.00000000000E+00 -0.00000000000E+00 -0.67695944454E+03  0.67695944454E+03  0.00000000000E+00 0. -1.
         25    2    1    2    0    0 -0.62019536563E+02  0.12303522976E+03 -0.24386968812E+03  0.30676404116E+03  0.12509061311E+03 0.  0.
          5    1    3    3  502    0 -0.42985379484E+02 -0.11425071921E+02 -0.96398512054E+02  0.10624697946E+03  0.41800000000E+01 0. -1.
         -5    1    3    3    0  502 -0.19034157079E+02  0.13446030168E+03 -0.14747117606E+03  0.20051706170E+03  0.41800000000E+01 0. -1.
        -11    1    1    2    0    0  0.14890211103E+02 -0.97131782632E+02 -0.31774465914E+03  0.33259279907E+03  0.00000000000E+00 0. -1.
         11    1    1    2    0    0  0.47129325460E+02 -0.25903447129E+02 -0.67019109536E+02  0.85928592066E+02  0.00000000000E+00 0.  1.
</event>
<event>
 7    1  0.2641580E-009  0.1169556E+03  0.7561462E-02  0.1248206E+00
          2   -1    0    0  501    0  0.00000000000E+00  0.00000000000E+00  0.82280335695E+03  0.82280335695E+03  0.00000000000E+00 0. -1.
         -2   -1    0    0    0  501 -0.00000000000E+00 -0.00000000000E+00 -0.18863122894E+02  0.18863122894E+02  0.00000000000E+00 0.  1.
         25    2    1    2    0    0  0.49281134260E+02  0.18790989406E+01  0.32168224277E+03  0.34865376612E+03  0.12509125511E+03 0.  0.
          5    1    3    3  502    0 -0.37984246336E+02  0.18706529851E+02  0.72476046395E+02  0.84041578578E+02  0.41800000000E+01 0.  1.
         -5    1    3    3    0  502  0.87265380596E+02 -0.16827430910E+02  0.24920619638E+03  0.26461218754E+03  0.41800000000E+01 0.  1.
        -11    1    1    2    0    0  0.18121984916E+02 -0.25226694691E+02  0.15095629578E+03  0.15411877140E+03  0.00000000000E+00 0.  1.
         11    1    1    2    0    0 -0.67403119176E+02  0.23347595750E+02  0.33130169551E+03  0.33889394233E+03  0.00000000000E+00 0. -1.
</event>
<event>
 7    1  0.2641580E-009  0.1735939E+03  0.7561462E-02  0.1174151E+00
         -3   -1    0    0    0  501 -0.00000000000E+00  0.00000000000E+00  0.66607024642E+02  0.66607024642E+02  0.00000000000E+00 0.  1.
          3   -1    0    0  501    0  0.00000000000E+00 -0.00000000000E+00 -0.45748503724E+03  0.45748503724E+03  0.00000000000E+00 0. -1.
         25    2    1    2    0    0 -0.10876857442E+03  0.81279030336E+02 -0.22949743236E+03  0.29454147081E+03  0.12509485607E+03 0.  0.
          5    1    3    3  502    0 -0.10841579051E+03  0.11035814492E+03 -0.20029114893E+03  0.25311444155E+03  0.41800000000E+01 0.  1.
         -5    1    3    3    0  502 -0.35278390994E+00 -0.29079114588E+02 -0.29206283432E+02  0.41427029264E+02  0.41800000000E+01 0.  1.
        -11    1    1    2    0    0  0.10992619222E+03 -0.33023920034E+02 -0.11869981899E+03  0.16511812153E+03  0.00000000000E+00 0.  1.
         11    1    1    2    0    0 -0.11576178020E+01 -0.48255110302E+02 -0.42680761257E+02  0.64432469537E+02  0.00000000000E+00 0. -1.
</event>
<event>
 6    1  0.2641580E-009  0.1159616E+03  0.7561462E-02  0.1249912E+00
         -1   -1    0    0    0  501 -0.00000000000E+00  0.00000000000E+00  0.92538451691E+02  0.92538451691E+02  0.00000000000E+00 0.  1.
          1   -1    0    0  501    0  0.00000000000E+00 -0.00000000000E+00 -0.17665611174E+03  0.17665611174E+03  0.00000000000E+00 0. -1.
          5    1    1    2  502    0  0.34125599224E+02 -0.28141539096E+02 -0.89529880094E+01  0.45322523533E+02  0.41800000000E+01 0.  1.
         -5    1    1    2    0  502 -0.53757482608E+02  0.67145546275E+02  0.14677257906E+02  0.87357229927E+02  0.41800000000E+01 0.  1.
        -11    1    1    2    0    0  0.51397455967E+02 -0.41802409338E+00 -0.56784744030E+02  0.76592299734E+02  0.00000000000E+00 0. -1.
         11    1    1    2    0    0 -0.31765572583E+02 -0.38585983085E+02 -0.33057185913E+02  0.59922510233E+02  0.00000000000E+00 0.  1.
</event>
<event>
 7    1  0.2641580E-009  0.1134664E+03  0.7561462E-02  0.1254282E+00
         -3   -1    0    0    0  501 -0.00000000000E+00  0.00000000000E+00  0.17327069090E+03  0.17327069090E+03  0.00000000000E+00 0.  1.
          3   -1    0    0  501    0  0.00000000000E+00 -0.00000000000E+00 -0.10718410464E+03  0.10718410464E+03  0.00000000000E+00 0. -1.
         25    2    1    2    0    0 -0.14841843658E+02 -0.79195962054E+02  0.26124663811E+02  0.15107027966E+03  0.12508977020E+03 0.  0.
          5    1    3    3  502    0  0.23918883811E+02 -0.83441526179E+02 -0.21356304923E+02  0.89488353733E+02  0.41800000000E+01 0. -1.
         -5    1    3    3    0  502 -0.38760727469E+02  0.42455641245E+01  0.47480968734E+02  0.61581925925E+02  0.41800000000E+01 0. -1.
        -11    1    1    2    0    0 -0.23361572797E+01  0.83153462053E+02 -0.26937377432E+01  0.83229875077E+02  0.00000000000E+00 0. -1.
         11    1    1    2    0    0  0.17178000937E+02 -0.39574999988E+01  0.42655660192E+02  0.46154640816E+02  0.00000000000E+00 0.  1.
</event>
<event>
 7    1  0.2641580E-009  0.9198583E+02  0.7561462E-02  0.1298113E+00
          1   -1    0    0  501    0  0.00000000000E+00  0.00000000000E+00  0.36776187828E+02  0.36776187828E+02  0.00000000000E+00 0. -1.
         -1   -1    0    0    0  501 -0.00000000000E+00 -0.00000000000E+00 -0.43927106710E+03  0.43927106710E+03  0.00000000000E+00 0.  1.
         25    2    1    2    0    0  0.16290600224E+02  0.33250714225E+02 -0.32623725815E+03  0.35134958879E+03  0.12507914009E+03 0.  0.
          5    1    3    3  502    0  0.64130786812E+02  0.41401923670E+02 -0.24477458567E+03  0.25643507422E+03  0.41800000000E+01 0. -1.
         -5    1    3    3    0  502 -0.47840186588E+02 -0.81512094452E+01 -0.81462672476E+02  0.94914514566E+02  0.41800000000E+01 0. -1.
        -11    1    1    2    0    0 -0.23566606726E+02 -0.41555417541E+02 -0.93052061035E+02  0.10459887066E+03  0.00000000000E+00 0.  1.
         11    1    1    2    0    0  0.72760065027E+01  0.83047033162E+01  0.16794439914E+02  0.20098795482E+02  0.00000000000E+00 0. -1.
</event>
<event>
 7    1  0.2641580E-009  0.1155314E+03  0.7561462E-02  0.1250656E+00
         -4   -1    0    0    0  501 -0.00000000000E+00  0.00000000000E+00  0.71836200795E+02  0.71836200795E+02  0.00000000000E+00 0.  1.
          4   -1    0    0  501    0  0.00000000000E+00 -0.00000000000E+00 -0.30341935760E+03  0.30341935760E+03  0.00000000000E+00 0. -1.
         25    2    1    2    0    0 -0.49221630788E+02 -0.74779794854E+02 -0.10063592111E+03  0.18381950924E+03  0.12508891519E+03 0.  0.
          5    1    3    3  502    0 -0.56973940907E+01 -0.47561638138E+02  0.20437300738E+02  0.52246773903E+02  0.41800000000E+01 0. -1.
         -5    1    3    3    0  502 -0.43524236698E+02 -0.27218156716E+02 -0.12107322185E+03  0.13157273534E+03  0.41800000000E+01 0. -1.
        -11    1    1    2    0    0 -0.15723356946E+02  0.63675059304E+02 -0.33082852571E+02  0.73458915492E+02  0.00000000000E+00 0. -1.
         11    1    1    2    0    0  0.64944987734E+02  0.11104735550E+02 -0.97864383124E+02  0.11797713366E+03  0.00000000000E+00 0.  1.
</event>
<event>
 7    1  0.2641580E-009  0.7838106E+02  0.7561462E-02  0.1333710E+00
         -1   -1    0    0    0  501 -0.00000000000E+00  0.00000000000E+00  0.59045542550E+02  0.59045542550E+02  0.00000000000E+00 0.  1.
          1   -1    0    0  501    0  0.00000000000E+00 -0.00000000000E+00 -0.22048348192E+03  0.22048348192E+03  0.00000000000E+00 0. -1.
         25    2    1    2    0    0 -0.28205343393E+02 -0.22143394657E+02 -0.93446668340E+02  0.16020341333E+03  0.12508789908E+03 0.  0.
          5    1    3    3  502    0  0.40449891174E+02 -0.24715844568E+02 -0.45926589412E+01  0.47808279459E+02  0.41800000000E+01 0.  1.
         -5    1    3    3    0  502 -0.68655234567E+02  0.25724499105E+01 -0.88854009399E+02  0.11239513387E+03  0.41800000000E+01 0.  1.
        -11    1    1    2    0    0  0.27409450487E+01  0.13003891261E+02  0.21808564062E+02  0.25538743785E+02  0.00000000000E+00 0.  1.
         11    1    1    2    0    0  0.25464398345E+02  0.91395033961E+01 -0.89799835093E+02  0.93786867355E+02  0.00000000000E+00 0. -1.
</event>
<event>
 7    1  0.2641580E-009  0.1307835E+03  0.7561462E-02  0.1226298E+00
          1   -1    0    0  501    0  0.00000000000E+00  0.00000000000E+00  0.78374231363E+03  0.78374231363E+03  0.00000000000E+00 0. -1.
         -1   -1    0    0    0  501 -0.00000000000E+00 -0.00000000000E+00 -0.22189840056E+02  0.22189840056E+02  0.00000000000E+00 0.  1.
         25    2    1    2    0    0 -0.63110548697E+02  0.37193325347E+02  0.38842891258E+03  0.41459750922E+03  0.12509112564E+03 0.  0.
          5    1    3    3  502    0 -0.65596114509E+02  0.78353512656E+02  0.25041181839E+03  0.27049154215E+03  0.41800000000E+01 0. -1.
         -5    1    3    3    0  502  0.24855658120E+01 -0.41160187308E+02  0.13801709419E+03  0.14410596707E+03  0.41800000000E+01 0. -1.
        -11    1    1    2    0    0  0.76059536754E+02  0.24955562733E+01  0.24998055831E+03  0.26130740607E+03  0.00000000000E+00 0.  1.
         11    1    1    2    0    0 -0.12948988057E+02 -0.39688881621E+02  0.12314300268E+03  0.13002723840E+03  0.00000000000E+00 0. -1.
</event>
<event>
 7    1  0.2641580E-009  0.1315464E+03  0.7561462E-02  0.1225179E+00
         -2   -1    0    0    0  501 -0.00000000000E+00  0.00000000000E+00  0.28575883608E+02  0.28575883608E+02  0.00000000000E+00 0.  1.
          2   -1    0    0  501    0  0.00000000000E+00 -0.00000000000E+00 -0.11366477213E+04  0.11366477213E+04  0.00000000000E+00 0. -1.
         25    2    1    2    0    0 -0.46606872661E+02  0.79295819683E+02 -0.94235878875E+03  0.95506417393E+03  0.12508981571E+03 0.  0.
          5    1    3    3  502    0 -0.49617028283E+02 -0.89026588752E+01 -0.57543220131E+03  0.57765110364E+03  0.41800000000E+01 0.  1.
         -5    1    3    3    0  502  0.30101556222E+01  0.88198478558E+02 -0.36692658744E+03  0.37741307029E+03  0.41800000000E+01 0.  1.
        -11    1    1    2    0    0  0.32678756320E+02  0.96957282877E+01 -0.22060845377E+02  0.40602822074E+02  0.00000000000E+00 0.  1.
         11    1    1    2    0    0  0.13928116341E+02 -0.88991547971E+02 -0.14365220359E+03  0.16955660893E+03  0.00000000000E+00 0. -1.
</event>
<event>
 7    1  0.2641580E-009  0.2170628E+03  0.7561462E-02  0.1136092E+00
         -1   -1    0    0    0  501 -0.00000000000E+00  0.00000000000E+00  0.31415218569E+02  0.31415218569E+02  0.00000000000E+00 0.  1.
          1   -1    0    0  501    0  0.00000000000E+00 -0.00000000000E+00 -0.16518540824E+04  0.16518540824E+04  0.00000000000E+00 0. -1.
         25    2    1    2    0    0 -0.95469508394E+02 -0.17072272624E+03 -0.97861152549E+03  0.10057785749E+04  0.12509735269E+03 0.  0.
          5    1    3    3  502    0 -0.11847813644E+03 -0.15981700115E+03 -0.75878782746E+03  0.78444565278E+03  0.41800000000E+01 0. -1.
         -5    1    3    3    0  502  0.23008628044E+02 -0.10905725095E+02 -0.21982369803E+03  0.22133292214E+03  0.41800000000E+01 0. -1.
        -11    1    1    2    0    0  0.53514625230E+02  0.27646124332E+02 -0.11306538721E+03  0.12810895788E+03  0.00000000000E+00 0.  1.
         11    1    1    2    0    0  0.41954883163E+02  0.14307660191E+03 -0.52876195111E+03  0.54938176815E+03  0.00000000000E+00 0. -1.
</event>
<event>
 7    1  0.2641580E-009  0.1124367E+03  0.7561462E-02  0.1256123E+00
          2   -1    0    0  501    0  0.00000000000E+00  0.00000000000E+00  0.10141219930E+04  0.10141219930E+04  0.00000000000E+00 0. -1.
         -2   -1    0    0    0  501 -0.00000000000E+00 -0.00000000000E+00 -0.17671974091E+02  0.17671974091E+02  0.00000000000E+00 0.  1.
         25    2    1    2    0    0 -0.36297791767E+01  0.75963878074E+02  0.49124178792E+03  0.51259024038E+03  0.12508626730E+03 0.  0.
          5    1    3    3  502    0 -0.41962656503E+02  0.55496877787E+02  0.11987213238E+03  0.13866350820E+03  0.41800000000E+01 0.  1.
         -5    1    3    3    0  502  0.38332877326E+02  0.20467000287E+02  0.37136965554E+03  0.37392673218E+03  0.41800000000E+01 0.  1.
        -11    1    1    2    0    0  0.40318568460E+02 -0.21072352913E+02  0.11913334745E+03  0.12752405849E+03  0.00000000000E+00 0.  1.
         11    1    1    2    0    0 -0.36688789283E+02 -0.54891525161E+02  0.38607488352E+03  0.39167966820E+03  0.00000000000E+00 0. -1.
</event>
<event>
 7    1  0.2641580E-009  0.1357222E+03  0.7561462E-02  0.1219204E+00
          1   -1    0    0  501    0  0.00000000000E+00  0.00000000000E+00  0.10212050977E+03  0.10212050977E+03  0.00000000000E+00 0. -1.
         -1   -1    0    0    0  501 -0.00000000000E+00 -0.00000000000E+00 -0.30292559814E+03  0.30292559814E+03  0.00000000000E+00 0.  1.
         25    2    1    2    0    0  0.89602506292E+02  0.29186261664E+01  0.14622971774E+02  0.15458885283E+03  0.12508698814E+03 0.  0.
          5    1    3    3  502    0  0.97921040596E+01  0.51883658209E+02 -0.17071433155E+02  0.55648050469E+02  0.41800000000E+01 0. -1.
         -5    1    3    3    0  502  0.79810402232E+02 -0.48965032042E+02  0.31694404928E+02  0.98940802357E+02  0.41800000000E+01 0. -1.
        -11    1    1    2    0    0 -0.41474237145E+02  0.41923172837E+02 -0.12902915174E+03  0.14186679233E+03  0.00000000000E+00 0.  1.
         11    1    1    2    0    0 -0.48128269146E+02 -0.44841799004E+02 -0.86398908399E+02  0.10859046276E+03  0.00000000000E+00 0. -1.
</event>
<event>
 7    1  0.2641580E-009  0.1278351E+03  0.7561462E-02  0.1230704E+00
          1   -1    0    0  501    0  0.00000000000E+00  0.00000000000E+00  0.51024721169E+03  0.51024721169E+03  0.00000000000E+00 0. -1.
         -1   -1    0    0    0  501 -0.00000000000E+00 -0.00000000000E+00 -0.42807190181E+02  0.42807190181E+02  0.00000000000E+00 0.  1.
         25    2    1    2    0    0  0.74339468643E+02  0.49972511699E+02  0.16864814601E+03  0.22828356620E+03  0.12509029108E+03 0.  0.
          5    1    3    3  502    0  0.24758330937E+02  0.78313121843E+02  0.49236501201E+02  0.95852101981E+02  0.41800000000E+01 0.  1.
         -5    1    3    3    0  502  0.49581137705E+02 -0.28340610144E+02  0.11941164481E+03  0.13243146422E+03  0.41800000000E+01 0.  1.
        -11    1    1    2    0    0 -0.94318986712E+01 -0.50384023339E+02  0.20073953815E+03  0.20718077299E+03  0.00000000000E+00 0. -1.
         11    1    1    2    0    0 -0.64907569971E+02  0.41151163931E+00  0.98052337345E+02  0.11759006268E+03  0.00000000000E+00 0.  1.
</event>
<event>
 7    1  0.2641580E-009  0.1430478E+03  0.7561462E-02  0.1209286E+00
          2   -1    0    0  501    0  0.00000000000E+00  0.00000000000E+00  0.14930579655E+04  0.14930579655E+04  0.00000000000E+00 0. -1.
         -2   -1    0    0    0  501 -0.00000000000E+00 -0.00000000000E+00 -0.19165051055E+02  0.19165051055E+02  0.00000000000E+00 0.  1.
         25    2    1    2    0    0 -0.35539595655E+02 -0.12294499285E+03  0.72674651765E+03  0.74845542260E+03  0.12508590876E+03 0.  0.
          5    1    3    3  502    0 -0.55591533295E+01 -0.26768261230E+02  0.18980733608E+02  0.33543772050E+02  0.41800000000E+01 0. -1.
         -5    1    3    3    0  502 -0.29980442325E+02 -0.96176731624E+02  0.70776578405E+03  0.71491165055E+03  0.41800000000E+01 0. -1.
        -11    1    1    2    0    0  0.63894896255E+02  0.10818303943E+03  0.56113725407E+03  0.57503143018E+03  0.00000000000E+00 0.  1.
         11    1    1    2    0    0 -0.28355300600E+02  0.14761953427E+02  0.18600914270E+03  0.18873616376E+03  0.00000000000E+00 0. -1.
</event>
<event>
 7    1  0.2641580E-009  0.9239092E+02  0.7561462E-02  0.1297163E+00
          2   -1    0    0  501    0  0.00000000000E+00  0.00000000000E+00  0.49299685824E+03  0.49299685824E+03  0.00000000000E+00 0.  1.
         -2   -1    0    0    0  501 -0.00000000000E+00 -0.00000000000E+00 -0.34623855816E+02  0.34623855816E+02  0.00000000000E+00 0. -1.
         25    2    1    2    0    0  0.40381418539E+01 -0.68258170751E+02  0.29294839918E+03  0.32579436709E+03  0.12509084929E+03 0.  0.
          5    1    3    3  502    0  0.45479147985E+01 -0.22555267985E+02 -0.53465439115E+01  0.23989197042E+02  0.41800000000E+01 0.  1.
         -5    1    3    3    0  502 -0.50977294459E+00 -0.45702902765E+02  0.29829494310E+03  0.30180517005E+03  0.41800000000E+01 0.  1.
        -11    1    1    2    0    0 -0.43240287551E+02  0.85583370772E+01  0.58652323866E+02  0.73369358018E+02  0.00000000000E+00 0.  1.
         11    1    1    2    0    0  0.39202145697E+02  0.59699833673E+02  0.10677227938E+03  0.12845698896E+03  0.00000000000E+00 0. -1.
</event>
<event>
 7    1  0.2863174E-009  0.1489329E+03  0.7561462E-02  0.1201790E+00
          2   -1    0    0  501    0  0.00000000000E+00  0.00000000000E+00  0.86779303218E+02  0.86779303218E+02  0.00000000000E+00 0. -1.
         -2   -1    0    0    0  501 -0.00000000000E+00 -0.00000000000E+00 -0.29239598602E+03  0.29239598602E+03  0.00000000000E+00 0.  1.
         25    2    1    2    0    0 -0.38691807013E+00  0.11065322844E+03 -0.15174125363E+03  0.22564983099E+03  0.12509257173E+03 0.  0.
          5    1    3    3  502    0  0.47389005086E+02  0.18995988553E+02 -0.94327426055E+02  0.10733918711E+03  0.41800000000E+01 0.  1.
         -5    1    3    3    0  502 -0.47775923156E+02  0.91657239889E+02 -0.57413827570E+02  0.11831064387E+03  0.41800000000E+01 0.  1.
        -11    1    1    2    0    0 -0.44934437943E+02 -0.46667208973E+02 -0.17610870901E+02  0.67134751660E+02  0.00000000000E+00 0.  1.
         11    1    1    2    0    0  0.45321356013E+02 -0.63986019469E+02 -0.36264558276E+02  0.86390706591E+02  0.00000000000E+00 0. -1.
</event>
<event>
 7    1  0.2641580E-009  0.1825716E+03  0.7561462E-02  0.1165337E+00
         -1   -1    0    0    0  501 -0.00000000000E+00  0.00000000000E+00  0.29698524524E+02  0.29698524524E+02  0.00000000000E+00 0.  1.
          1   -1    0    0  501    0  0.00000000000E+00 -0.00000000000E+00 -0.15004661014E+04  0.15004661014E+04  0.00000000000E+00 0. -1.
         25    2    1    2    0    0  0.16586203033E+03  0.58358442910E+02 -0.64230519413E+03  0.67758386209E+03  0.12509199331E+03 0.  0.
          5    1    3    3  502    0  0.45609586889E+02 -0.14142275974E+02 -0.35007750726E+03  0.35334398520E+03  0.41800000000E+01 0. -1.
         -5    1    3    3    0  502  0.12025244344E+03  0.72500718884E+02 -0.29222768687E+03  0.32423987689E+03  0.41800000000E+01 0. -1.
        -11    1    1    2    0    0 -0.11695183226E+03 -0.32397592479E+02 -0.72637592936E+03  0.73644370173E+03  0.00000000000E+00 0. -1.
         11    1    1    2    0    0 -0.48910198072E+02 -0.25960850430E+02 -0.10208645341E+03  0.11613706213E+03  0.00000000000E+00 0.  1.
</event>
<event>
 7    1  0.2641580E-009  0.1012639E+03  0.7561462E-02  0.1277660E+00
          1   -1    0    0  501    0  0.00000000000E+00  0.00000000000E+00  0.18127935599E+03  0.18127935599E+03  0.00000000000E+00 0. -1.
         -1   -1    0    0    0  501 -0.00000000000E+00 -0.00000000000E+00 -0.79234702570E+02  0.79234702570E+02  0.00000000000E+00 0.  1.
         25    2    1    2    0    0  0.31419685290E+02 -0.23431782291E+02  0.62560851652E+02  0.14525034260E+03  0.12509019474E+03 0.  0.
          5    1    3    3  502    0 -0.80403450354E+01 -0.51006049895E+02 -0.14943232381E+02  0.53916944165E+02  0.41800000000E+01 0.  1.
         -5    1    3    3    0  502  0.39460030326E+02  0.27574267604E+02  0.77504084033E+02  0.91333398431E+02  0.41800000000E+01 0.  1.
        -11    1    1    2    0    0 -0.36409845381E+02 -0.30953092386E+02 -0.14216863348E+00  0.47789025736E+02  0.00000000000E+00 0.  1.
         11    1    1    2    0    0  0.49901600907E+01  0.54384874676E+02  0.39625970405E+02  0.67474690231E+02  0.00000000000E+00 0. -1.
</event>
<event>
 7    1  0.2641580E-009  0.2256578E+03  0.7561462E-02  0.1129734E+00
         -1   -1    0    0    0  501 -0.00000000000E+00  0.00000000000E+00  0.53013994284E+03  0.53013994284E+03  0.00000000000E+00 0.  1.
          1   -1    0    0  501    0  0.00000000000E+00 -0.00000000000E+00 -0.14889409391E+03  0.14889409391E+03  0.00000000000E+00 0. -1.
         25    2    1    2    0    0  0.38246305056E+02  0.20354750532E+03  0.38337547464E+03  0.45334147887E+03  0.12508946854E+03 0.  0.
          5    1    3    3  502    0  0.53695009744E+02  0.44460899687E+02  0.18998150079E+03  0.20241138485E+03  0.41800000000E+01 0.  1.
         -5    1    3    3    0  502 -0.15448704689E+02  0.15908660563E+03  0.19339397385E+03  0.25093009402E+03  0.41800000000E+01 0.  1.
        -11    1    1    2    0    0 -0.54020416896E+02 -0.76993229568E+02 -0.22072097880E+02  0.96609214601E+02  0.00000000000E+00 0. -1.
         11    1    1    2    0    0  0.15774111840E+02 -0.12655427575E+03  0.19942472167E+02  0.12908334327E+03  0.00000000000E+00 0.  1.
</event>
<event>
 7    1  0.3086021E-009  0.1006274E+03  0.7561462E-02  0.1278982E+00
          1   -1    0    0  501    0  0.00000000000E+00  0.00000000000E+00  0.40373885680E+03  0.40373885680E+03  0.00000000000E+00 0. -1.
         -1   -1    0    0    0  501 -0.00000000000E+00 -0.00000000000E+00 -0.36197812240E+02  0.36197812240E+02  0.00000000000E+00 0.  1.
         25    2    1    2    0    0  0.47900118410E+02  0.97598227058E+01  0.17013267560E+03  0.21675341322E+03  0.12508892578E+03 0.  0.
          5    1    3    3  502    0  0.39214906647E+02 -0.49230337453E+02  0.43206303279E+02  0.76457125711E+02  0.41800000000E+01 0. -1.
         -5    1    3    3    0  502  0.86852117630E+01  0.58990160159E+02  0.12692637232E+03  0.14029628751E+03  0.41800000000E+01 0. -1.
        -11    1    1    2    0    0 -0.29458298457E+02  0.25272680449E+02  0.24725295271E+02  0.46019995125E+02  0.00000000000E+00 0.  1.
         11    1    1    2    0    0 -0.18441819953E+02 -0.35032503155E+02  0.17268307369E+03  0.17716326070E+03  0.00000000000E+00 0. -1.
</event>
<event>
 7    1  0.2641580E-009  0.1097435E+03  0.7561462E-02  0.1261046E+00
         -1   -1    0    0    0  501 -0.00000000000E+00  0.00000000000E+00  0.53939205904E+03  0.53939205904E+03  0.00000000000E+00 0.  1.
          1   -1    0    0  501    0  0.00000000000E+00 -0.00000000000E+00 -0.23438866715E+02  0.23438866715E+02  0.00000000000E+00 0. -1.
         25    2    1    2    0    0 -0.15901864640E+02 -0.17900759256E+02  0.25734200915E+03  0.28713323982E+03  0.12508909325E+03 0.  0.
          5    1    3    3  502    0 -0.60376645660E+02 -0.41540477169E+02  0.18363431440E+03  0.19776244439E+03  0.41800000000E+01 0. -1.
         -5    1    3    3    0  502  0.44474781020E+02  0.23639717913E+02  0.73707694752E+02  0.89370795428E+02  0.41800000000E+01 0. -1.
        -11    1    1    2    0    0 -0.34568192714E+02 -0.12339626485E+02  0.10102598806E+03  0.10748709966E+03  0.00000000000E+00 0. -1.
         11    1    1    2    0    0  0.50470057353E+02  0.30240385741E+02  0.15758519511E+03  0.16821058628E+03  0.00000000000E+00 0.  1.
</event>
<event>
 7    1  0.2641580E-009  0.8435363E+02  0.7561462E-02  0.1317132E+00
         -1   -1    0    0    0  501 -0.00000000000E+00  0.00000000000E+00  0.30894885239E+02  0.30894885239E+02  0.00000000000E+00 0.  1.
          1   -1    0    0  501    0  0.00000000000E+00 -0.00000000000E+00 -0.43968851611E+03  0.43968851611E+03  0.00000000000E+00 0. -1.
         25    2    1    2    0    0  0.37247414405E+02 -0.41749403937E+01 -0.27347218102E+03  0.30304836445E+03  0.12508588009E+03 0.  0.
          5    1    3    3  502    0 -0.44095014805E+02  0.15124141141E+02 -0.93292614819E+02  0.10437477835E+03  0.41800000000E+01 0. -1.
         -5    1    3    3    0  502  0.81342429209E+02 -0.19299081535E+02 -0.18017956620E+03  0.19867358610E+03  0.41800000000E+01 0. -1.
        -11    1    1    2    0    0 -0.12290901042E+02  0.48999622502E+01  0.12150745943E+02  0.17964311994E+02  0.00000000000E+00 0.  1.
         11    1    1    2    0    0 -0.24956513363E+02 -0.72502185646E+00 -0.14747219580E+03  0.14957072491E+03  0.00000000000E+00 0. -1.
</event>
<event>
 7    1  0.2641580E-009  0.9890651E+02  0.7561462E-02  0.1282612E+00
          2   -1    0    0  501    0  0.00000000000E+00  0.00000000000E+00  0.95800115634E+02  0.95800115634E+02  0.00000000000E+00 0. -1.
         -2   -1    0    0    0  501 -0.00000000000E+00 -0.00000000000E+00 -0.22626937690E+03  0.22626937690E+03  0.00000000000E+00 0.  1.
         25    2    1    2    0    0 -0.71173685544E+02 -0.66108057896E+02 -0.10684077943E+03  0.19105053391E+03  0.12509750407E+03 0.  0.
          5    1    3    3  502    0 -0.39731286997E+02 -0.49510839482E+02 -0.13251607205E+03  0.14699619091E+03  0.41800000000E+01 0.  1.
         -5    1    3    3    0  502 -0.31442398548E+02 -0.16597218415E+02  0.25675292615E+02  0.44054342991E+02  0.41800000000E+01 0.  1.
        -11    1    1    2    0    0  0.42355754430E+02  0.28654589282E+02  0.30200061114E+02  0.59389722272E+02  0.00000000000E+00 0. -1.
         11    1    1    2    0    0  0.28817931114E+02  0.37453468615E+02 -0.53828542953E+02  0.71629236359E+02  0.00000000000E+00 0.  1.
</event>
<event>
 7    1  0.2641580E-009  0.1608233E+03  0.7561462E-02  0.1187770E+00
          3   -1    0    0  501    0  0.00000000000E+00  0.00000000000E+00  0.26268524444E+03  0.26268524444E+03  0.00000000000E+00 0. -1.
         -3   -1    0    0    0  501 -0.00000000000E+00 -0.00000000000E+00 -0.10922904572E+03  0.10922904572E+03  0.00000000000E+00 0.  1.
         25    2    1    2    0    0 -0.84617795353E+02  0.94372954797E+02  0.12537881871E+03  0.21779418381E+03  0.12509209580E+03 0.  0.
          5    1    3    3  502    0 -0.41833566895E+02  0.11532719659E+03  0.11634118692E+03  0.16912466930E+03  0.41800000000E+01 0. -1.
         -5    1    3    3    0  502 -0.42784228458E+02 -0.20954241791E+02  0.90376317883E+01  0.48669514505E+02  0.41800000000E+01 0. -1.
        -11    1    1    2    0    0  0.53612301146E+02 -0.20165645701E+01  0.15794650168E+02  0.55926883882E+02  0.00000000000E+00 0.  1.
         11    1    1    2    0    0  0.31005494207E+02 -0.92356390227E+02  0.12282729837E+02  0.98193222470E+02  0.00000000000E+00 0. -1.
</event>
<event>
 7    1  0.2641580E-009  0.1138263E+03  0.7561462E-02  0.1253644E+00
         -2   -1    0    0    0  501 -0.00000000000E+00  0.00000000000E+00  0.54275572420E+02  0.54275572420E+02  0.00000000000E+00 0. -1.
          2   -1    0    0  501    0  0.00000000000E+00 -0.00000000000E+00 -0.52375687181E+03  0.52375687181E+03  0.00000000000E+00 0.  1.
         25    2    1    2    0    0 -0.90206723164E+02  0.22423007625E+02 -0.39918562811E+03  0.42852906832E+03  0.12509177645E+03 0.  0.
          5    1    3    3  502    0 -0.75466751514E+02  0.97476317651E+01 -0.86784578286E+02  0.11549581091E+03  0.41800000000E+01 0.  1.
         -5    1    3    3    0  502 -0.14739971649E+02  0.12675375860E+02 -0.31240104982E+03  0.31303325741E+03  0.41800000000E+01 0.  1.
        -11    1    1    2    0    0 -0.44922428805E+01 -0.35658274265E+02 -0.24396848676E+02  0.43438450651E+02  0.00000000000E+00 0. -1.
         11    1    1    2    0    0  0.94698966044E+02  0.13235266640E+02 -0.45898822606E+02  0.10606492526E+03  0.00000000000E+00 0.  1.
</event>
<event>
 7    1  0.2641580E-009  0.1388632E+03  0.7561462E-02  0.1214867E+00
          2   -1    0    0  501    0  0.00000000000E+00  0.00000000000E+00  0.11060268066E+03  0.11060268066E+03  0.00000000000E+00 0. -1.
         -2   -1    0    0    0  501 -0.00000000000E+00 -0.00000000000E+00 -0.21470523278E+03  0.21470523278E+03  0.00000000000E+00 0.  1.
         25    2    1    2    0    0 -0.94084907106E+02 -0.23210319078E+01  0.33173498791E+01  0.15657710881E+03  0.12509208312E+03 0.  0.
          5    1    3    3  502    0 -0.82500156174E+02 -0.52013518472E+02  0.25328741144E+02  0.10084988548E+03  0.41800000000E+01 0.  1.
         -5    1    3    3    0  502 -0.11584750933E+02  0.49692486564E+02 -0.22011391265E+02  0.55727223334E+02  0.41800000000E+01 0.  1.
        -11    1    1    2    0    0 -0.10712126462E+02  0.19949674558E+02 -0.10730998287E+02  0.25057803027E+02  0.00000000000E+00 0.  1.
         11    1    1    2    0    0  0.10479703357E+03 -0.17628642650E+02 -0.96688903714E+02  0.14367300160E+03  0.00000000000E+00 0. -1.
</event>
<event>
 7    1  0.2641580E-009  0.2316408E+03  0.7561462E-02  0.1125490E+00
          1   -1    0    0  501    0  0.00000000000E+00  0.00000000000E+00  0.39561845703E+03  0.39561845703E+03  0.00000000000E+00 0. -1.
         -1   -1    0    0    0  501 -0.00000000000E+00 -0.00000000000E+00 -0.14873772661E+03  0.14873772661E+03  0.00000000000E+00 0.  1.
         25    2    1    2    0    0  0.20427386163E+03  0.18819710332E+01  0.47353193556E+02  0.24417467591E+03  0.12509034757E+03 0.  0.
          5    1    3    3  502    0  0.22125043546E+03 -0.26289400487E+01  0.46236993452E+02  0.22608405181E+03  0.41800000000E+01 0. -1.
         -5    1    3    3    0  502 -0.16976573830E+02  0.45109110819E+01  0.11162001037E+01  0.18090624104E+02  0.41800000000E+01 0. -1.
        -11    1    1    2    0    0 -0.20386191387E+03 -0.20869985087E+02  0.18704203134E+03  0.27745262243E+03  0.00000000000E+00 0.  1.
         11    1    1    2    0    0 -0.41194776304E+00  0.18988014054E+02  0.12485505525E+02  0.22728885298E+02  0.00000000000E+00 0. -1.
</event>
<event>
 7    1  0.2641580E-009  0.7787729E+02  0.7561462E-02  0.1335186E+00
         -1   -1    0    0    0  501 -0.00000000000E+00  0.00000000000E+00  0.89485232745E+02  0.89485232745E+02  0.00000000000E+00 0.  1.
          1   -1    0    0  501    0  0.00000000000E+00 -0.00000000000E+00 -0.14354929503E+03  0.14354929503E+03  0.00000000000E+00 0. -1.
         25    2    1    2    0    0 -0.88113861412E+01  0.12323919575E+02 -0.44372340024E+01  0.12608112825E+03  0.12508893770E+03 0.  0.
          5    1    3    3  502    0 -0.41007408384E+02  0.39633095940E+02  0.35918934469E+02  0.67528009667E+02  0.41800000000E+01 0. -1.
         -5    1    3    3    0  502  0.32196022243E+02 -0.27309176366E+02 -0.40356168471E+02  0.58553118582E+02  0.41800000000E+01 0. -1.
        -11    1    1    2    0    0  0.26151485963E+02 -0.23794591732E+02  0.15487942118E+02  0.38599989181E+02  0.00000000000E+00 0.  1.
         11    1    1    2    0    0 -0.17340099822E+02  0.11470672157E+02 -0.65114770402E+02  0.68353410347E+02  0.00000000000E+00 0. -1.
</event>
<event>
 7    1  0.2641580E-009  0.1270221E+03  0.7561462E-02  0.1231943E+00
         -2   -1    0    0    0  501 -0.00000000000E+00  0.00000000000E+00  0.30199420310E+02  0.30199420310E+02  0.00000000000E+00 0.  1.
          2   -1    0    0  501    0  0.00000000000E+00 -0.00000000000E+00 -0.86158950904E+03  0.86158950904E+03  0.00000000000E+00 0. -1.
         25    2    1    2    0    0  0.77592270185E+02  0.79621469384E+02 -0.53319927806E+03  0.55884625677E+03  0.12509008675E+03 0.  0.
          5    1    3    3  502    0  0.59106596417E+02 -0.17829738156E+01 -0.89559685049E+02  0.10740194748E+03  0.41800000000E+01 0.  1.
         -5    1    3    3    0  502  0.18485673768E+02  0.81404443200E+02 -0.44363959301E+03  0.45144430929E+03  0.41800000000E+01 0.  1.
        -11    1    1    2    0    0 -0.53012473017E+02 -0.55129677272E+02 -0.28617988789E+03  0.29622378676E+03  0.00000000000E+00 0. -1.
         11    1    1    2    0    0 -0.24579797168E+02 -0.24491792113E+02 -0.12010922782E+02  0.36718885819E+02  0.00000000000E+00 0.  1.
</event>
<event>
 7    1  0.2641580E-009  0.8191974E+02  0.7561462E-02  0.1323690E+00
          1   -1    0    0  501    0  0.00000000000E+00  0.00000000000E+00  0.10400905598E+03  0.10400905598E+03  0.00000000000E+00 0. -1.
         -1   -1    0    0    0  501 -0.00000000000E+00 -0.00000000000E+00 -0.12745193214E+03  0.12745193214E+03  0.00000000000E+00 0.  1.
         25    2    1    2    0    0 -0.18164542198E+01  0.38433024981E+02 -0.22009524792E+02  0.13271571980E+03  0.12509454898E+03 0.  0.
          5    1    3    3  502    0  0.24701292321E+02 -0.40371479311E+01 -0.62970718042E+02  0.67891355388E+02  0.41800000000E+01 0.  1.
         -5    1    3    3    0  502 -0.26517746541E+02  0.42470172912E+02  0.40961193250E+02  0.64824364410E+02  0.41800000000E+01 0.  1.
        -11    1    1    2    0    0 -0.38592577382E+02 -0.23240069695E+02 -0.22895275032E+02  0.50533963700E+02  0.00000000000E+00 0.  1.
         11    1    1    2    0    0  0.40409031602E+02 -0.15192955286E+02  0.21461923669E+02  0.48211304617E+02  0.00000000000E+00 0. -1.
</event>
<event>
 7    1  0.2641580E-009  0.1564265E+03  0.7561462E-02  0.1192791E+00
          2   -1    0    0  501    0  0.00000000000E+00  0.00000000000E+00  0.18524257908E+04  0.18524257908E+04  0.00000000000E+00 0. -1.
         -2   -1    0    0    0  501 -0.00000000000E+00 -0.00000000000E+00 -0.16872793636E+02  0.16872793636E+02  0.00000000000E+00 0.  1.
         25    2    1    2    0    0 -0.95743867487E+02  0.86336025111E+02  0.12488856970E+04  0.12617383918E+04  0.12508991902E+03 0.  0.
          5    1    3    3  502    0 -0.11233233899E+03  0.76544976461E+02  0.73506530515E+03  0.74754007453E+03  0.41800000000E+01 0.  1.
         -5    1    3    3    0  502  0.16588471501E+02  0.97910486503E+01  0.51382039182E+03  0.51419831725E+03  0.41800000000E+01 0.  1.
        -11    1    1    2    0    0  0.13265010032E+02 -0.72268084160E+02  0.30521703570E+03  0.31393641930E+03  0.00000000000E+00 0.  1.
         11    1    1    2    0    0  0.82478857454E+02 -0.14067940951E+02  0.28145026451E+03  0.29362377336E+03  0.00000000000E+00 0. -1.
</event>
<event>
 7    1  0.2641580E-009  0.1169936E+03  0.7561462E-02  0.1248141E+00
          2   -1    0    0  501    0  0.00000000000E+00  0.00000000000E+00  0.61447847015E+03  0.61447847015E+03  0.00000000000E+00 0. -1.
         -2   -1    0    0    0  501 -0.00000000000E+00 -0.00000000000E+00 -0.25416791465E+02  0.25416791465E+02  0.00000000000E+00 0.  1.
         25    2    1    2    0    0  0.46494719481E+01 -0.53388656480E+02  0.25415549361E+03  0.28829785766E+03  0.12509465842E+03 0.  0.
          5    1    3    3  502    0 -0.24508017668E+02  0.34852370222E+02  0.72127101104E+02  0.83875632658E+02  0.41800000000E+01 0. -1.
         -5    1    3    3    0  502  0.29157489617E+02 -0.88241026702E+02  0.18202839251E+03  0.20442222500E+03  0.41800000000E+01 0. -1.
        -11    1    1    2    0    0  0.32576214032E+02  0.51420163563E+02  0.26973527726E+03  0.27651828644E+03  0.00000000000E+00 0. -1.
         11    1    1    2    0    0 -0.37225685980E+02  0.19684929164E+01  0.65170907819E+02  0.75079117516E+02  0.00000000000E+00 0.  1.
</event>
<event>
 7    1  0.2641580E-009  0.1242067E+03  0.7561462E-02  0.1236314E+00
          2   -1    0    0  501    0  0.00000000000E+00  0.00000000000E+00  0.85750557997E+03  0.85750557997E+03  0.00000000000E+00 0. -1.
         -2   -1    0    0    0  501 -0.00000000000E+00 -0.00000000000E+00 -0.18632323676E+02  0.18632323676E+02  0.00000000000E+00 0.  1.
         25    2    1    2    0    0 -0.21699850835E+01 -0.60964691832E+02  0.46987725331E+03  0.49005435254E+03  0.12508889953E+03 0.  0.
          5    1    3    3  502    0 -0.56363727411E+02 -0.57328361019E+02  0.33617993820E+03  0.34568458744E+03  0.41800000000E+01 0.  1.
         -5    1    3    3    0  502  0.54193742327E+02 -0.36363308127E+01  0.13369731511E+03  0.14436976510E+03  0.41800000000E+01 0.  1.
        -11    1    1    2    0    0 -0.46576561903E+02  0.34531667397E+02  0.17849567613E+03  0.18767663299E+03  0.00000000000E+00 0. -1.
         11    1    1    2    0    0  0.48746546987E+02  0.26433024436E+02  0.19050032685E+03  0.19840691811E+03  0.00000000000E+00 0.  1.
</event>
<event>
 7    1  0.2641580E-009  0.1597656E+03  0.7561462E-02  0.1188962E+00
          2   -1    0    0  501    0  0.00000000000E+00  0.00000000000E+00  0.85622674807E+03  0.85622674807E+03  0.00000000000E+00 0. -1.
         -2   -1    0    0    0  501 -0.00000000000E+00 -0.00000000000E+00 -0.43980719844E+02  0.43980719844E+02  0.00000000000E+00 0.  1.
         25    2    1    2    0    0 -0.15453484152E+03  0.83576618223E+00  0.52803852402E+03  0.56422713469E+03  0.12508341585E+03 0.  0.
          5    1    3    3  502    0 -0.17054439888E+01  0.10399924648E+01 -0.66530694823E+01  0.81071485161E+01  0.41800000000E+01 0. -1.
         -5    1    3    3    0  502 -0.15282939753E+03 -0.20422628261E+00  0.53469159350E+03  0.55611998617E+03  0.41800000000E+01 0. -1.
        -11    1    1    2    0    0  0.73366102375E+02 -0.24692116280E+02  0.65232080202E+02  0.10122998504E+03  0.00000000000E+00 0.  1.
         11    1    1    2    0    0  0.81168739146E+02  0.23856350097E+02  0.21897542401E+03  0.23475034819E+03  0.00000000000E+00 0. -1.
</event>
<event>
 7    1  0.2641580E-009  0.1267248E+03  0.7561462E-02  0.1232398E+00
          1   -1    0    0  501    0  0.00000000000E+00  0.00000000000E+00  0.20875624738E+03  0.20875624738E+03  0.00000000000E+00 0. -1.
         -1   -1    0    0    0  501 -0.00000000000E+00 -0.00000000000E+00 -0.17243138444E+03  0.17243138444E+03  0.00000000000E+00 0.  1.
         25    2    1    2    0    0  0.10580080850E+03 -0.15496371724E+02 -0.93920811413E+02  0.18947785747E+03  0.12508713379E+03 0.  0.
          5    1    3    3  502    0 -0.19189447233E+02 -0.51684270592E+01 -0.54161850306E+02  0.57843979393E+02  0.41800000000E+01 0. -1.
         -5    1    3    3    0  502  0.12499025573E+03 -0.10327944665E+02 -0.39758961107E+02  0.13163387808E+03  0.41800000000E+01 0. -1.
        -11    1    1    2    0    0 -0.93113295903E+02  0.17692756653E+02  0.14430367243E+03  0.17264608130E+03  0.00000000000E+00 0. -1.
         11    1    1    2    0    0 -0.12687512597E+02 -0.21963849296E+01 -0.14057998082E+02  0.19063693051E+02  0.00000000000E+00 0.  1.
</event>
<event>
 7    1  0.3860727E-009  0.1587420E+03  0.7561462E-02  0.1190124E+00
          2   -1    0    0  501    0  0.00000000000E+00  0.00000000000E+00  0.16755136667E+03  0.16755136667E+03  0.00000000000E+00 0. -1.
         -2   -1    0    0    0  501 -0.00000000000E+00 -0.00000000000E+00 -0.16076779801E+03  0.16076779801E+03  0.00000000000E+00 0.  1.
         25    2    1    2    0    0 -0.11833583344E+03 -0.19453976210E+02  0.28123409039E+02  0.17554496600E+03  0.12507310777E+03 0.  0.
          5    1    3    3  502    0 -0.14005424863E+03 -0.29034011288E+02  0.66230722904E+01  0.14324630487E+03  0.41800000000E+01 0.  1.
         -5    1    3    3    0  502  0.21718415197E+02  0.95800350773E+01  0.21500336749E+02  0.32298661135E+02  0.41800000000E+01 0.  1.
        -11    1    1    2    0    0  0.58959576196E+02 -0.35968660448E+02 -0.11291000270E+01  0.69074242859E+02  0.00000000000E+00 0. -1.
         11    1    1    2    0    0  0.59376257240E+02  0.55422636659E+02 -0.20210740347E+02  0.83699955815E+02  0.00000000000E+00 0.  1.
</event>
<event>
 7    1  0.2641580E-009  0.1715545E+03  0.7561462E-02  0.1176236E+00
         -1   -1    0    0    0  501 -0.00000000000E+00  0.00000000000E+00  0.64249072304E+03  0.64249072304E+03  0.00000000000E+00 0.  1.
          1   -1    0    0  501    0  0.00000000000E+00 -0.00000000000E+00 -0.64421001157E+02  0.64421001157E+02  0.00000000000E+00 0. -1.
         25    2    1    2    0    0 -0.12235662686E+03  0.84948601779E+02  0.15322801648E+03  0.24761443365E+03  0.12508666450E+03 0.  0.
          5    1    3    3  502    0 -0.11474514039E+03  0.99605453884E+02  0.78709708589E+02  0.17117355027E+03  0.41800000000E+01 0.  1.
         -5    1    3    3    0  502 -0.76114864688E+01 -0.14656852106E+02  0.74518307895E+02  0.76440883377E+02  0.41800000000E+01 0.  1.
        -11    1    1    2    0    0  0.91344978604E+02 -0.87039549398E+01  0.20708791658E+03  0.22650622319E+03  0.00000000000E+00 0. -1.
         11    1    1    2    0    0  0.31011648255E+02 -0.76244646839E+02  0.21775378882E+03  0.23279106736E+03  0.00000000000E+00 0.  1.
</event>
<event>
 7    1  0.2641580E-009  0.1387043E+03  0.7561462E-02  0.1215083E+00
          2   -1    0    0  501    0  0.00000000000E+00  0.00000000000E+00  0.25563181570E+03  0.25563181570E+03  0.00000000000E+00 0. -1.
         -2   -1    0    0    0  501 -0.00000000000E+00 -0.00000000000E+00 -0.13256445853E+03  0.13256445853E+03  0.00000000000E+00 0.  1.
         25    2    1    2    0    0  0.11765240109E+03 -0.34264839905E+02 -0.26857473993E+02  0.17715878965E+03  0.12509095133E+03 0.  0.
          5    1    3    3  502    0  0.68954549465E+02 -0.39841205665E+02 -0.74168914219E+02  0.10890616051E+03  0.41800000000E+01 0.  1.
         -5    1    3    3    0  502  0.48697851620E+02  0.55763657601E+01  0.47311440226E+02  0.68252629135E+02  0.41800000000E+01 0.  1.
        -11    1    1    2    0    0 -0.56769095893E+02 -0.26322626951E+02  0.66060462451E+02  0.90992283394E+02  0.00000000000E+00 0.  1.
         11    1    1    2    0    0 -0.60883305192E+02  0.60587466856E+02  0.83864368708E+02  0.12004520120E+03  0.00000000000E+00 0. -1.
</event>
<event>
 7    1  0.2641580E-009  0.1108084E+03  0.7561462E-02  0.1259080E+00
          3   -1    0    0  501    0  0.00000000000E+00  0.00000000000E+00  0.57355220476E+02  0.57355220476E+02  0.00000000000E+00 0. -1.
         -3   -1    0    0    0  501 -0.00000000000E+00 -0.00000000000E+00 -0.31096105699E+03  0.31096105699E+03  0.00000000000E+00 0.  1.
         25    2    1    2    0    0 -0.70941032560E+02 -0.28624490675E+02 -0.14924105761E+03  0.20921871404E+03  0.12509030922E+03 0.  0.
          5    1    3    3  502    0 -0.10231166618E+03 -0.10891712500E+02 -0.13603063585E+03  0.17061099825E+03  0.41800000000E+01 0. -1.
         -5    1    3    3    0  502  0.31370633615E+02 -0.17732778175E+02 -0.13210421766E+02  0.38607715789E+02  0.41800000000E+01 0. -1.
        -11    1    1    2    0    0  0.32549513584E+02  0.29550095429E+02  0.39859661781E+01  0.44142574696E+02  0.00000000000E+00 0. -1.
         11    1    1    2    0    0  0.38391518976E+02 -0.92560475471E+00 -0.10835074509E+03  0.11495498873E+03  0.00000000000E+00 0.  1.
</event>
<event>
 7    1  0.2641580E-009  0.3945366E+03  0.7561462E-02  0.1045688E+00
          1   -1    0    0  501    0  0.00000000000E+00  0.00000000000E+00  0.62803506336E+03  0.62803506336E+03  0.00000000000E+00 0.  1.
         -1   -1    0    0    0  501 -0.00000000000E+00 -0.00000000000E+00 -0.36103781563E+03  0.36103781563E+03  0.00000000000E+00 0. -1.
         25    2    1    2    0    0 -0.10929058739E+03 -0.37138508816E+03  0.40076837671E+03  0.57108183139E+03  0.12509136734E+03 0.  0.
          5    1    3    3  502    0 -0.97998609986E+02 -0.21361619709E+03  0.16519400102E+03  0.28730147509E+03  0.41800000000E+01 0.  1.
         -5    1    3    3    0  502 -0.11291977408E+02 -0.15776889107E+03  0.23557437568E+03  0.28378035630E+03  0.41800000000E+01 0.  1.
        -11    1    1    2    0    0 -0.12487594226E+02  0.63024216116E+02 -0.16608817931E+02  0.66361469692E+02  0.00000000000E+00 0. -1.
         11    1    1    2    0    0  0.12177818162E+03  0.30836087204E+03 -0.11716231105E+03  0.35162957790E+03  0.00000000000E+00 0.  1.
</event>
<event>
 7    1  0.2641580E-009  0.1123320E+03  0.7561462E-02  0.1256311E+00
         -1   -1    0    0    0  501 -0.00000000000E+00  0.00000000000E+00  0.26594502273E+03  0.26594502273E+03  0.00000000000E+00 0.  1.
          1   -1    0    0  501    0  0.00000000000E+00 -0.00000000000E+00 -0.52119529152E+02  0.52119529152E+02  0.00000000000E+00 0. -1.
         25    2    1    2    0    0  0.43363818052E+02 -0.13583783279E+02  0.10993558965E+03  0.17262166042E+03  0.12508982329E+03 0.  0.
          5    1    3    3  502    0 -0.43021780041E+01  0.50683846837E+02  0.57406975710E+02  0.76814024279E+02  0.41800000000E+01 0.  1.
         -5    1    3    3    0  502  0.47665996056E+02 -0.64267630116E+02  0.52528613944E+02  0.95807636145E+02  0.41800000000E+01 0.  1.
        -11    1    1    2    0    0  0.77787357183E+01 -0.27073071853E+02  0.61274275348E+02  0.67438837241E+02  0.00000000000E+00 0.  1.
         11    1    1    2    0    0 -0.51142553770E+02  0.40656855132E+02  0.42615628577E+02  0.78004054217E+02  0.00000000000E+00 0. -1.
</event>
<event>
 7    1  0.2641580E-009  0.1753180E+03  0.7561462E-02  0.1172413E+00
          1   -1    0    0  501    0  0.00000000000E+00  0.00000000000E+00  0.22354281736E+03  0.22354281736E+03  0.00000000000E+00 0. -1.
         -1   -1    0    0    0  501 -0.00000000000E+00 -0.00000000000E+00 -0.54021719878E+03  0.54021719878E+03  0.00000000000E+00 0.  1.
         25    2    1    2    0    0 -0.13609652747E+03 -0.75742296268E+02 -0.48034958686E+03  0.52023341357E+03  0.12509164149E+03 0.  0.
          5    1    3    3  502    0 -0.10016307064E+03 -0.21420472947E+01 -0.36618512582E+03  0.37966596879E+03  0.41800000000E+01 0.  1.
         -5    1    3    3    0  502 -0.35933456838E+02 -0.73600248973E+02 -0.11416446104E+03  0.14056744478E+03  0.41800000000E+01 0.  1.
        -11    1    1    2    0    0  0.11723430666E+03  0.33244167059E+02  0.15339839986E+03  0.19590846429E+03  0.00000000000E+00 0. -1.
         11    1    1    2    0    0  0.18862220814E+02  0.42498129209E+02  0.10276805571E+02  0.47618138277E+02  0.00000000000E+00 0.  1.
</event>
<event>
 7    1  0.2641580E-009  0.9505182E+02  0.7561462E-02  0.1291059E+00
         -1   -1    0    0    0  501 -0.00000000000E+00  0.00000000000E+00  0.86780756030E+02  0.86780756030E+02  0.00000000000E+00 0.  1.
          1   -1    0    0  501    0  0.00000000000E+00 -0.00000000000E+00 -0.16161950721E+03  0.16161950721E+03  0.00000000000E+00 0. -1.
         25    2    1    2    0    0 -0.46491329770E+02  0.52469380105E+01 -0.58443233348E+02  0.14578347497E+03  0.12509290926E+03 0.  0.
          5    1    3    3  502    0 -0.65713500573E+02 -0.82515926683E+01 -0.86455911811E+02  0.10898830224E+03  0.41800000000E+01 0. -1.
         -5    1    3    3    0  502  0.19222170803E+02  0.13498530679E+02  0.28012678463E+02  0.36795172721E+02  0.41800000000E+01 0. -1.
        -11    1    1    2    0    0  0.47611128667E+02  0.35333060007E+02 -0.12945415587E+01  0.59303630076E+02  0.00000000000E+00 0. -1.
         11    1    1    2    0    0 -0.11197988971E+01 -0.40579998017E+02 -0.15100976273E+02  0.43313158198E+02  0.00000000000E+00 0.  1.
</event>
<event>
 7    1  0.2641580E-009  0.9457974E+02  0.7561462E-02  0.1292125E+00
         -1   -1    0    0    0  501 -0.00000000000E+00  0.00000000000E+00  0.58768064788E+03  0.58768064788E+03  0.00000000000E+00 0.  1.
          1   -1    0    0  501    0  0.00000000000E+00 -0.00000000000E+00 -0.33068710795E+02  0.33068710795E+02  0.00000000000E+00 0. -1.
         25    2    1    2    0    0  0.89225630454E+01 -0.54653141322E+02  0.45098075332E+03  0.47127309822E+03  0.12509242684E+03 0.  0.
          5    1    3    3  502    0 -0.50171167416E+02 -0.50765405747E+02  0.17622241379E+03  0.19017382570E+03  0.41800000000E+01 0.  1.
         -5    1    3    3    0  502  0.59093730461E+02 -0.38877355752E+01  0.27475833953E+03  0.28109927251E+03  0.41800000000E+01 0.  1.
        -11    1    1    2    0    0 -0.11853002844E+02  0.18174697088E+02 -0.14307176406E+02  0.25990548039E+02  0.00000000000E+00 0. -1.
         11    1    1    2    0    0  0.29304397990E+01  0.36478444234E+02  0.11793836018E+03  0.12348571242E+03  0.00000000000E+00 0.  1.
</event>
<event>
 7    1  0.2641580E-009  0.8128105E+02  0.7561462E-02  0.1325455E+00
         -2   -1    0    0    0  501 -0.00000000000E+00  0.00000000000E+00  0.13242550530E+03  0.13242550530E+03  0.00000000000E+00 0. -1.
          2   -1    0    0  501    0  0.00000000000E+00 -0.00000000000E+00 -0.92747516911E+02  0.92747516911E+02  0.00000000000E+00 0.  1.
         25    2    1    2    0    0  0.57668861794E+01 -0.14992954696E+02  0.85191778644E+01  0.12640509493E+03  0.12509047112E+03 0.  0.
          5    1    3    3  502    0  0.45717047636E+02  0.17281210746E+02 -0.33930014765E+02  0.59644002141E+02  0.41800000000E+01 0.  1.
         -5    1    3    3    0  502 -0.39950161457E+02 -0.32274165443E+02  0.42449192630E+02  0.66761092789E+02  0.41800000000E+01 0.  1.
        -11    1    1    2    0    0 -0.26194261850E+02  0.27540726116E+02 -0.19503179952E+02  0.42720076979E+02  0.00000000000E+00 0.  1.
         11    1    1    2    0    0  0.20427375671E+02 -0.12547771420E+02  0.50661990481E+02  0.56047850306E+02  0.00000000000E+00 0. -1.
</event>
<event>
 7    1  0.2641580E-009  0.1507153E+03  0.7561462E-02  0.1199597E+00
         -2   -1    0    0    0  501 -0.00000000000E+00  0.00000000000E+00  0.70624705755E+02  0.70624705755E+02  0.00000000000E+00 0.  1.
          2   -1    0    0  501    0  0.00000000000E+00 -0.00000000000E+00 -0.43859872510E+03  0.43859872510E+03  0.00000000000E+00 0. -1.
         25    2    1    2    0    0  0.97749044443E+02  0.99421836312E+02 -0.19549517915E+03  0.27074938745E+03  0.12508912226E+03 0.  0.
          5    1    3    3  502    0  0.80898033658E+02  0.97450610213E+02 -0.21182273513E+03  0.24683487760E+03  0.41800000000E+01 0. -1.
         -5    1    3    3    0  502  0.16851010785E+02  0.19712260997E+01  0.16327555985E+02  0.23914509848E+02  0.41800000000E+01 0. -1.
        -11    1    1    2    0    0 -0.19507888965E+02  0.10621399695E+02 -0.55667447410E+02  0.59935269788E+02  0.00000000000E+00 0.  1.
         11    1    1    2    0    0 -0.78241155478E+02 -0.11004323601E+03 -0.11681139279E+03  0.17853877362E+03  0.00000000000E+00 0. -1.
</event>
<event>
 7    1  0.2641580E-009  0.1566207E+03  0.7561462E-02  0.1192566E+00
         -3   -1    0    0    0  501 -0.00000000000E+00  0.00000000000E+00  0.20925413087E+04  0.20925413087E+04  0.00000000000E+00 0.  1.
          3   -1    0    0  501    0  0.00000000000E+00 -0.00000000000E+00 -0.15568027630E+02  0.15568027630E+02  0.00000000000E+00 0. -1.
         25    2    1    2    0    0 -0.13649022781E+03 -0.44680364875E+02  0.11252307024E+04  0.11412348143E+04  0.12508737076E+03 0.  0.
          5    1    3    3  502    0 -0.11641489659E+03 -0.37407840524E+02  0.47065509413E+03  0.48629771202E+03  0.41800000000E+01 0. -1.
         -5    1    3    3    0  502 -0.20075331228E+02 -0.72725243510E+01  0.65457560829E+03  0.65493710225E+03  0.41800000000E+01 0. -1.
        -11    1    1    2    0    0  0.14377845211E+03  0.22174094513E+02  0.85452490024E+03  0.86681989992E+03  0.00000000000E+00 0. -1.
         11    1    1    2    0    0 -0.72882242936E+01  0.22506270362E+02  0.97217678449E+02  0.10005462219E+03  0.00000000000E+00 0.  1.
</event>
<event>
 7    1  0.2641580E-009  0.1040823E+03  0.7561462E-02  0.1271938E+00
         -2   -1    0    0    0  501 -0.00000000000E+00  0.00000000000E+00  0.67733943756E+02  0.67733943756E+02  0.00000000000E+00 0.  1.
          2   -1    0    0  501    0  0.00000000000E+00 -0.00000000000E+00 -0.27017952450E+03  0.27017952450E+03  0.00000000000E+00 0. -1.
         25    2    1    2    0    0 -0.31808647187E+02  0.69494505526E+02 -0.14074106877E+03  0.20321500660E+03  0.12508802555E+03 0.  0.
          5    1    3    3  502    0 -0.62388093939E+02  0.81531413377E+01 -0.11249836030E+03  0.12896550488E+03  0.41800000000E+01 0. -1.
         -5    1    3    3    0  502  0.30579446752E+02  0.61341364188E+02 -0.28242708474E+02  0.74249501722E+02  0.41800000000E+01 0. -1.
        -11    1    1    2    0    0  0.18958873852E+02 -0.42919448406E+02  0.17573404132E+02  0.50103318074E+02  0.00000000000E+00 0.  1.
         11    1    1    2    0    0  0.12849773335E+02 -0.26575057120E+02 -0.79277916106E+02  0.84595143583E+02  0.00000000000E+00 0. -1.
</event>
<event>
 7    1  0.2641580E-009  0.1524645E+03  0.7561462E-02  0.1197477E+00
          1   -1    0    0  501    0  0.00000000000E+00  0.00000000000E+00  0.80344781237E+03  0.80344781237E+03  0.00000000000E+00 0. -1.
         -1   -1    0    0    0  501 -0.00000000000E+00 -0.00000000000E+00 -0.32297411427E+02  0.32297411427E+02  0.00000000000E+00 0.  1.
         25    2    1    2    0    0  0.11458293956E+03 -0.28938342027E+02  0.42830112697E+03  0.46157771820E+03  0.12508180081E+03 0.  0.
          5    1    3    3  502    0  0.79233083776E+02  0.33330811854E+02  0.32228828809E+03  0.33358063137E+03  0.41800000000E+01 0.  1.
         -5    1    3    3    0  502  0.35349855783E+02 -0.62269153881E+02  0.10601283888E+03  0.12799708683E+03  0.41800000000E+01 0.  1.
        -11    1    1    2    0    0 -0.12405175720E+03  0.81721674889E+01  0.25938474915E+03  0.28763878542E+03  0.00000000000E+00 0. -1.
         11    1    1    2    0    0  0.94688176414E+01  0.20766174539E+02  0.83464524823E+02  0.86528720183E+02  0.00000000000E+00 0.  1.
</event>
<event>
 7    1  0.2641580E-009  0.1014696E+03  0.7561462E-02  0.1277236E+00
          1   -1    0    0  501    0  0.00000000000E+00  0.00000000000E+00  0.39734725167E+02  0.39734725167E+02  0.00000000000E+00 0. -1.
         -1   -1    0    0    0  501 -0.00000000000E+00 -0.00000000000E+00 -0.31057071470E+03  0.31057071470E+03  0.00000000000E+00 0.  1.
         25    2    1    2    0    0  0.75891764900E+01  0.15181376074E+01 -0.14111977796E+03  0.18873800217E+03  0.12508933363E+03 0.  0.
          5    1    3    3  502    0  0.60234239563E+02 -0.25175082858E+02 -0.84266075237E+02  0.10667798390E+03  0.41800000000E+01 0. -1.
         -5    1    3    3    0  502 -0.52645063073E+02  0.26693220466E+02 -0.56853702726E+02  0.82060018270E+02  0.41800000000E+01 0. -1.
        -11    1    1    2    0    0 -0.27079533151E+01 -0.39731908494E+02 -0.18582993234E+02  0.43946390082E+02  0.00000000000E+00 0. -1.
         11    1    1    2    0    0 -0.48812231749E+01  0.38213770887E+02 -0.11113321834E+03  0.11762104762E+03  0.00000000000E+00 0.  1.
</event>
<event>
 7    1  0.2641580E-009  0.1014510E+03  0.7561462E-02  0.1277274E+00
         -2   -1    0    0    0  501 -0.00000000000E+00  0.00000000000E+00  0.21624201280E+03  0.21624201280E+03  0.00000000000E+00 0.  1.
          2   -1    0    0  501    0  0.00000000000E+00 -0.00000000000E+00 -0.10634687903E+03  0.10634687903E+03  0.00000000000E+00 0. -1.
         25    2    1    2    0    0  0.60101894340E+02 -0.72417521216E+02  0.87251083480E+01  0.15677808810E+03  0.12508679511E+03 0.  0.
          5    1    3    3  502    0  0.39263896923E+02 -0.76320234604E+02 -0.46337573770E+02  0.97627224453E+02  0.41800000000E+01 0. -1.
         -5    1    3    3    0  502  0.20837997417E+02  0.39027133876E+01  0.55062682118E+02  0.59150863647E+02  0.41800000000E+01 0. -1.
        -11    1    1    2    0    0 -0.51156584438E+02  0.51384752662E+02  0.11725467621E+03  0.13786242429E+03  0.00000000000E+00 0.  1.
         11    1    1    2    0    0 -0.89453099018E+01  0.21032768554E+02 -0.16084650790E+02  0.27948379440E+02  0.00000000000E+00 0. -1.
</event>
<event>
 7    1  0.2641580E-009  0.9490374E+02  0.7561462E-02  0.1291393E+00
          2   -1    0    0  501    0  0.00000000000E+00  0.00000000000E+00  0.26766320056E+03  0.26766320056E+03  0.00000000000E+00 0. -1.
         -2   -1    0    0    0  501 -0.00000000000E+00 -0.00000000000E+00 -0.92544121031E+02  0.92544121031E+02  0.00000000000E+00 0.  1.
         25    2    1    2    0    0 -0.45821391676E+02  0.46874918749E+02 -0.11660342320E+02  0.14171652291E+03  0.12510296295E+03 0.  0.
          5    1    3    3  502    0  0.11096197239E+02 -0.57399834999E+01 -0.52414666992E+02  0.54044821395E+02  0.41800000000E+01 0.  1.
         -5    1    3    3    0  502 -0.56917588915E+02  0.52614902249E+02  0.40754324672E+02  0.87671701512E+02  0.41800000000E+01 0.  1.
        -11    1    1    2    0    0 -0.10312885543E+02 -0.41336387773E+02  0.13627045386E+03  0.14277495984E+03  0.00000000000E+00 0. -1.
         11    1    1    2    0    0  0.56134277219E+02 -0.55385309758E+01  0.50508967988E+02  0.75715838842E+02  0.00000000000E+00 0.  1.
</event>
<event>
 7    1  0.2641580E-009  0.2021875E+03  0.7561462E-02  0.1147906E+00
         -2   -1    0    0    0  501 -0.00000000000E+00  0.00000000000E+00  0.69092978629E+03  0.69092978629E+03  0.00000000000E+00 0.  1.
          2   -1    0    0  501    0  0.00000000000E+00 -0.00000000000E+00 -0.99421807533E+02  0.99421807533E+02  0.00000000000E+00 0. -1.
         25    2    1    2    0    0  0.15212251849E+03 -0.10272154785E+03  0.53270250680E+03  0.57715985881E+03  0.12509422387E+03 0.  0.
          5    1    3    3  502    0  0.14381627250E+03 -0.32144131992E+02  0.40436780109E+03  0.43040348095E+03  0.41800000000E+01 0.  1.
         -5    1    3    3    0  502  0.83062459895E+01 -0.70577415862E+02  0.12833470571E+03  0.14675637786E+03  0.41800000000E+01 0.  1.
        -11    1    1    2    0    0 -0.10976616930E+03  0.88768499680E+02  0.22722140813E+01  0.14118647745E+03  0.00000000000E+00 0. -1.
         11    1    1    2    0    0 -0.42356349187E+02  0.13953048174E+02  0.56533257873E+02  0.72005257555E+02  0.00000000000E+00 0.  1.
</event>
<event>
 7    1  0.2641580E-009  0.1003817E+03  0.7561462E-02  0.1279495E+00
          4   -1    0    0  501    0  0.00000000000E+00  0.00000000000E+00  0.61344573126E+03  0.61344573126E+03  0.00000000000E+00 0. -1.
         -4   -1    0    0    0  501 -0.00000000000E+00 -0.00000000000E+00 -0.19894624056E+02  0.19894624056E+02  0.00000000000E+00 0.  1.
         25    2    1    2    0    0  0.30060426005E+01 -0.19030194493E+01  0.40970708102E+03  0.42839123021E+03  0.12508595490E+03 0.  0.
          5    1    3    3  502    0  0.59322884396E+02 -0.19668644272E+02  0.25916704871E+03  0.26662912766E+03  0.41800000000E+01 0. -1.
         -5    1    3    3    0  502 -0.56316841795E+02  0.17765624822E+02  0.15054003231E+03  0.16176210255E+03  0.41800000000E+01 0. -1.
        -11    1    1    2    0    0 -0.37009105951E+02  0.18172660605E+02  0.14530093606E+03  0.15103735147E+03  0.00000000000E+00 0. -1.
         11    1    1    2    0    0  0.34003063351E+02 -0.16269641156E+02  0.38543090128E+02  0.53911773642E+02  0.00000000000E+00 0.  1.
</event>
<event>
 7    1  0.2641580E-009  0.1181306E+03  0.7561462E-02  0.1246213E+00
         -1   -1    0    0    0  501 -0.00000000000E+00  0.00000000000E+00  0.15722233440E+03  0.15722233440E+03  0.00000000000E+00 0.  1.
          1   -1    0    0  501    0  0.00000000000E+00 -0.00000000000E+00 -0.13064822839E+03  0.13064822839E+03  0.00000000000E+00 0. -1.
         25    2    1    2    0    0 -0.74133679073E+02  0.25081434076E+02  0.64423811625E+02  0.16100820149E+03  0.12509329612E+03 0.  0.
          5    1    3    3  502    0  0.18956813654E+02 -0.20733104984E+02 -0.13242760501E+02  0.31337924818E+02  0.41800000000E+01 0.  1.
         -5    1    3    3    0  502 -0.93090492727E+02  0.45814539060E+02  0.77666572126E+02  0.12967027667E+03  0.41800000000E+01 0.  1.
        -11    1    1    2    0    0  0.57066361967E+02  0.16224484346E+02 -0.53118774511E+02  0.79632956531E+02  0.00000000000E+00 0. -1.
         11    1    1    2    0    0  0.17067317107E+02 -0.41305918422E+02  0.15269068899E+02  0.47229404770E+02  0.00000000000E+00 0.  1.
</event>
<event>
 7    1  0.2641580E-009  0.9296761E+02  0.7561462E-02  0.1295820E+00
         -1   -1    0    0    0  501 -0.00000000000E+00  0.00000000000E+00  0.23521701134E+02  0.23521701134E+02  0.00000000000E+00 0.  1.
          1   -1    0    0  501    0  0.00000000000E+00 -0.00000000000E+00 -0.68451106654E+03  0.68451106654E+03  0.00000000000E+00 0. -1.
         25    2    1    2    0    0 -0.54953317829E+01  0.39918061552E+02 -0.52754484491E+03  0.54366719882E+03  0.12508720709E+03 0.  0.
          5    1    3    3  502    0  0.30255054403E+01  0.77524678279E+02 -0.45321373076E+03  0.45982538813E+03  0.41800000000E+01 0. -1.
         -5    1    3    3    0  502 -0.85208372232E+01 -0.37606616727E+02 -0.74331114152E+02  0.83841810690E+02  0.41800000000E+01 0. -1.
        -11    1    1    2    0    0 -0.16202152469E+01 -0.53815624088E+02 -0.13797562501E+03  0.14810813479E+03  0.00000000000E+00 0. -1.
         11    1    1    2    0    0  0.71155470298E+01  0.13897562536E+02  0.45311045185E+01  0.16257434057E+02  0.00000000000E+00 0.  1.
</event>
<event>
 7    1  0.2641580E-009  0.1628071E+03  0.7561462E-02  0.1185564E+00
          2   -1    0    0  501    0  0.00000000000E+00  0.00000000000E+00  0.70208343993E+03  0.70208343993E+03  0.00000000000E+00 0. -1.
         -2   -1    0    0    0  501 -0.00000000000E+00 -0.00000000000E+00 -0.44106814872E+02  0.44106814872E+02  0.00000000000E+00 0.  1.
         25    2    1    2    0    0 -0.11612901522E+03  0.72802294862E+02  0.38671927613E+03  0.42894091120E+03  0.12510948989E+03 0.  0.
          5    1    3    3  502    0 -0.13404807156E+03  0.50682861266E+02  0.24110714419E+03  0.28051339593E+03  0.41800000000E+01 0. -1.
         -5    1    3    3    0  502  0.17919056344E+02  0.22119433596E+02  0.14561213194E+03  0.14842751527E+03  0.41800000000E+01 0. -1.
        -11    1    1    2    0    0  0.84858867960E+02 -0.84811065679E+02  0.25074912594E+03  0.27797314347E+03  0.00000000000E+00 0. -1.
         11    1    1    2    0    0  0.31270147259E+02  0.12008770817E+02  0.20508222993E+02  0.39276200128E+02  0.00000000000E+00 0.  1.
</event>
<event>
 7    1  0.2641580E-009  0.8180631E+02  0.7561462E-02  0.1324002E+00
          1   -1    0    0  501    0  0.00000000000E+00  0.00000000000E+00  0.28806335778E+03  0.28806335778E+03  0.00000000000E+00 0. -1.
         -1   -1    0    0    0  501 -0.00000000000E+00 -0.00000000000E+00 -0.49129156788E+02  0.49129156788E+02  0.00000000000E+00 0.  1.
         25    2    1    2    0    0 -0.33418828972E+02 -0.22503426414E+02  0.18011116427E+03  0.22298436696E+03  0.12513502342E+03 0.  0.
          5    1    3    3  502    0  0.40951303518E+02 -0.14789213427E+02  0.24121108346E+02  0.49950278893E+02  0.41800000000E+01 0.  1.
         -5    1    3    3    0  502 -0.74370132490E+02 -0.77142129867E+01  0.15599005592E+03  0.17303408807E+03  0.41800000000E+01 0.  1.
        -11    1    1    2    0    0  0.28683304288E+01  0.12522776977E+02 -0.22974817620E+02  0.26322794444E+02  0.00000000000E+00 0.  1.
         11    1    1    2    0    0  0.30550498544E+02  0.99806494364E+01  0.81797854341E+02  0.87885353155E+02  0.00000000000E+00 0. -1.
</event>
<event>
 7    1  0.2641580E-009  0.9811710E+02  0.7561462E-02  0.1284306E+00
         -1   -1    0    0    0  501 -0.00000000000E+00  0.00000000000E+00  0.14738693882E+03  0.14738693882E+03  0.00000000000E+00 0.  1.
          1   -1    0    0  501    0  0.00000000000E+00 -0.00000000000E+00 -0.11988561404E+03  0.11988561404E+03  0.00000000000E+00 0. -1.
         25    2    1    2    0    0  0.95827814606E+01 -0.58804171224E+02  0.61971995299E+02  0.15180884592E+03  0.12512248896E+03 0.  0.
          5    1    3    3  502    0 -0.55600701802E+02 -0.32574823144E+02  0.12498494892E+02  0.65774173642E+02  0.41800000000E+01 0. -1.
         -5    1    3    3    0  502  0.65183483263E+02 -0.26229348081E+02  0.49473500406E+02  0.86034672275E+02  0.41800000000E+01 0. -1.
        -11    1    1    2    0    0  0.38067230807E+01  0.11960653787E+02 -0.59417317170E+02  0.60728625535E+02  0.00000000000E+00 0. -1.
         11    1    1    2    0    0 -0.13389504541E+02  0.46843517437E+02  0.24946646653E+02  0.54735081410E+02  0.00000000000E+00 0.  1.
</event>
<event>
 7    1  0.2641580E-009  0.1086303E+03  0.7561462E-02  0.1263128E+00
         -1   -1    0    0    0  501 -0.00000000000E+00  0.00000000000E+00  0.27762527184E+02  0.27762527184E+02  0.00000000000E+00 0.  1.
          1   -1    0    0  501    0  0.00000000000E+00 -0.00000000000E+00 -0.46923657013E+03  0.46923657013E+03  0.00000000000E+00 0. -1.
         25    2    1    2    0    0 -0.26595723311E+02 -0.25065820272E+02 -0.26494184731E+03  0.29525573524E+03  0.12508452698E+03 0.  0.
          5    1    3    3  502    0  0.19386403461E+02  0.40539933545E+02 -0.13700162080E+03  0.14424366659E+03  0.41800000000E+01 0.  1.
         -5    1    3    3    0  502 -0.45982126772E+02 -0.65605753817E+02 -0.12794022651E+03  0.15101206865E+03  0.41800000000E+01 0.  1.
        -11    1    1    2    0    0 -0.30876571360E+02  0.69926465042E+01 -0.96558501107E+02  0.10161596282E+03  0.00000000000E+00 0. -1.
         11    1    1    2    0    0  0.57472294670E+02  0.18073173768E+02 -0.79973694524E+02  0.10012739925E+03  0.00000000000E+00 0.  1.
</event>
<event>
 7    1  0.3325201E-009  0.1154033E+03  0.7561462E-02  0.1250879E+00
         -1   -1    0    0    0  501 -0.00000000000E+00  0.00000000000E+00  0.16292183029E+03  0.16292183029E+03  0.00000000000E+00 0.  1.
          1   -1    0    0  501    0  0.00000000000E+00 -0.00000000000E+00 -0.15049502596E+03  0.15049502596E+03  0.00000000000E+00 0. -1.
         25    2    1    2    0    0 -0.10976995172E+03  0.19524981616E+02 -0.12672854017E+02  0.16804160945E+03  0.12508682613E+03 0.  0.
          5    1    3    3  502    0 -0.18242120212E+02  0.19755134146E+02 -0.59292991584E+02  0.65239340324E+02  0.41800000000E+01 0.  1.
         -5    1    3    3    0  502 -0.91527831510E+02 -0.23015252997E+00  0.46620137567E+02  0.10280226913E+03  0.41800000000E+01 0.  1.
        -11    1    1    2    0    0  0.35676946268E+02 -0.14574888933E+01 -0.33682429898E+02  0.49086401912E+02  0.00000000000E+00 0. -1.
         11    1    1    2    0    0  0.74093005454E+02 -0.18067492722E+02  0.58782088241E+02  0.96288844881E+02  0.00000000000E+00 0.  1.
</event>
<event>
 7    1  0.2641580E-009  0.1550387E+03  0.7561462E-02  0.1194415E+00
         -1   -1    0    0    0  501 -0.00000000000E+00  0.00000000000E+00  0.35204469975E+02  0.35204469975E+02  0.00000000000E+00 0.  1.
          1   -1    0    0  501    0  0.00000000000E+00 -0.00000000000E+00 -0.74178913616E+03  0.74178913616E+03  0.00000000000E+00 0. -1.
         25    2    1    2    0    0 -0.79412685682E+02 -0.87929399330E+02 -0.31601706689E+03  0.35993463501E+03  0.12509276957E+03 0.  0.
          5    1    3    3  502    0 -0.97474393916E+02 -0.10162944382E+03 -0.30123477046E+03  0.33255023779E+03  0.41800000000E+01 0.  1.
         -5    1    3    3    0  502  0.18061708234E+02  0.13700044487E+02 -0.14782296434E+02  0.27384397220E+02  0.41800000000E+01 0.  1.
        -11    1    1    2    0    0  0.63207720642E+02  0.69825399576E+01 -0.17855650538E+03  0.18954260056E+03  0.00000000000E+00 0. -1.
         11    1    1    2    0    0  0.16204965040E+02  0.80946859372E+02 -0.21201109391E+03  0.22751637056E+03  0.00000000000E+00 0.  1.
</event>
<event>
 7    1  0.2641580E-009  0.1155327E+03  0.7561462E-02  0.1250654E+00
         -1   -1    0    0    0  501 -0.00000000000E+00  0.00000000000E+00  0.70753583395E+02  0.70753583395E+02  0.00000000000E+00 0.  1.
          1   -1    0    0  501    0  0.00000000000E+00 -0.00000000000E+00 -0.28329481061E+03  0.28329481061E+03  0.00000000000E+00 0. -1.
         25    2    1    2    0    0  0.10859154516E+02  0.77625194272E+02 -0.60001105103E+02  0.15934521393E+03  0.12508865883E+03 0.  0.
          5    1    3    3  502    0  0.45985508366E+02  0.34841807807E+02  0.20662504578E+02  0.61424995290E+02  0.41800000000E+01 0. -1.
         -5    1    3    3    0  502 -0.35126353850E+02  0.42783386465E+02 -0.80663609681E+02  0.97920218642E+02  0.41800000000E+01 0. -1.
        -11    1    1    2    0    0  0.37638432606E+02 -0.20813760599E+02 -0.78610284589E+02  0.89607148612E+02  0.00000000000E+00 0. -1.
         11    1    1    2    0    0 -0.48497587121E+02 -0.56811433673E+02 -0.73929837523E+02  0.10509603146E+03  0.00000000000E+00 0.  1.
</event>
<event>
 7    1  0.2641580E-009  0.1779024E+03  0.7561462E-02  0.1169849E+00
          2   -1    0    0  501    0  0.00000000000E+00  0.00000000000E+00  0.11484941845E+04  0.11484941845E+04  0.00000000000E+00 0. -1.
         -2   -1    0    0    0  501 -0.00000000000E+00 -0.00000000000E+00 -0.31685104452E+02  0.31685104452E+02  0.00000000000E+00 0.  1.
         25    2    1    2    0    0  0.48378762641E+02 -0.14884057168E+03  0.64123334386E+03  0.67180441430E+03  0.12508776654E+03 0.  0.
          5    1    3    3  502    0  0.90260827289E+02 -0.10480441247E+03  0.47571749516E+03  0.49543474789E+03  0.41800000000E+01 0.  1.
         -5    1    3    3    0  502 -0.41882064648E+02 -0.44036159212E+02  0.16551584870E+03  0.17636966641E+03  0.41800000000E+01 0.  1.
        -11    1    1    2    0    0 -0.19512655584E+02  0.58007773577E+02  0.75945416327E+02  0.97536412608E+02  0.00000000000E+00 0.  1.
         11    1    1    2    0    0 -0.28866107058E+02  0.90832798100E+02  0.39963031989E+03  0.41083846208E+03  0.00000000000E+00 0. -1.
</event>
<event>
 7    1  0.2641580E-009  0.2349482E+03  0.7561462E-02  0.1123205E+00
          1   -1    0    0  501    0  0.00000000000E+00  0.00000000000E+00  0.53829657468E+03  0.53829657468E+03  0.00000000000E+00 0. -1.
         -1   -1    0    0    0  501 -0.00000000000E+00 -0.00000000000E+00 -0.11947940170E+03  0.11947940170E+03  0.00000000000E+00 0.  1.
         25    2    1    2    0    0  0.15535968687E+03 -0.16759384720E+03  0.24275318324E+03  0.35609127299E+03  0.12509019467E+03 0.  0.
          5    1    3    3  502    0  0.96728448475E+01 -0.86909389693E+01  0.91971662596E+02  0.92980403679E+02  0.41800000000E+01 0.  1.
         -5    1    3    3    0  502  0.14568684202E+03 -0.15890290823E+03  0.15078152065E+03  0.26311086931E+03  0.41800000000E+01 0.  1.
        -11    1    1    2    0    0 -0.72675197515E+02  0.13181742896E+03  0.13682698437E+03  0.20341863868E+03  0.00000000000E+00 0. -1.
         11    1    1    2    0    0 -0.82684489354E+02  0.35776418238E+02  0.39237005365E+02  0.98266064700E+02  0.00000000000E+00 0.  1.
</event>
<event>
 7    1  0.2641580E-009  0.1056368E+03  0.7561462E-02  0.1268870E+00
          3   -1    0    0  501    0  0.00000000000E+00  0.00000000000E+00  0.72277024393E+03  0.72277024393E+03  0.00000000000E+00 0. -1.
         -3   -1    0    0    0  501 -0.00000000000E+00 -0.00000000000E+00 -0.18950789404E+02  0.18950789404E+02  0.00000000000E+00 0.  1.
         25    2    1    2    0    0  0.28701382826E+02  0.27834969387E+02  0.46188312009E+03  0.48018958344E+03  0.12508982582E+03 0.  0.
          5    1    3    3  502    0 -0.10174636117E+02 -0.36857872541E+02  0.28839445524E+03  0.29094820879E+03  0.41800000000E+01 0. -1.
         -5    1    3    3    0  502  0.38876018943E+02  0.64692841928E+02  0.17348866486E+03  0.18924137465E+03  0.41800000000E+01 0. -1.
        -11    1    1    2    0    0 -0.46965783791E+02 -0.49932665088E+02  0.14397260863E+03  0.15945898509E+03  0.00000000000E+00 0.  1.
         11    1    1    2    0    0  0.18264400965E+02  0.22097695701E+02  0.97963725802E+02  0.10207246480E+03  0.00000000000E+00 0. -1.
</event>
<event>
 7    1  0.2641580E-009  0.1392368E+03  0.7561462E-02  0.1214360E+00
          2   -1    0    0  501    0  0.00000000000E+00  0.00000000000E+00  0.19065036368E+03  0.19065036368E+03  0.00000000000E+00 0. -1.
         -2   -1    0    0    0  501 -0.00000000000E+00 -0.00000000000E+00 -0.10694169028E+03  0.10694169028E+03  0.00000000000E+00 0.  1.
         25    2    1    2    0    0  0.89103608271E+02 -0.17099955081E+02  0.25524711981E+02  0.15662329593E+03  0.12508990541E+03 0.  0.
          5    1    3    3  502    0  0.77482191004E+02  0.44235546205E+02  0.29142374599E+02  0.93952242486E+02  0.41800000000E+01 0. -1.
         -5    1    3    3    0  502  0.11621417267E+02 -0.61335501286E+02 -0.36176626179E+01  0.62671053447E+02  0.41800000000E+01 0. -1.
        -11    1    1    2    0    0 -0.22480757771E+02 -0.35284687483E+02  0.30627776564E+02  0.51850307020E+02  0.00000000000E+00 0. -1.
         11    1    1    2    0    0 -0.66622850500E+02  0.52384642564E+02  0.27556184854E+02  0.89118451002E+02  0.00000000000E+00 0.  1.
</event>
<event>
 7    1  0.2641580E-009  0.1665762E+03  0.7561462E-02  0.1181466E+00
         -2   -1    0    0    0  501 -0.00000000000E+00  0.00000000000E+00  0.12539082392E+03  0.12539082392E+03  0.00000000000E+00 0.  1.
          2   -1    0    0  501    0  0.00000000000E+00 -0.00000000000E+00 -0.36404299204E+03  0.36404299204E+03  0.00000000000E+00 0. -1.
         25    2    1    2    0    0  0.75032818080E+02  0.10420034546E+03 -0.27472067802E+03  0.32803535620E+03  0.12509239866E+03 0.  0.
          5    1    3    3  502    0  0.10828080744E+03  0.71951674443E+02 -0.17542042066E+03  0.21838400376E+03  0.41800000000E+01 0. -1.
         -5    1    3    3    0  502 -0.33247989363E+02  0.32248671019E+02 -0.99300257362E+02  0.10965135244E+03  0.41800000000E+01 0. -1.
        -11    1    1    2    0    0 -0.72820711671E+02 -0.12013597573E+03  0.37029259885E+02  0.14528136426E+03  0.00000000000E+00 0.  1.
         11    1    1    2    0    0 -0.22121064087E+01  0.15935630272E+02 -0.96074999144E+00  0.16117095504E+02  0.00000000000E+00 0. -1.
</event>
<event>
 7    1  0.2641580E-009  0.6883470E+02  0.7561462E-02  0.1364101E+00
          2   -1    0    0  501    0  0.00000000000E+00  0.00000000000E+00  0.28012596610E+03  0.28012596610E+03  0.00000000000E+00 0. -1.
         -2   -1    0    0    0  501 -0.00000000000E+00 -0.00000000000E+00 -0.11660406773E+03  0.11660406773E+03  0.00000000000E+00 0.  1.
         25    2    1    2    0    0 -0.12508980630E+02 -0.62309775308E+01  0.24405149691E+03  0.27459781400E+03  0.12509007408E+03 0.  0.
          5    1    3    3  502    0  0.11984542087E+02  0.12747215483E+02 -0.86563533824E+01  0.19963106108E+02  0.41800000000E+01 0.  1.
         -5    1    3    3    0  502 -0.24493522717E+02 -0.18978193013E+02  0.25270785029E+03  0.25463470789E+03  0.41800000000E+01 0.  1.
        -11    1    1    2    0    0 -0.20641612586E+02  0.37524208788E+02 -0.55572876821E+02  0.70160437951E+02  0.00000000000E+00 0. -1.
         11    1    1    2    0    0  0.33150593216E+02 -0.31293231257E+02 -0.24956721717E+02  0.51971781882E+02  0.00000000000E+00 0.  1.
</event>
<event>
 7    1  0.2641580E-009  0.1044797E+03  0.7561462E-02  0.1271148E+00
         -2   -1    0    0    0  501 -0.00000000000E+00  0.00000000000E+00  0.35106468272E+02  0.35106468272E+02  0.00000000000E+00 0.  1.
          2   -1    0    0  501    0  0.00000000000E+00 -0.00000000000E+00 -0.38449355393E+03  0.38449355393E+03  0.00000000000E+00 0. -1.
         25    2    1    2    0    0  0.11600174820E+01 -0.39361472398E+02 -0.16265919980E+03  0.20893961968E+03  0.12508828180E+03 0.  0.
          5    1    3    3  502    0  0.41283770511E+02  0.15680695832E+02 -0.12126630271E+03  0.12912483302E+03  0.41800000000E+01 0. -1.
         -5    1    3    3    0  502 -0.40123753029E+02 -0.55042168231E+02 -0.41392897085E+02  0.79814786661E+02  0.41800000000E+01 0. -1.
        -11    1    1    2    0    0 -0.35340063414E+02  0.49395383246E+02 -0.13279587895E+03  0.14602592042E+03  0.00000000000E+00 0.  1.
         11    1    1    2    0    0  0.34180045932E+02 -0.10033910847E+02 -0.53932006909E+02  0.64634482097E+02  0.00000000000E+00 0. -1.
</event>
<event>
 7    1  0.2641580E-009  0.1771653E+03  0.7561462E-02  0.1170575E+00
          1   -1    0    0  501    0  0.00000000000E+00  0.00000000000E+00  0.90120171114E+02  0.90120171114E+02  0.00000000000E+00 0. -1.
         -1   -1    0    0    0  501 -0.00000000000E+00 -0.00000000000E+00 -0.36375076859E+03  0.36375076859E+03  0.00000000000E+00 0.  1.
         25    2    1    2    0    0 -0.13704740460E+03  0.39179710640E+02 -0.17295556853E+03  0.25665922608E+03  0.12507313385E+03 0.  0.
          5    1    3    3  502    0 -0.11163704984E+03 -0.26171062764E+02 -0.78814815098E+02  0.13920130352E+03  0.41800000000E+01 0. -1.
         -5    1    3    3    0  502 -0.25410354759E+02  0.65350773405E+02 -0.94140753436E+02  0.11745792256E+03  0.41800000000E+01 0. -1.
        -11    1    1    2    0    0  0.52227092578E+02 -0.62434739981E+02 -0.53521294670E+02  0.97418144813E+02  0.00000000000E+00 0.  1.
         11    1    1    2    0    0  0.84820312019E+02  0.23255029341E+02 -0.47153734267E+02  0.99793568811E+02  0.00000000000E+00 0. -1.
</event>
<event>
 7    1  0.2641580E-009  0.9085725E+02  0.7561462E-02  0.1300789E+00
         -2   -1    0    0    0  501 -0.00000000000E+00  0.00000000000E+00  0.16442756127E+03  0.16442756127E+03  0.00000000000E+00 0.  1.
          2   -1    0    0  501    0  0.00000000000E+00 -0.00000000000E+00 -0.96681089821E+02  0.96681089821E+02  0.00000000000E+00 0. -1.
         25    2    1    2    0    0 -0.56712020001E+02 -0.60895294347E+01  0.68461872109E+02  0.15358037209E+03  0.12508623896E+03 0.  0.
          5    1    3    3  502    0  0.12689929406E+02  0.22513478270E+02 -0.23234937444E+02  0.35003224568E+02  0.41800000000E+01 0.  1.
         -5    1    3    3    0  502 -0.69401949407E+02 -0.28603007704E+02  0.91696809553E+02  0.11857714752E+03  0.41800000000E+01 0.  1.
        -11    1    1    2    0    0 -0.69650956983E+01 -0.12247006289E+02 -0.31465989535E+02  0.34476226861E+02  0.00000000000E+00 0. -1.
         11    1    1    2    0    0  0.63677115699E+02  0.18336535723E+02  0.30750588873E+02  0.73052052142E+02  0.00000000000E+00 0.  1.
</event>
<event>
 7    1  0.2641580E-009  0.1061053E+03  0.7561462E-02  0.1267957E+00
         -2   -1    0    0    0  501 -0.00000000000E+00  0.00000000000E+00  0.35899310407E+02  0.35899310407E+02  0.00000000000E+00 0.  1.
          2   -1    0    0  501    0  0.00000000000E+00 -0.00000000000E+00 -0.35602895354E+03  0.35602895354E+03  0.00000000000E+00 0. -1.
         25    2    1    2    0    0 -0.44664903575E+01  0.33922073561E+02 -0.16953416466E+03  0.21344601099E+03  0.12508680989E+03 0.  0.
          5    1    3    3  502    0 -0.55408886897E+02 -0.31785703344E+01 -0.37582973655E+02  0.67158025323E+02  0.41800000000E+01 0.  1.
         -5    1    3    3    0  502  0.50942396540E+02  0.37100643895E+02 -0.13195119100E+03  0.14628798567E+03  0.41800000000E+01 0.  1.
        -11    1    1    2    0    0 -0.38760865027E+02 -0.51788477144E+00 -0.82723484767E+02  0.91355611728E+02  0.00000000000E+00 0.  1.
         11    1    1    2    0    0  0.43227355384E+02 -0.33404188789E+02 -0.67871993706E+02  0.87126641229E+02  0.00000000000E+00 0. -1.
</event>
<event>
 7    1  0.2641580E-009  0.1062531E+03  0.7561462E-02  0.1267670E+00
          1   -1    0    0  501    0  0.00000000000E+00  0.00000000000E+00  0.87606376367E+02  0.87606376367E+02  0.00000000000E+00 0. -1.
         -1   -1    0    0    0  501 -0.00000000000E+00 -0.00000000000E+00 -0.13953205174E+03  0.13953205174E+03  0.00000000000E+00 0.  1.
         25    2    1    2    0    0 -0.51386094994E+01 -0.39330507863E+01 -0.51252769302E+02  0.13533672533E+03  0.12508920284E+03 0.  0.
          5    1    3    3  502    0  0.47046179946E+02 -0.39479853478E+02 -0.19750880143E+02  0.64649605912E+02  0.41800000000E+01 0. -1.
         -5    1    3    3    0  502 -0.52184789445E+02  0.35546802692E+02 -0.31501889158E+02  0.70687119418E+02  0.41800000000E+01 0. -1.
        -11    1    1    2    0    0  0.24613674352E+02  0.39833981868E+02 -0.13943289676E+02  0.48856876727E+02  0.00000000000E+00 0.  1.
         11    1    1    2    0    0 -0.19475064852E+02 -0.35900931082E+02  0.13270383603E+02  0.42944826050E+02  0.00000000000E+00 0. -1.
</event>
<event>
 6    1  0.2641580E-009  0.1215241E+03  0.7561462E-02  0.1240604E+00
          1   -1    0    0  501    0  0.00000000000E+00  0.00000000000E+00  0.51775179473E+03  0.51775179473E+03  0.00000000000E+00 0. -1.
         -1   -1    0    0    0  501 -0.00000000000E+00 -0.00000000000E+00 -0.34651090376E+02  0.34651090376E+02  0.00000000000E+00 0.  1.
          5    1    1    2  502    0 -0.85854468021E+02 -0.61061927587E+01  0.14300013952E+03  0.16695744240E+03  0.41800000000E+01 0. -1.
         -5    1    1    2    0  502  0.29086558124E+02  0.39969406207E+02  0.36273349019E+02  0.61455752743E+02  0.41800000000E+01 0. -1.
        -11    1    1    2    0    0 -0.19285914653E+02 -0.23670599807E+02  0.13700235574E+03  0.14036341859E+03  0.00000000000E+00 0.  1.
         11    1    1    2    0    0  0.76053824550E+02 -0.10192613642E+02  0.16682486007E+03  0.18362627137E+03  0.00000000000E+00 0. -1.
</event>
<event>
 7    1  0.2641580E-009  0.1037975E+03  0.7561462E-02  0.1272507E+00
         -1   -1    0    0    0  501 -0.00000000000E+00  0.00000000000E+00  0.99408921983E+02  0.99408921983E+02  0.00000000000E+00 0.  1.
          1   -1    0    0  501    0  0.00000000000E+00 -0.00000000000E+00 -0.21090264075E+03  0.21090264075E+03  0.00000000000E+00 0. -1.
         25    2    1    2    0    0 -0.34283178873E+02 -0.88649807814E+02 -0.58447728281E+02  0.16762362436E+03  0.12508963875E+03 0.  0.
          5    1    3    3  502    0 -0.68905248916E-02 -0.56234237174E+02 -0.93164555230E+02  0.10890085504E+03  0.41800000000E+01 0.  1.
         -5    1    3    3    0  502 -0.34276288348E+02 -0.32415570641E+02  0.34716826949E+02  0.58722769317E+02  0.41800000000E+01 0.  1.
        -11    1    1    2    0    0  0.43736716761E+02  0.79221134705E+02 -0.74637606617E+02  0.11730158097E+03  0.00000000000E+00 0. -1.
         11    1    1    2    0    0 -0.94535378880E+01  0.94286731091E+01  0.21591616128E+02  0.25386357403E+02  0.00000000000E+00 0.  1.
</event>
<event>
 7    1  0.2641580E-009  0.8499646E+02  0.7561462E-02  0.1315442E+00
         -1   -1    0    0    0  501 -0.00000000000E+00  0.00000000000E+00  0.29295194367E+03  0.29295194367E+03  0.00000000000E+00 0.  1.
          1   -1    0    0  501    0  0.00000000000E+00 -0.00000000000E+00 -0.39396435358E+02  0.39396435358E+02  0.00000000000E+00 0. -1.
         25    2    1    2    0    0  0.15237488345E+01  0.26011931113E+02  0.13049246271E+03  0.18263482731E+03  0.12509298522E+03 0.  0.
          5    1    3    3  502    0 -0.24576693590E+02 -0.24324566428E+02  0.11982926913E+03  0.12478871961E+03  0.41800000000E+01 0. -1.
         -5    1    3    3    0  502  0.26100442424E+02  0.50336497541E+02  0.10663193579E+02  0.57846107706E+02  0.41800000000E+01 0. -1.
        -11    1    1    2    0    0 -0.19456773202E+02  0.20617429587E+02  0.18563248719E+02  0.33885669969E+02  0.00000000000E+00 0. -1.
         11    1    1    2    0    0  0.17933024368E+02 -0.46629360700E+02  0.10449979688E+03  0.11582788174E+03  0.00000000000E+00 0.  1.
</event>
<event>
 7    1  0.2641580E-009  0.1179451E+03  0.7561462E-02  0.1246526E+00
         -1   -1    0    0    0  501 -0.00000000000E+00  0.00000000000E+00  0.56647077241E+02  0.56647077241E+02  0.00000000000E+00 0.  1.
          1   -1    0    0  501    0  0.00000000000E+00 -0.00000000000E+00 -0.42360728367E+03  0.42360728367E+03  0.00000000000E+00 0. -1.
         25    2    1    2    0    0 -0.37346763892E+02  0.79040124708E+02 -0.30147787615E+03  0.33790260671E+03  0.12508852755E+03 0.  0.
          5    1    3    3  502    0  0.12186571044E+02  0.60936487915E+02 -0.47115134699E+02  0.78096583734E+02  0.41800000000E+01 0. -1.
         -5    1    3    3    0  502 -0.49533334936E+02  0.18103636793E+02 -0.25436274146E+03  0.25980602298E+03  0.41800000000E+01 0. -1.
        -11    1    1    2    0    0  0.11959704356E+02  0.17323903587E+02 -0.29838427590E+02  0.36516899167E+02  0.00000000000E+00 0.  1.
         11    1    1    2    0    0  0.25387059536E+02 -0.96364028295E+02 -0.35643902685E+02  0.10583485503E+03  0.00000000000E+00 0. -1.
</event>
<event>
 7    1  0.2641580E-009  0.1080215E+03  0.7561462E-02  0.1264278E+00
          4   -1    0    0  501    0  0.00000000000E+00  0.00000000000E+00  0.45911964633E+02  0.45911964633E+02  0.00000000000E+00 0. -1.
         -4   -1    0    0    0  501 -0.00000000000E+00 -0.00000000000E+00 -0.27775134823E+03  0.27775134823E+03  0.00000000000E+00 0.  1.
         25    2    1    2    0    0 -0.15778590088E+02  0.24010467271E+02 -0.17440872736E+03  0.21654400768E+03  0.12508971437E+03 0.  0.
          5    1    3    3  502    0  0.27593284877E+02  0.63599640463E+02 -0.92415468463E+02  0.11560447590E+03  0.41800000000E+01 0.  1.
         -5    1    3    3    0  502 -0.43371874966E+02 -0.39589173192E+02 -0.81993258892E+02  0.10093953178E+03  0.41800000000E+01 0.  1.
        -11    1    1    2    0    0 -0.33145231029E+02  0.16751397288E+00 -0.94825299220E+01  0.34475393756E+02  0.00000000000E+00 0. -1.
         11    1    1    2    0    0  0.48923821117E+02 -0.24177981244E+02 -0.47948126321E+02  0.72643911427E+02  0.00000000000E+00 0.  1.
</event>
<event>
 7    1  0.2641580E-009  0.9219438E+02  0.7561462E-02  0.1297623E+00
         -2   -1    0    0    0  501 -0.00000000000E+00  0.00000000000E+00  0.32569484259E+02  0.32569484259E+02  0.00000000000E+00 0.  1.
          2   -1    0    0  501    0  0.00000000000E+00 -0.00000000000E+00 -0.36290053798E+03  0.36290053798E+03  0.00000000000E+00 0. -1.
         25    2    1    2    0    0  0.13419883111E+01 -0.84703956314E+01 -0.17404279503E+03  0.21449979504E+03  0.12508284869E+03 0.  0.
          5    1    3    3  502    0  0.46857283336E+02 -0.80076665957E+01 -0.15957219897E+03  0.16655475620E+03  0.41800000000E+01 0. -1.
         -5    1    3    3    0  502 -0.45515295025E+02 -0.46272903570E+00 -0.14470596052E+02  0.47945038841E+02  0.41800000000E+01 0. -1.
        -11    1    1    2    0    0 -0.13892179734E+02  0.47746812706E+02 -0.92418399612E+02  0.10494718371E+03  0.00000000000E+00 0. -1.
         11    1    1    2    0    0  0.12550191423E+02 -0.39276417075E+02 -0.63869859082E+02  0.76023043494E+02  0.00000000000E+00 0.  1.
</event>
<event>
 7    1  0.2641580E-009  0.1701013E+03  0.7561462E-02  0.1177742E+00
          1   -1    0    0  501    0  0.00000000000E+00  0.00000000000E+00  0.10510303435E+04  0.10510303435E+04  0.00000000000E+00 0. -1.
         -1   -1    0    0    0  501 -0.00000000000E+00 -0.00000000000E+00 -0.29363608226E+02  0.29363608226E+02  0.00000000000E+00 0.  1.
         25    2    1    2    0    0  0.84127456329E+02  0.10583752502E+03  0.62633438707E+03  0.65285658986E+03  0.12509177388E+03 0.  0.
          5    1    3    3  502    0  0.42323646581E+02  0.12918534874E+03  0.47305702589E+03  0.49222003975E+03  0.41800000000E+01 0.  1.
         -5    1    3    3    0  502  0.41803809748E+02 -0.23347823722E+02  0.15327736118E+03  0.16063655011E+03  0.41800000000E+01 0.  1.
        -11    1    1    2    0    0 -0.99067172734E+02 -0.85262240058E+02  0.36642244028E+03  0.38903644950E+03  0.00000000000E+00 0.  1.
         11    1    1    2    0    0  0.14939716405E+02 -0.20575284962E+02  0.28909907946E+02  0.38500912391E+02  0.00000000000E+00 0. -1.
</event>
<event>
 7    1  0.2641580E-009  0.9519474E+02  0.7561462E-02  0.1290738E+00
         -1   -1    0    0    0  501 -0.00000000000E+00  0.00000000000E+00  0.26480805989E+03  0.26480805989E+03  0.00000000000E+00 0.  1.
          1   -1    0    0  501    0  0.00000000000E+00 -0.00000000000E+00 -0.50311138304E+02  0.50311138304E+02  0.00000000000E+00 0. -1.
         25    2    1    2    0    0  0.21838849122E+01 -0.25476028565E+02  0.75580661525E+02  0.14836828695E+03  0.12508762846E+03 0.  0.
          5    1    3    3  502    0  0.41481949023E+02 -0.49721772255E+02  0.65575886709E+01  0.65218717406E+02  0.41800000000E+01 0.  1.
         -5    1    3    3    0  502 -0.39298064111E+02  0.24245743689E+02  0.69023072854E+02  0.83149569549E+02  0.41800000000E+01 0.  1.
        -11    1    1    2    0    0  0.36217589522E+02  0.15932844850E+02  0.11228967721E+03  0.11905688113E+03  0.00000000000E+00 0.  1.
         11    1    1    2    0    0 -0.38401474434E+02  0.95431837149E+01  0.26626582854E+02  0.47694030115E+02  0.00000000000E+00 0. -1.
</event>
<event>
 7    1  0.2641580E-009  0.8801820E+02  0.7561462E-02  0.1307723E+00
          2   -1    0    0  501    0  0.00000000000E+00  0.00000000000E+00  0.14384904310E+03  0.14384904310E+03  0.00000000000E+00 0. -1.
         -2   -1    0    0    0  501 -0.00000000000E+00 -0.00000000000E+00 -0.91315028623E+02  0.91315028623E+02  0.00000000000E+00 0.  1.
         25    2    1    2    0    0 -0.19088081500E+02  0.25640210640E+02  0.29888207315E+02  0.13252300721E+03  0.12508903727E+03 0.  0.
          5    1    3    3  502    0 -0.26403619204E+01  0.49929487980E+02  0.67837553613E+02  0.84376130281E+02  0.41800000000E+01 0.  1.
         -5    1    3    3    0  502 -0.16447719580E+02 -0.24289277340E+02 -0.37949346298E+02  0.48146876924E+02  0.41800000000E+01 0.  1.
        -11    1    1    2    0    0 -0.30393233935E+02 -0.34484559018E+02  0.24990795976E+02  0.52320869290E+02  0.00000000000E+00 0. -1.
         11    1    1    2    0    0  0.49481315436E+02  0.88443483784E+01 -0.23449888113E+01  0.50320195230E+02  0.00000000000E+00 0.  1.
</event>
<event>
 7    1  0.2641580E-009  0.1708865E+03  0.7561462E-02  0.1176927E+00
         -1   -1    0    0    0  501 -0.00000000000E+00  0.00000000000E+00  0.64811089660E+02  0.64811089660E+02  0.00000000000E+00 0.  1.
          1   -1    0    0  501    0  0.00000000000E+00 -0.00000000000E+00 -0.49056439710E+03  0.49056439710E+03  0.00000000000E+00 0. -1.
         25    2    1    2    0    0 -0.44276658239E+02  0.13137226502E+03 -0.18476421389E+03  0.26268647392E+03  0.12508906574E+03 0.  0.
          5    1    3    3  502    0 -0.79749610699E+02  0.76642937584E+02 -0.71045093252E+02  0.13152573118E+03  0.41800000000E+01 0. -1.
         -5    1    3    3    0  502  0.35472952460E+02  0.54729327436E+02 -0.11371912064E+03  0.13116074274E+03  0.41800000000E+01 0. -1.
        -11    1    1    2    0    0  0.34946489110E+02 -0.93215877661E+00 -0.59157810636E+02  0.68715155391E+02  0.00000000000E+00 0.  1.
         11    1    1    2    0    0  0.93301691284E+01 -0.13044010624E+03 -0.18183128291E+03  0.22397385744E+03  0.00000000000E+00 0. -1.
</event>
<event>
 7    1  0.2641580E-009  0.1400350E+03  0.7561462E-02  0.1213282E+00
         -1   -1    0    0    0  501 -0.00000000000E+00  0.00000000000E+00  0.51344318053E+02  0.51344318053E+02  0.00000000000E+00 0.  1.
          1   -1    0    0  501    0  0.00000000000E+00 -0.00000000000E+00 -0.77242209132E+03  0.77242209132E+03  0.00000000000E+00 0. -1.
         25    2    1    2    0    0  0.92404814640E+02  0.83618560025E+02 -0.60662820755E+03  0.63180301514E+03  0.12508618789E+03 0.  0.
          5    1    3    3  502    0  0.32930545182E+02  0.12945527005E+02 -0.26632478757E+02  0.44483354192E+02  0.41800000000E+01 0.  1.
         -5    1    3    3    0  502  0.59474269457E+02  0.70673033021E+02 -0.57999572879E+03  0.58731966095E+03  0.41800000000E+01 0.  1.
        -11    1    1    2    0    0 -0.10747302595E+03 -0.57662349128E+02 -0.10367615903E+03  0.16007543149E+03  0.00000000000E+00 0. -1.
         11    1    1    2    0    0  0.15068211312E+02 -0.25956210898E+02 -0.10773406686E+02  0.31887962744E+02  0.00000000000E+00 0.  1.
</event>
<event>
 7    1  0.2641580E-009  0.1142657E+03  0.7561462E-02  0.1252868E+00
         -2   -1    0    0    0  501 -0.00000000000E+00  0.00000000000E+00  0.11290520432E+03  0.11290520432E+03  0.00000000000E+00 0.  1.
          2   -1    0    0  501    0  0.00000000000E+00 -0.00000000000E+00 -0.23358220363E+03  0.23358220363E+03  0.00000000000E+00 0. -1.
         25    2    1    2    0    0 -0.93035080832E+02 -0.10129014806E+02  0.16142645787E+02  0.15705431489E+03  0.12508936648E+03 0.  0.
          5    1    3    3  502    0 -0.11147193653E+02 -0.29444781452E+02 -0.43484175526E+02  0.53847943343E+02  0.41800000000E+01 0. -1.
         -5    1    3    3    0  502 -0.81887887179E+02  0.19315766646E+02  0.59626821313E+02  0.10320637155E+03  0.41800000000E+01 0. -1.
        -11    1    1    2    0    0 -0.87374549262E+01  0.61440380158E+01  0.73136326833E+01  0.12945329071E+02  0.00000000000E+00 0.  1.
         11    1    1    2    0    0  0.10177253576E+03  0.39849767906E+01 -0.14413327779E+03  0.17648776399E+03  0.00000000000E+00 0. -1.
</event>
<event>
 7    1  0.2641580E-009  0.1012726E+03  0.7561462E-02  0.1277642E+00
         -2   -1    0    0    0  501 -0.00000000000E+00  0.00000000000E+00  0.24245652316E+02  0.24245652316E+02  0.00000000000E+00 0.  1.
          2   -1    0    0  501    0  0.00000000000E+00 -0.00000000000E+00 -0.84323971368E+03  0.84323971368E+03  0.00000000000E+00 0. -1.
         25    2    1    2    0    0 -0.54075104729E+02  0.58196259544E+02 -0.29871886338E+03  0.33345394707E+03  0.12509058277E+03 0.  0.
          5    1    3    3  502    0 -0.44549348121E+02  0.57544162727E+02 -0.59734903303E+02  0.94242804259E+02  0.41800000000E+01 0.  1.
         -5    1    3    3    0  502 -0.95257566077E+01  0.65209681708E+00 -0.23898396008E+03  0.23921114281E+03  0.41800000000E+01 0.  1.
        -11    1    1    2    0    0 -0.19410984517E+02 -0.38551249199E+02 -0.22594886610E+03  0.23003450878E+03  0.00000000000E+00 0. -1.
         11    1    1    2    0    0  0.73486089246E+02 -0.19645010345E+02 -0.29432633188E+03  0.30399691016E+03  0.00000000000E+00 0.  1.
</event>
<event>
 7    1  0.2641580E-009  0.1031265E+03  0.7561462E-02  0.1273856E+00
          4   -1    0    0  501    0  0.00000000000E+00  0.00000000000E+00  0.36520753933E+02  0.36520753933E+02  0.00000000000E+00 0. -1.
         -4   -1    0    0    0  501 -0.00000000000E+00 -0.00000000000E+00 -0.55504599738E+03  0.55504599738E+03  0.00000000000E+00 0.  1.
         25    2    1    2    0    0 -0.59270742377E+02 -0.67427987452E+02 -0.23249430028E+03  0.27885633344E+03  0.12509076961E+03 0.  0.
          5    1    3    3  502    0 -0.89199686027E+01 -0.23819011321E+02  0.97713003065E+01  0.27565591774E+02  0.41800000000E+01 0. -1.
         -5    1    3    3    0  502 -0.50350773774E+02 -0.43608976131E+02 -0.24226560059E+03  0.25129074167E+03  0.41800000000E+01 0. -1.
        -11    1    1    2    0    0  0.41197487094E+02 -0.27295335422E+01 -0.17737031773E+03  0.18211236341E+03  0.00000000000E+00 0.  1.
         11    1    1    2    0    0  0.18073255282E+02  0.70157520994E+02 -0.10866062543E+03  0.13059805446E+03  0.00000000000E+00 0. -1.
</event>
<event>
 7    1  0.2641580E-009  0.1043076E+03  0.7561462E-02  0.1271490E+00
         -1   -1    0    0    0  501 -0.00000000000E+00  0.00000000000E+00  0.18232484540E+03  0.18232484540E+03  0.00000000000E+00 0.  1.
          1   -1    0    0  501    0  0.00000000000E+00 -0.00000000000E+00 -0.87374943195E+02  0.87374943195E+02  0.00000000000E+00 0. -1.
         25    2    1    2    0    0 -0.35449637222E+02 -0.28155225093E+02  0.22456246089E+01  0.13304786716E+03  0.12508916279E+03 0.  0.
          5    1    3    3  502    0 -0.29822957596E+02  0.34711478388E+02  0.38665327269E+02  0.60056435662E+02  0.41800000000E+01 0.  1.
         -5    1    3    3    0  502 -0.56266796258E+01 -0.62866703481E+02 -0.36419702660E+02  0.72991431497E+02  0.41800000000E+01 0.  1.
        -11    1    1    2    0    0  0.28329063938E+02  0.60224515291E+02  0.70786739100E+02  0.97161157558E+02  0.00000000000E+00 0. -1.
         11    1    1    2    0    0  0.71205732844E+01 -0.32069290198E+02  0.21917538492E+02  0.39490763872E+02  0.00000000000E+00 0.  1.
</event>
<event>
 7    1  0.2641580E-009  0.1042137E+03  0.7561462E-02  0.1271677E+00
          1   -1    0    0  501    0  0.00000000000E+00  0.00000000000E+00  0.28976373067E+03  0.28976373067E+03  0.00000000000E+00 0. -1.
         -1   -1    0    0    0  501 -0.00000000000E+00 -0.00000000000E+00 -0.42624299179E+02  0.42624299179E+02  0.00000000000E+00 0.  1.
         25    2    1    2    0    0  0.65815141658E+01 -0.22606406049E+02  0.16540406955E+03  0.20871055245E+03  0.12508885864E+03 0.  0.
          5    1    3    3  502    0  0.57360413320E+01 -0.71355014806E+02  0.12946237982E+03  0.14799466375E+03  0.41800000000E+01 0.  1.
         -5    1    3    3    0  502  0.84547283383E+00  0.48748608757E+02  0.35941689734E+02  0.60715888703E+02  0.41800000000E+01 0.  1.
        -11    1    1    2    0    0  0.35313668289E+02 -0.76178098377E+01  0.14594465097E+02  0.38962605228E+02  0.00000000000E+00 0.  1.
         11    1    1    2    0    0 -0.41895182454E+02  0.30224215887E+02  0.67140896843E+02  0.84714872176E+02  0.00000000000E+00 0. -1.
</event>
<event>
 7    1  0.2641580E-009  0.1296580E+03  0.7561462E-02  0.1227964E+00
          4   -1    0    0  501    0  0.00000000000E+00  0.00000000000E+00  0.97835974572E+02  0.97835974572E+02  0.00000000000E+00 0.  1.
         -4   -1    0    0    0  501 -0.00000000000E+00 -0.00000000000E+00 -0.23321500296E+03  0.23321500296E+03  0.00000000000E+00 0. -1.
         25    2    1    2    0    0 -0.46256721723E+02  0.93143871071E+02 -0.68878283029E+02  0.17664858366E+03  0.12508013117E+03 0.  0.
          5    1    3    3  502    0 -0.63587886759E+02  0.49941824694E+01 -0.57536730220E+02  0.86001796059E+02  0.41800000000E+01 0.  1.
         -5    1    3    3    0  502  0.17331165036E+02  0.88149688601E+02 -0.11341552809E+02  0.90646787600E+02  0.41800000000E+01 0.  1.
        -11    1    1    2    0    0  0.56467559480E+01 -0.28984264149E+02  0.22710044496E+02  0.37252107887E+02  0.00000000000E+00 0.  1.
         11    1    1    2    0    0  0.40609965775E+02 -0.64159606922E+02 -0.89210789859E+02  0.11715028599E+03  0.00000000000E+00 0. -1.
</event>
<event>
 6    1  0.2641580E-009  0.1527263E+03  0.7561462E-02  0.1197162E+00
          3   -1    0    0  501    0  0.00000000000E+00  0.00000000000E+00  0.22205162990E+03  0.22205162990E+03  0.00000000000E+00 0. -1.
         -3   -1    0    0    0  501 -0.00000000000E+00 -0.00000000000E+00 -0.23044694221E+03  0.23044694221E+03  0.00000000000E+00 0.  1.
          5    1    1    2  502    0 -0.35499639933E+01  0.56765406456E+02  0.15392501030E+02  0.59070424939E+02  0.41800000000E+01 0. -1.
         -5    1    1    2    0  502  0.27787852170E+02  0.91144928350E+02 -0.15097718330E+03  0.17858091995E+03  0.41800000000E+01 0. -1.
        -11    1    1    2    0    0 -0.28487123862E+02 -0.78583160987E+02  0.18102660776E+02  0.85525059157E+02  0.00000000000E+00 0.  1.
         11    1    1    2    0    0  0.42492356855E+01 -0.69327173819E+02  0.10908670919E+03  0.12932216807E+03  0.00000000000E+00 0. -1.
</event>
<event>
 7    1  0.2641580E-009  0.1589232E+03  0.7561462E-02  0.1189918E+00
         -1   -1    0    0    0  501 -0.00000000000E+00  0.00000000000E+00  0.59891206702E+03  0.59891206702E+03  0.00000000000E+00 0.  1.
          1   -1    0    0  501    0  0.00000000000E+00 -0.00000000000E+00 -0.57574530063E+02  0.57574530063E+02  0.00000000000E+00 0. -1.
         25    2    1    2    0    0  0.49749387022E+02 -0.11795227328E+03  0.42558578389E+03  0.46168996546E+03  0.12508646801E+03 0.  0.
          5    1    3    3  502    0 -0.99730432687E+01 -0.11245415806E+03  0.21745688038E+03  0.24505176286E+03  0.41800000000E+01 0.  1.
         -5    1    3    3    0  502  0.59722430290E+02 -0.54981152246E+01  0.20812890351E+03  0.21663820260E+03  0.41800000000E+01 0.  1.
        -11    1    1    2    0    0 -0.49129178738E+02  0.31634229840E+02  0.11686168354E+02  0.59589992716E+02  0.00000000000E+00 0. -1.
         11    1    1    2    0    0 -0.62020828343E+00  0.86318043441E+02  0.10406558471E+03  0.13520663890E+03  0.00000000000E+00 0.  1.
</event>
<event>
 7    1  0.2641580E-009  0.1055494E+03  0.7561462E-02  0.1269041E+00
         -2   -1    0    0    0  501 -0.00000000000E+00  0.00000000000E+00  0.22634012751E+02  0.22634012751E+02  0.00000000000E+00 0. -1.
          2   -1    0    0  501    0  0.00000000000E+00 -0.00000000000E+00 -0.70129343170E+03  0.70129343170E+03  0.00000000000E+00 0.  1.
         25    2    1    2    0    0  0.37640155965E+02  0.54515565847E+02 -0.41137917474E+03  0.43505141275E+03  0.12509267790E+03 0.  0.
          5    1    3    3  502    0  0.66885391390E+02  0.78456397009E+02 -0.31360319226E+03  0.33014163084E+03  0.41800000000E+01 0.  1.
         -5    1    3    3    0  502 -0.29245235425E+02 -0.23940831162E+02 -0.97775982475E+02  0.10490978191E+03  0.41800000000E+01 0.  1.
        -11    1    1    2    0    0 -0.21897894409E+02 -0.48178695592E+02 -0.26669611768E+03  0.27189616340E+03  0.00000000000E+00 0.  1.
         11    1    1    2    0    0 -0.15742261556E+02 -0.63368702554E+01 -0.58412652747E+00  0.16979868296E+02  0.00000000000E+00 0. -1.
</event>
<event>
 7    1  0.2641580E-009  0.1122771E+03  0.7561462E-02  0.1256410E+00
         -2   -1    0    0    0  501 -0.00000000000E+00  0.00000000000E+00  0.15516637636E+03  0.15516637636E+03  0.00000000000E+00 0.  1.
          2   -1    0    0  501    0  0.00000000000E+00 -0.00000000000E+00 -0.11940224559E+03  0.11940224559E+03  0.00000000000E+00 0. -1.
         25    2    1    2    0    0 -0.77340002647E+02  0.19329302455E+02 -0.55161040400E+00  0.14833555193E+03  0.12509210107E+03 0.  0.
          5    1    3    3  502    0 -0.25003908578E+02  0.43896099860E+02 -0.50695228920E+02  0.71690596750E+02  0.41800000000E+01 0.  1.
         -5    1    3    3    0  502 -0.52336094069E+02 -0.24566797405E+02  0.50143618516E+02  0.76644955183E+02  0.41800000000E+01 0.  1.
        -11    1    1    2    0    0  0.72886554899E+02 -0.47746794714E+02  0.42291732616E+02  0.96854514289E+02  0.00000000000E+00 0.  1.
         11    1    1    2    0    0  0.44534477486E+01  0.28417492260E+02 -0.59759914363E+01  0.29378555731E+02  0.00000000000E+00 0. -1.
</event>
<event>
 7    1  0.2641580E-009  0.1037473E+03  0.7561462E-02  0.1272608E+00
         -1   -1    0    0    0  501 -0.00000000000E+00  0.00000000000E+00  0.93915447877E+02  0.93915447877E+02  0.00000000000E+00 0.  1.
          1   -1    0    0  501    0  0.00000000000E+00 -0.00000000000E+00 -0.15617712805E+03  0.15617712805E+03  0.00000000000E+00 0. -1.
         25    2    1    2    0    0 -0.16032488260E+02 -0.12039594732E+01 -0.88028645903E+02  0.15380978953E+03  0.12509963493E+03 0.  0.
          5    1    3    3  502    0 -0.17743687229E+02 -0.57730569096E+02 -0.73592713485E+02  0.95294369837E+02  0.41800000000E+01 0. -1.
         -5    1    3    3    0  502  0.17111989690E+01  0.56526609623E+02 -0.14435932419E+02  0.58515419696E+02  0.41800000000E+01 0. -1.
        -11    1    1    2    0    0 -0.11061461616E+02  0.40797912828E+02  0.23243253184E+02  0.48239759978E+02  0.00000000000E+00 0.  1.
         11    1    1    2    0    0  0.27093949875E+02 -0.39593953355E+02  0.25237125461E+01  0.48043026415E+02  0.00000000000E+00 0. -1.
</event>
<event>
 7    1  0.2641580E-009  0.1571721E+03  0.7561462E-02  0.1191927E+00
          2   -1    0    0  501    0  0.00000000000E+00  0.00000000000E+00  0.52530709551E+03  0.52530709551E+03  0.00000000000E+00 0. -1.
         -2   -1    0    0    0  501 -0.00000000000E+00 -0.00000000000E+00 -0.53222346881E+02  0.53222346881E+02  0.00000000000E+00 0.  1.
         25    2    1    2    0    0  0.21252802101E+02 -0.12065012134E+03  0.30217955095E+03  0.34923641584E+03  0.12508181226E+03 0.  0.
          5    1    3    3  502    0 -0.22811028342E+02  0.18042348792E+02  0.46144029555E+02  0.54704782492E+02  0.41800000000E+01 0.  1.
         -5    1    3    3    0  502  0.44063830443E+02 -0.13869247013E+03  0.25603552140E+03  0.29453163334E+03  0.41800000000E+01 0.  1.
        -11    1    1    2    0    0 -0.29888137792E+02  0.15120522083E+02  0.91800120949E+02  0.97719973266E+02  0.00000000000E+00 0. -1.
         11    1    1    2    0    0  0.86353356913E+01  0.10552959925E+03  0.78105076729E+02  0.13157305329E+03  0.00000000000E+00 0.  1.
</event>
<event>
 7    1  0.2641580E-009  0.9864984E+02  0.7561462E-02  0.1283161E+00
         -1   -1    0    0    0  501 -0.00000000000E+00  0.00000000000E+00  0.35243574366E+02  0.35243574366E+02  0.00000000000E+00 0. -1.
          1   -1    0    0  501    0  0.00000000000E+00 -0.00000000000E+00 -0.45987130092E+03  0.45987130092E+03  0.00000000000E+00 0.  1.
         25    2    1    2    0    0 -0.33666336582E+02 -0.18535866223E+02 -0.12763114713E+03  0.18279357478E+03  0.12508709250E+03 0.  0.
          5    1    3    3  502    0 -0.62643213959E+02 -0.29579195580E+02 -0.22274323054E+02  0.72888400544E+02  0.41800000000E+01 0. -1.
         -5    1    3    3    0  502  0.28976877378E+02  0.11043329356E+02 -0.10535682407E+03  0.10990517424E+03  0.41800000000E+01 0. -1.
        -11    1    1    2    0    0  0.81727341227E+00  0.50657253899E+02 -0.15919838731E+03  0.16706571111E+03  0.00000000000E+00 0.  1.
         11    1    1    2    0    0  0.32849063170E+02 -0.32121387676E+02 -0.13779819212E+03  0.14525558939E+03  0.00000000000E+00 0. -1.
</event>
<event>
 7    1  0.2641580E-009  0.1123277E+03  0.7561462E-02  0.1256319E+00
         -2   -1    0    0    0  501 -0.00000000000E+00  0.00000000000E+00  0.26415635944E+02  0.26415635944E+02  0.00000000000E+00 0.  1.
          2   -1    0    0  501    0  0.00000000000E+00 -0.00000000000E+00 -0.65044435222E+03  0.65044435222E+03  0.00000000000E+00 0. -1.
         25    2    1    2    0    0  0.27212826024E+02  0.25403539115E+02 -0.18199334774E+03  0.22394946971E+03  0.12508360668E+03 0.  0.
          5    1    3    3  502    0  0.60686982390E+02  0.56441452028E+02 -0.13374587534E+03  0.15739751876E+03  0.41800000000E+01 0. -1.
         -5    1    3    3    0  502 -0.33474156367E+02 -0.31037912913E+02 -0.48247472399E+02  0.66551950951E+02  0.41800000000E+01 0. -1.
        -11    1    1    2    0    0 -0.10692280409E+01  0.32386619533E+02 -0.10245819489E+03  0.10746030929E+03  0.00000000000E+00 0.  1.
         11    1    1    2    0    0 -0.26143597983E+02 -0.57790158648E+02 -0.33957717364E+03  0.34545020916E+03  0.00000000000E+00 0. -1.
</event>
<event>
 7    1  0.2641580E-009  0.6160270E+02  0.7561462E-02  0.1391226E+00
          2   -1    0    0  501    0  0.00000000000E+00  0.00000000000E+00  0.10744612812E+04  0.10744612812E+04  0.00000000000E+00 0. -1.
         -2   -1    0    0    0  501 -0.00000000000E+00 -0.00000000000E+00 -0.11182131143E+02  0.11182131143E+02  0.00000000000E+00 0.  1.
         25    2    1    2    0    0  0.10366833509E+02 -0.42548879085E+01  0.97044468382E+03  0.97853898171E+03  0.12510027597E+03 0.  0.
          5    1    3    3  502    0 -0.37336104376E+02 -0.77423662329E+00  0.10090595026E+03  0.10767575090E+03  0.41800000000E+01 0.  1.
         -5    1    3    3    0  502  0.47702937885E+02 -0.34806512852E+01  0.86953873356E+03  0.87086323081E+03  0.41800000000E+01 0.  1.
        -11    1    1    2    0    0  0.12595093093E+02  0.71325558148E+01  0.78630106515E+02  0.79951256231E+02  0.00000000000E+00 0. -1.
         11    1    1    2    0    0 -0.22961926602E+02 -0.28776679062E+01  0.14204359739E+02  0.27153174427E+02  0.00000000000E+00 0.  1.
</event>
<event>
 7    1  0.2641580E-009  0.1291493E+03  0.7561462E-02  0.1228723E+00
          2   -1    0    0  501    0  0.00000000000E+00  0.00000000000E+00  0.74408994918E+03  0.74408994918E+03  0.00000000000E+00 0. -1.
         -2   -1    0    0    0  501 -0.00000000000E+00 -0.00000000000E+00 -0.30426483206E+02  0.30426483206E+02  0.00000000000E+00 0.  1.
         25    2    1    2    0    0  0.87991916036E+02  0.22415259332E+01  0.53094903069E+03  0.55254402072E+03  0.12510163835E+03 0.  0.
          5    1    3    3  502    0 -0.16182824072E+02 -0.21231664250E+02  0.30224108252E+02  0.40541786855E+02  0.41800000000E+01 0. -1.
         -5    1    3    3    0  502  0.10417474011E+03  0.23473190183E+02  0.50072492244E+03  0.51200223387E+03  0.41800000000E+01 0. -1.
        -11    1    1    2    0    0 -0.51931790435E+02 -0.44830011033E+02  0.11824215461E+03  0.13670350352E+03  0.00000000000E+00 0. -1.
         11    1    1    2    0    0 -0.36060125602E+02  0.42588485100E+02  0.64472280677E+02  0.85268908151E+02  0.00000000000E+00 0.  1.
</event>
<event>
 7    1  0.2641580E-009  0.1075404E+03  0.7561462E-02  0.1265194E+00
         -2   -1    0    0    0  501 -0.00000000000E+00  0.00000000000E+00  0.54018172572E+02  0.54018172572E+02  0.00000000000E+00 0.  1.
          2   -1    0    0  501    0  0.00000000000E+00 -0.00000000000E+00 -0.24303292412E+03  0.24303292412E+03  0.00000000000E+00 0. -1.
         25    2    1    2    0    0 -0.70170424228E+01  0.13232190826E+02 -0.14886284723E+03  0.19501674242E+03  0.12508818002E+03 0.  0.
          5    1    3    3  502    0 -0.21283452024E+02  0.66879006039E+02 -0.83929789643E+02  0.10948729958E+03  0.41800000000E+01 0. -1.
         -5    1    3    3    0  502  0.14266409601E+02 -0.53646815213E+02 -0.64933057583E+02  0.85529442840E+02  0.41800000000E+01 0. -1.
        -11    1    1    2    0    0 -0.35384066938E+02 -0.27016191086E+02 -0.41189805987E+01  0.44708755016E+02  0.00000000000E+00 0.  1.
         11    1    1    2    0    0  0.42401109361E+02  0.13784000261E+02 -0.36032923720E+02  0.57325599256E+02  0.00000000000E+00 0. -1.
</event>
<event>
 7    1  0.2641580E-009  0.1098491E+03  0.7561462E-02  0.1260850E+00
          2   -1    0    0  501    0  0.00000000000E+00  0.00000000000E+00  0.50856240507E+03  0.50856240507E+03  0.00000000000E+00 0.  1.
         -2   -1    0    0    0  501 -0.00000000000E+00 -0.00000000000E+00 -0.27357716519E+02  0.27357716519E+02  0.00000000000E+00 0. -1.
         25    2    1    2    0    0  0.32641418777E+02 -0.21755988020E+01  0.35495835889E+03  0.37777375060E+03  0.12508946655E+03 0.  0.
          5    1    3    3  502    0 -0.45164235914E+02 -0.11076640007E+02  0.18151946255E+03  0.18742808713E+03  0.41800000000E+01 0. -1.
         -5    1    3    3    0  502  0.77805654691E+02  0.89010412048E+01  0.17343889634E+03  0.19034566347E+03  0.41800000000E+01 0. -1.
        -11    1    1    2    0    0 -0.23232685857E+02  0.45050524258E+02  0.58294873690E+02  0.77250240948E+02  0.00000000000E+00 0.  1.
         11    1    1    2    0    0 -0.94087329204E+01 -0.42874925456E+02  0.67951455963E+02  0.80896130040E+02  0.00000000000E+00 0. -1.
</event>
<event>
 7    1  0.2641580E-009  0.1183745E+03  0.7561462E-02  0.1245803E+00
          4   -1    0    0  501    0  0.00000000000E+00  0.00000000000E+00  0.15128805493E+03  0.15128805493E+03  0.00000000000E+00 0. -1.
         -4   -1    0    0    0  501 -0.00000000000E+00 -0.00000000000E+00 -0.20254006106E+03  0.20254006106E+03  0.00000000000E+00 0.  1.
         25    2    1    2    0    0  0.45188205540E+02 -0.73023885842E+02 -0.13586531387E+03  0.20366891743E+03  0.12508869890E+03 0.  0.
          5    1    3    3  502    0  0.74814329157E+02 -0.88794969018E+02 -0.91545772085E+02  0.14791832597E+03  0.41800000000E+01 0. -1.
         -5    1    3    3    0  502 -0.29626123617E+02  0.15771083176E+02 -0.44319541783E+02  0.55750591468E+02  0.41800000000E+01 0. -1.
        -11    1    1    2    0    0 -0.25945900548E+02  0.52772602622E+02  0.10165305073E+03  0.11743713239E+03  0.00000000000E+00 0. -1.
         11    1    1    2    0    0 -0.19242304992E+02  0.20251283220E+02 -0.17039742988E+02  0.32722066172E+02  0.00000000000E+00 0.  1.
</event>
<event>
 7    1  0.2641580E-009  0.3476960E+03  0.7561462E-02  0.1063565E+00
         -1   -1    0    0    0  501 -0.00000000000E+00  0.00000000000E+00  0.32660868369E+03  0.32660868369E+03  0.00000000000E+00 0.  1.
          1   -1    0    0  501    0  0.00000000000E+00 -0.00000000000E+00 -0.48041389690E+03  0.48041389690E+03  0.00000000000E+00 0. -1.
         25    2    1    2    0    0  0.31981530506E+02  0.34352953599E+03 -0.24211191092E+03  0.43966001694E+03  0.12508953874E+03 0.  0.
          5    1    3    3  502    0  0.30010195074E+02  0.65041332109E+02 -0.11013753661E+03  0.13144860616E+03  0.41800000000E+01 0. -1.
         -5    1    3    3    0  502  0.19713354322E+01  0.27848820388E+03 -0.13197437430E+03  0.30821141078E+03  0.41800000000E+01 0. -1.
        -11    1    1    2    0    0 -0.92082592787E+01 -0.14253665306E+03  0.82611506964E+02  0.16500348659E+03  0.00000000000E+00 0.  1.
         11    1    1    2    0    0 -0.22773271228E+02 -0.20099288293E+03  0.56951907432E+01  0.20235907706E+03  0.00000000000E+00 0. -1.
</event>
<event>
 7    1  0.2641580E-009  0.1430363E+03  0.7561462E-02  0.1209301E+00
         -2   -1    0    0    0  501 -0.00000000000E+00  0.00000000000E+00  0.16920402710E+03  0.16920402710E+03  0.00000000000E+00 0. -1.
          2   -1    0    0  501    0  0.00000000000E+00 -0.00000000000E+00 -0.15171597470E+03  0.15171597470E+03  0.00000000000E+00 0.  1.
         25    2    1    2    0    0  0.30657196240E+02  0.11384809854E+03  0.13003870818E+02  0.17238735185E+03  0.12508814971E+03 0.  0.
          5    1    3    3  502    0  0.52245492338E+02  0.12160521087E+03  0.38435049458E+02  0.13788453215E+03  0.41800000000E+01 0. -1.
         -5    1    3    3    0  502 -0.21588296098E+02 -0.77571123280E+01 -0.25431178639E+02  0.34502819697E+02  0.41800000000E+01 0. -1.
        -11    1    1    2    0    0 -0.10726163898E+02  0.35189056171E+01  0.25276948730E+02  0.27683161413E+02  0.00000000000E+00 0. -1.
         11    1    1    2    0    0 -0.19931032342E+02 -0.11736700416E+03 -0.20792767146E+02  0.12084948854E+03  0.00000000000E+00 0.  1.
</event>
<event>
 7    1  0.2641580E-009  0.2115347E+03  0.7561462E-02  0.1140356E+00
         -1   -1    0    0    0  501 -0.00000000000E+00  0.00000000000E+00  0.39936333668E+03  0.39936333668E+03  0.00000000000E+00 0.  1.
          1   -1    0    0  501    0  0.00000000000E+00 -0.00000000000E+00 -0.14384772888E+03  0.14384772888E+03  0.00000000000E+00 0. -1.
         25    2    1    2    0    0 -0.18335961012E+03  0.55301399659E+02  0.17645883352E+03  0.28891426298E+03  0.12511890343E+03 0.  0.
          5    1    3    3  502    0 -0.70793837930E+02  0.41258901601E+02  0.15209581757E+03  0.17281398836E+03  0.41800000000E+01 0. -1.
         -5    1    3    3    0  502 -0.11256577219E+03  0.14042498058E+02  0.24363015954E+02  0.11610027462E+03  0.41800000000E+01 0. -1.
        -11    1    1    2    0    0  0.23746427376E+02 -0.63388292208E+02  0.65027178647E+02  0.93864276298E+02  0.00000000000E+00 0.  1.
         11    1    1    2    0    0  0.15961318275E+03  0.80868925486E+01  0.14029595627E+02  0.16043252629E+03  0.00000000000E+00 0. -1.
</event>
<event>
 7    1  0.2641580E-009  0.8929597E+02  0.7561462E-02  0.1304566E+00
         -1   -1    0    0    0  501 -0.00000000000E+00  0.00000000000E+00  0.57261326898E+02  0.57261326898E+02  0.00000000000E+00 0.  1.
          1   -1    0    0  501    0  0.00000000000E+00 -0.00000000000E+00 -0.23528827860E+03  0.23528827860E+03  0.00000000000E+00 0. -1.
         25    2    1    2    0    0 -0.12539358942E+02 -0.35949534962E+02 -0.12780061254E+03  0.18283896967E+03  0.12508991836E+03 0.  0.
          5    1    3    3  502    0 -0.21233362771E+02  0.33012594730E+02 -0.25779655338E+01  0.39557621411E+02  0.41800000000E+01 0.  1.
         -5    1    3    3    0  502  0.86940038286E+01 -0.68962129692E+02 -0.12522264701E+03  0.14328134826E+03  0.41800000000E+01 0.  1.
        -11    1    1    2    0    0  0.23998739682E+02 -0.70273137535E+01  0.16180282813E+02  0.29784630211E+02  0.00000000000E+00 0.  1.
         11    1    1    2    0    0 -0.11459380739E+02  0.42976848716E+02 -0.66406621970E+02  0.79926005617E+02  0.00000000000E+00 0. -1.
</event>
<event>
 7    1  0.2641580E-009  0.1068394E+03  0.7561462E-02  0.1266537E+00
          2   -1    0    0  501    0  0.00000000000E+00  0.00000000000E+00  0.98139451156E+02  0.98139451156E+02  0.00000000000E+00 0. -1.
         -2   -1    0    0    0  501 -0.00000000000E+00 -0.00000000000E+00 -0.15909555949E+03  0.15909555949E+03  0.00000000000E+00 0.  1.
         25    2    1    2    0    0  0.21701837730E+02  0.55188832281E+02 -0.22380444565E+02  0.14023659389E+03  0.12509452825E+03 0.  0.
          5    1    3    3  502    0  0.18928015503E+02 -0.26200305602E+02 -0.45047629567E+02  0.55601143101E+02  0.41800000000E+01 0. -1.
         -5    1    3    3    0  502  0.27738222265E+01  0.81389137882E+02  0.22667185002E+02  0.84635450793E+02  0.41800000000E+01 0. -1.
        -11    1    1    2    0    0 -0.52243280322E+02 -0.32998969673E+02  0.16740477384E+01  0.61815004441E+02  0.00000000000E+00 0. -1.
         11    1    1    2    0    0  0.30541442592E+02 -0.22189862608E+02 -0.40249711511E+02  0.55183412316E+02  0.00000000000E+00 0.  1.
</event>
<event>
 7    1  0.2641580E-009  0.1514682E+03  0.7561462E-02  0.1198680E+00
         -2   -1    0    0    0  501 -0.00000000000E+00  0.00000000000E+00  0.26442908871E+02  0.26442908871E+02  0.00000000000E+00 0.  1.
          2   -1    0    0  501    0  0.00000000000E+00 -0.00000000000E+00 -0.98322654152E+03  0.98322654152E+03  0.00000000000E+00 0. -1.
         25    2    1    2    0    0 -0.95692259319E+02  0.72240618273E+02 -0.49696450622E+03  0.52630308367E+03  0.12508197320E+03 0.  0.
          5    1    3    3  502    0 -0.11279856030E+03  0.76120902410E+02 -0.31135258894E+03  0.33981732450E+03  0.41800000000E+01 0.  1.
         -5    1    3    3    0  502  0.17106300985E+02 -0.38802841373E+01 -0.18561191728E+03  0.18648575918E+03  0.41800000000E+01 0.  1.
        -11    1    1    2    0    0  0.82387816338E+02 -0.92910710931E+02 -0.37249264553E+03  0.39264605367E+03  0.00000000000E+00 0.  1.
         11    1    1    2    0    0  0.13304442981E+02  0.20670092658E+02 -0.87326480893E+02  0.90720313044E+02  0.00000000000E+00 0. -1.
</event>
<event>
 7    1  0.2641580E-009  0.8500684E+02  0.7561462E-02  0.1315415E+00
         -2   -1    0    0    0  501 -0.00000000000E+00  0.00000000000E+00  0.13305921426E+02  0.13305921426E+02  0.00000000000E+00 0. -1.
          2   -1    0    0  501    0  0.00000000000E+00 -0.00000000000E+00 -0.98552422602E+03  0.98552422602E+03  0.00000000000E+00 0.  1.
         25    2    1    2    0    0 -0.60199723594E+01  0.34108866843E+02 -0.59161557189E+03  0.60568598949E+03  0.12508748180E+03 0.  0.
          5    1    3    3  502    0  0.34547834992E+02  0.15687328519E+02 -0.51891097978E+03  0.52031310046E+03  0.41800000000E+01 0.  1.
         -5    1    3    3    0  502 -0.40567807352E+02  0.18421538324E+02 -0.72704592108E+02  0.85372889029E+02  0.41800000000E+01 0.  1.
        -11    1    1    2    0    0 -0.19277380578E+02 -0.52426595910E+02 -0.32130077173E+03  0.32612014853E+03  0.00000000000E+00 0.  1.
         11    1    1    2    0    0  0.25297352937E+02  0.18317729067E+02 -0.59301960973E+02  0.67024009423E+02  0.00000000000E+00 0. -1.
</event>
<event>
 7    1  0.2641580E-009  0.1010523E+03  0.7561462E-02  0.1278098E+00
          2   -1    0    0  501    0  0.00000000000E+00  0.00000000000E+00  0.12926265446E+03  0.12926265446E+03  0.00000000000E+00 0. -1.
         -2   -1    0    0    0  501 -0.00000000000E+00 -0.00000000000E+00 -0.91478079542E+02  0.91478079542E+02  0.00000000000E+00 0.  1.
         25    2    1    2    0    0 -0.77624977712E+01 -0.16279801511E+02  0.31203290313E+02  0.13017720408E+03  0.12508865187E+03 0.  0.
          5    1    3    3  502    0  0.52081919217E+02  0.88549255472E+01  0.37365843319E+02  0.64843000106E+02  0.41800000000E+01 0.  1.
         -5    1    3    3    0  502 -0.59844416988E+02 -0.25134727058E+02 -0.61625530063E+01  0.65334203971E+02  0.41800000000E+01 0.  1.
        -11    1    1    2    0    0 -0.36239879048E+02 -0.22786450695E+01  0.19328978606E+02  0.41135513498E+02  0.00000000000E+00 0. -1.
         11    1    1    2    0    0  0.44002376819E+02  0.18558446581E+02 -0.12747694004E+02  0.49428016424E+02  0.00000000000E+00 0.  1.
</event>
<event>
 7    1  0.2641580E-009  0.9969239E+02  0.7561462E-02  0.1280944E+00
         -2   -1    0    0    0  501 -0.00000000000E+00  0.00000000000E+00  0.48818059540E+02  0.48818059540E+02  0.00000000000E+00 0.  1.
          2   -1    0    0  501    0  0.00000000000E+00 -0.00000000000E+00 -0.27839310291E+03  0.27839310291E+03  0.00000000000E+00 0. -1.
         25    2    1    2    0    0  0.55874161399E+01  0.22609322631E+02 -0.18260891591E+03  0.22256678303E+03  0.12509019167E+03 0.  0.
          5    1    3    3  502    0 -0.50368267796E+02  0.44085612791E+02 -0.10053105497E+03  0.12084895146E+03  0.41800000000E+01 0. -1.
         -5    1    3    3    0  502  0.55955683936E+02 -0.21476290160E+02 -0.82077860933E+02  0.10171783157E+03  0.41800000000E+01 0. -1.
        -11    1    1    2    0    0 -0.18748847952E+02  0.20134694903E+02 -0.52803090240E+02  0.59540671622E+02  0.00000000000E+00 0. -1.
         11    1    1    2    0    0  0.13161431812E+02 -0.42744017535E+02  0.58369627758E+01  0.45103707794E+02  0.00000000000E+00 0.  1.
</event>
<event>
 7    1  0.2641580E-009  0.1533354E+03  0.7561462E-02  0.1196433E+00
         -2   -1    0    0    0  501 -0.00000000000E+00  0.00000000000E+00  0.25087670867E+03  0.25087670867E+03  0.00000000000E+00 0.  1.
          2   -1    0    0  501    0  0.00000000000E+00 -0.00000000000E+00 -0.97392342626E+02  0.97392342626E+02  0.00000000000E+00 0. -1.
         25    2    1    2    0    0  0.98795561932E+02  0.52932379260E+02  0.83804839981E+02  0.18770263972E+03  0.12508648976E+03 0.  0.
          5    1    3    3  502    0  0.12734102866E+03  0.30462834834E+02  0.70673445379E+02  0.14884868211E+03  0.41800000000E+01 0.  1.
         -5    1    3    3    0  502 -0.28545466725E+02  0.22469544426E+02  0.13131394602E+02  0.38853957603E+02  0.41800000000E+01 0.  1.
        -11    1    1    2    0    0  0.90643695234E+01 -0.26561429298E+02 -0.24282108877E+01  0.28170348407E+02  0.00000000000E+00 0. -1.
         11    1    1    2    0    0 -0.10785993146E+03 -0.26370949962E+02  0.72107736951E+02  0.13239606317E+03  0.00000000000E+00 0.  1.
</event>
<event>
 7    1  0.3205379E-009  0.1736057E+03  0.7561462E-02  0.1174139E+00
         -1   -1    0    0    0  501 -0.00000000000E+00  0.00000000000E+00  0.52353986552E+02  0.52353986552E+02  0.00000000000E+00 0.  1.
          1   -1    0    0  501    0  0.00000000000E+00 -0.00000000000E+00 -0.87337042777E+03  0.87337042777E+03  0.00000000000E+00 0. -1.
         25    2    1    2    0    0 -0.28397942321E+02  0.16105109794E+03 -0.24552813314E+03  0.32043073190E+03  0.12509152850E+03 0.  0.
          5    1    3    3  502    0 -0.39041188349E+02  0.13747619456E+03 -0.25518369944E+03  0.29250660047E+03  0.41800000000E+01 0.  1.
         -5    1    3    3    0  502  0.10643246029E+02  0.23574903385E+02  0.96555662963E+01  0.27924131430E+02  0.41800000000E+01 0.  1.
        -11    1    1    2    0    0  0.44636721404E+02 -0.55401151342E+02 -0.14206421592E+03  0.15888349792E+03  0.00000000000E+00 0.  1.
         11    1    1    2    0    0 -0.16238779084E+02 -0.10564994660E+03 -0.43342409216E+03  0.44641018450E+03  0.00000000000E+00 0. -1.
</event>
<event>
 7    1  0.2641580E-009  0.1062588E+03  0.7561462E-02  0.1267659E+00
          2   -1    0    0  501    0  0.00000000000E+00  0.00000000000E+00  0.10054958909E+04  0.10054958909E+04  0.00000000000E+00 0. -1.
         -2   -1    0    0    0  501 -0.00000000000E+00 -0.00000000000E+00 -0.26531751388E+02  0.26531751388E+02  0.00000000000E+00 0.  1.
         25    2    1    2    0    0 -0.69777480297E+02  0.96657606033E+01  0.83136575293E+03  0.84366978231E+03  0.12508941901E+03 0.  0.
          5    1    3    3  502    0 -0.67567354619E+01 -0.27652900286E+02  0.42043212428E+02  0.50945465741E+02  0.41800000000E+01 0. -1.
         -5    1    3    3    0  502 -0.63020744835E+02  0.37318660889E+02  0.78932254050E+03  0.79272431657E+03  0.41800000000E+01 0. -1.
        -11    1    1    2    0    0  0.31665289393E+02 -0.47236527884E+02  0.10703811440E+03  0.12120700497E+03  0.00000000000E+00 0. -1.
         11    1    1    2    0    0  0.38112190904E+02  0.37570767281E+02  0.40560272183E+02  0.67150855014E+02  0.00000000000E+00 0.  1.
</event>
<event>
 7    1  0.2641580E-009  0.1481866E+03  0.7561462E-02  0.1202719E+00
         -2   -1    0    0    0  501 -0.00000000000E+00  0.00000000000E+00  0.46335040031E+03  0.46335040031E+03  0.00000000000E+00 0.  1.
          2   -1    0    0  501    0  0.00000000000E+00 -0.00000000000E+00 -0.59525260629E+02  0.59525260629E+02  0.00000000000E+00 0. -1.
         25    2    1    2    0    0  0.70643832046E+02  0.10304802243E+03  0.20440671028E+03  0.27025674047E+03  0.12508859512E+03 0.  0.
          5    1    3    3  502    0 -0.25618505689E+02  0.61026869093E+02  0.11266988301E+03  0.13073852348E+03  0.41800000000E+01 0.  1.
         -5    1    3    3    0  502  0.96262337735E+02  0.42021153338E+02  0.91736827273E+02  0.13951821699E+03  0.41800000000E+01 0.  1.
        -11    1    1    2    0    0 -0.44415944102E+02 -0.64959246770E+02  0.43349344769E+02  0.89842337031E+02  0.00000000000E+00 0. -1.
         11    1    1    2    0    0 -0.26227887945E+02 -0.38088775661E+02  0.15606908463E+03  0.16277658344E+03  0.00000000000E+00 0.  1.
</event>
<event>
 7    1  0.2641580E-009  0.1027437E+03  0.7561462E-02  0.1274630E+00
         -2   -1    0    0    0  501 -0.00000000000E+00  0.00000000000E+00  0.17989096517E+03  0.17989096517E+03  0.00000000000E+00 0.  1.
          2   -1    0    0  501    0  0.00000000000E+00 -0.00000000000E+00 -0.90665143610E+02  0.90665143610E+02  0.00000000000E+00 0. -1.
         25    2    1    2    0    0  0.17088678219E+02 -0.63541510599E+02  0.49328391938E+02  0.14969955653E+03  0.12508845063E+03 0.  0.
          5    1    3    3  502    0  0.13914958531E+02  0.20080790804E+02  0.60302017606E+02  0.65197162190E+02  0.41800000000E+01 0.  1.
         -5    1    3    3    0  502  0.31737196878E+01 -0.83622301402E+02 -0.10973625669E+02  0.84502394338E+02  0.41800000000E+01 0.  1.
        -11    1    1    2    0    0  0.11827519799E+02  0.66778612643E+02 -0.42855730476E+01  0.67953215284E+02  0.00000000000E+00 0. -1.
         11    1    1    2    0    0 -0.28916198018E+02 -0.32371020445E+01  0.44183002666E+02  0.52903336965E+02  0.00000000000E+00 0.  1.
</event>
<event>
 7    1  0.2641580E-009  0.1273474E+03  0.7561462E-02  0.1231446E+00
         -2   -1    0    0    0  501 -0.00000000000E+00  0.00000000000E+00  0.20524957118E+03  0.20524957118E+03  0.00000000000E+00 0.  1.
          2   -1    0    0  501    0  0.00000000000E+00 -0.00000000000E+00 -0.10300754663E+03  0.10300754663E+03  0.00000000000E+00 0. -1.
         25    2    1    2    0    0  0.88986145062E+02 -0.25697159851E+02  0.90247947238E+02  0.17991979043E+03  0.12509021133E+03 0.  0.
          5    1    3    3  502    0  0.94577249115E+02  0.27673999875E+02  0.40491510864E+02  0.10661960969E+03  0.41800000000E+01 0. -1.
         -5    1    3    3    0  502 -0.55911040537E+01 -0.53371159726E+02  0.49756436374E+02  0.73300180734E+02  0.41800000000E+01 0. -1.
        -11    1    1    2    0    0 -0.67409822912E+02  0.38017544276E+02 -0.27114413579E+02  0.82003715291E+02  0.00000000000E+00 0. -1.
         11    1    1    2    0    0 -0.21576322149E+02 -0.12320384425E+02  0.39108490887E+02  0.46333612091E+02  0.00000000000E+00 0.  1.
</event>
<event>
 7    1  0.2641580E-009  0.1083375E+03  0.7561462E-02  0.1263680E+00
          1   -1    0    0  501    0  0.00000000000E+00  0.00000000000E+00  0.91712027451E+02  0.91712027451E+02  0.00000000000E+00 0. -1.
         -1   -1    0    0    0  501 -0.00000000000E+00 -0.00000000000E+00 -0.22080281578E+03  0.22080281578E+03  0.00000000000E+00 0.  1.
         25    2    1    2    0    0 -0.64059752247E+02  0.66834634999E+02 -0.75736626837E+02  0.17307181699E+03  0.12508915579E+03 0.  0.
          5    1    3    3  502    0 -0.14414226624E+02 -0.98966585858E+01 -0.79500322339E+02  0.81507591256E+02  0.41800000000E+01 0. -1.
         -5    1    3    3    0  502 -0.49645525623E+02  0.76731293585E+02  0.37636955020E+01  0.91564225729E+02  0.41800000000E+01 0. -1.
        -11    1    1    2    0    0  0.55888862761E+02 -0.76381239256E+02 -0.11021206135E+02  0.95284446137E+02  0.00000000000E+00 0. -1.
         11    1    1    2    0    0  0.81708894857E+01  0.95466042574E+01 -0.42332955361E+02  0.44158580111E+02  0.00000000000E+00 0.  1.
</event>
<event>
 7    1  0.2641580E-009  0.8297465E+02  0.7561462E-02  0.1320816E+00
         -1   -1    0    0    0  501 -0.00000000000E+00  0.00000000000E+00  0.22188637909E+02  0.22188637909E+02  0.00000000000E+00 0.  1.
          1   -1    0    0  501    0  0.00000000000E+00 -0.00000000000E+00 -0.73973611651E+03  0.73973611651E+03  0.00000000000E+00 0. -1.
         25    2    1    2    0    0 -0.78092808777E+01  0.37972438746E+02 -0.24016885171E+03  0.27355121910E+03  0.12508517564E+03 0.  0.
          5    1    3    3  502    0  0.22166268932E+02  0.14386257474E+02  0.34083173836E+01  0.26970296808E+02  0.41800000000E+01 0. -1.
         -5    1    3    3    0  502 -0.29975549810E+02  0.23586181272E+02 -0.24357716910E+03  0.24658092229E+03  0.41800000000E+01 0. -1.
        -11    1    1    2    0    0 -0.35880346545E+02  0.86730866316E+01 -0.12883982578E+03  0.13402358899E+03  0.00000000000E+00 0.  1.
         11    1    1    2    0    0  0.43689627423E+02 -0.46645525378E+02 -0.34853880111E+03  0.35434994633E+03  0.00000000000E+00 0. -1.
</event>
<event>
 7    1  0.2641580E-009  0.6643874E+02  0.7561462E-02  0.1372640E+00
         -1   -1    0    0    0  501 -0.00000000000E+00  0.00000000000E+00  0.21326789153E+02  0.21326789153E+02  0.00000000000E+00 0.  1.
          1   -1    0    0  501    0  0.00000000000E+00 -0.00000000000E+00 -0.71691705802E+03  0.71691705802E+03  0.00000000000E+00 0. -1.
         25    2    1    2    0    0 -0.43579246163E+02  0.19759338711E+02 -0.48586991803E+03  0.50399104000E+03  0.12509120268E+03 0.  0.
          5    1    3    3  502    0  0.66750193581E+01  0.20564547946E+02 -0.79421298631E+01  0.23409535289E+02  0.41800000000E+01 0.  1.
         -5    1    3    3    0  502 -0.50254265522E+02 -0.80520923585E+00 -0.47792778817E+03  0.48058150471E+03  0.41800000000E+01 0.  1.
        -11    1    1    2    0    0  0.40855672412E+01 -0.20518378680E+02 -0.77809581815E-01  0.20921323517E+02  0.00000000000E+00 0.  1.
         11    1    1    2    0    0  0.39493678922E+02  0.75903996974E+00 -0.20964254125E+03  0.21333148365E+03  0.00000000000E+00 0. -1.
</event>
<event>
 7    1  0.2641580E-009  0.1227679E+03  0.7561462E-02  0.1238600E+00
          1   -1    0    0  501    0  0.00000000000E+00  0.00000000000E+00  0.20708139928E+03  0.20708139928E+03  0.00000000000E+00 0. -1.
         -1   -1    0    0    0  501 -0.00000000000E+00 -0.00000000000E+00 -0.99931893068E+02  0.99931893068E+02  0.00000000000E+00 0.  1.
         25    2    1    2    0    0  0.87467295583E+02  0.19526203562E+02  0.25615059194E+02  0.15600101057E+03  0.12509349951E+03 0.  0.
          5    1    3    3  502    0  0.85413232410E+02  0.47189788346E+02 -0.22569210245E+02  0.10024538915E+03  0.41800000000E+01 0.  1.
         -5    1    3    3    0  502  0.20540631725E+01 -0.27663584784E+02  0.48184269439E+02  0.55755621421E+02  0.41800000000E+01 0.  1.
        -11    1    1    2    0    0 -0.72796896350E+02  0.21773324266E+02  0.26091057088E+02  0.80338092009E+02  0.00000000000E+00 0.  1.
         11    1    1    2    0    0 -0.14670399233E+02 -0.41299527828E+02  0.55443389931E+02  0.70674189769E+02  0.00000000000E+00 0. -1.
</event>
<event>
 7    1  0.2641580E-009  0.1082862E+03  0.7561462E-02  0.1263777E+00
          1   -1    0    0  501    0  0.00000000000E+00  0.00000000000E+00  0.75125065623E+03  0.75125065623E+03  0.00000000000E+00 0. -1.
         -1   -1    0    0    0  501 -0.00000000000E+00 -0.00000000000E+00 -0.18468071144E+02  0.18468071144E+02  0.00000000000E+00 0.  1.
         25    2    1    2    0    0 -0.76965966431E+01  0.25882351127E+02  0.30549727419E+03  0.33121820756E+03  0.12509109792E+03 0.  0.
          5    1    3    3  502    0  0.17413444998E+02  0.68076910774E+02  0.23418601380E+03  0.24453681789E+03  0.41800000000E+01 0.  1.
         -5    1    3    3    0  502 -0.25110041641E+02 -0.42194559647E+02  0.71311260395E+02  0.86681389664E+02  0.41800000000E+01 0.  1.
        -11    1    1    2    0    0 -0.42124173551E+02 -0.34570161743E+01  0.22676803699E+03  0.23067323113E+03  0.00000000000E+00 0.  1.
         11    1    1    2    0    0  0.49820770194E+02 -0.22425334953E+02  0.20051727391E+03  0.20782728870E+03  0.00000000000E+00 0. -1.
</event>
<event>
 7    1  0.2641580E-009  0.1415259E+03  0.7561462E-02  0.1211290E+00
         -4   -1    0    0    0  501 -0.00000000000E+00  0.00000000000E+00  0.21078182420E+02  0.21078182420E+02  0.00000000000E+00 0. -1.
          4   -1    0    0  501    0  0.00000000000E+00 -0.00000000000E+00 -0.11168303502E+04  0.11168303502E+04  0.00000000000E+00 0.  1.
         25    2    1    2    0    0 -0.41648979604E+02  0.83954624342E+02 -0.80685889083E+03  0.82185893135E+03  0.12509123427E+03 0.  0.
          5    1    3    3  502    0 -0.86492224573E+02  0.57520413698E+02 -0.52135561201E+03  0.53161889496E+03  0.41800000000E+01 0. -1.
         -5    1    3    3    0  502  0.44843244969E+02  0.26434210645E+02 -0.28550327881E+03  0.29024003639E+03  0.41800000000E+01 0. -1.
        -11    1    1    2    0    0 -0.24306633186E+02 -0.65389484459E+01 -0.77072363324E+02  0.81078477119E+02  0.00000000000E+00 0.  1.
         11    1    1    2    0    0  0.65955612791E+02 -0.77415675897E+02 -0.21182091367E+03  0.23497112418E+03  0.00000000000E+00 0. -1.
</event>
<event>
 7    1  0.2677375E-009  0.1665624E+03  0.7561462E-02  0.1181481E+00
         -1   -1    0    0    0  501 -0.00000000000E+00  0.00000000000E+00  0.13193974800E+03  0.13193974800E+03  0.00000000000E+00 0.  1.
          1   -1    0    0  501    0  0.00000000000E+00 -0.00000000000E+00 -0.41087267930E+03  0.41087267930E+03  0.00000000000E+00 0. -1.
         25    2    1    2    0    0  0.12892634165E+03 -0.14297048873E+02  0.41907154567E+02  0.18501361626E+03  0.12508965352E+03 0.  0.
          5    1    3    3  502    0  0.61279516765E+02  0.54929590115E+02  0.99568183994E+01  0.83000299263E+02  0.41800000000E+01 0.  1.
         -5    1    3    3    0  502  0.67646824886E+02 -0.69226638988E+02  0.31950336168E+02  0.10201331699E+03  0.41800000000E+01 0.  1.
        -11    1    1    2    0    0 -0.92572049713E+02  0.47994050442E+02 -0.25410901905E+03  0.27467145252E+03  0.00000000000E+00 0. -1.
         11    1    1    2    0    0 -0.36354291938E+02 -0.33697001569E+02 -0.66731066818E+02  0.83127358527E+02  0.00000000000E+00 0.  1.
</event>
<event>
 7    1  0.2641580E-009  0.1195743E+03  0.7561462E-02  0.1243801E+00
          1   -1    0    0  501    0  0.00000000000E+00  0.00000000000E+00  0.20847691628E+03  0.20847691628E+03  0.00000000000E+00 0.  1.
         -1   -1    0    0    0  501 -0.00000000000E+00 -0.00000000000E+00 -0.90779652362E+02  0.90779652362E+02  0.00000000000E+00 0. -1.
         25    2    1    2    0    0 -0.79665039598E+02  0.94354819524E+01  0.91164496738E+02  0.17434013052E+03  0.12509184142E+03 0.  0.
          5    1    3    3  502    0 -0.97023119070E+02  0.33562038658E+02  0.31362947559E+02  0.10742906009E+03  0.41800000000E+01 0.  1.
         -5    1    3    3    0  502  0.17358079472E+02 -0.24126556706E+02  0.59801549179E+02  0.66911070427E+02  0.41800000000E+01 0.  1.
        -11    1    1    2    0    0 -0.76543372364E+01  0.14017389722E+02  0.30485767892E+02  0.34415957594E+02  0.00000000000E+00 0.  1.
         11    1    1    2    0    0  0.87319376834E+02 -0.23452871674E+02 -0.39530007159E+01  0.90500480524E+02  0.00000000000E+00 0. -1.
</event>
<event>
 7    1  0.2641580E-009  0.1047907E+03  0.7561462E-02  0.1270533E+00
          2   -1    0    0  501    0  0.00000000000E+00  0.00000000000E+00  0.15061375387E+02  0.15061375387E+02  0.00000000000E+00 0. -1.
         -2   -1    0    0    0  501 -0.00000000000E+00 -0.00000000000E+00 -0.78466923024E+03  0.78466923024E+03  0.00000000000E+00 0.  1.
         25    2    1    2    0    0  0.96494898484E+01 -0.82382493134E+00 -0.45220584824E+03  0.46928797215E+03  0.12508908936E+03 0.  0.
          5    1    3    3  502    0 -0.49740253335E+02  0.29988267469E+02 -0.19721170209E+03  0.20562907584E+03  0.41800000000E+01 0.  1.
         -5    1    3    3    0  502  0.59389743183E+02 -0.30812092400E+02 -0.25499414615E+03  0.26365889631E+03  0.41800000000E+01 0.  1.
        -11    1    1    2    0    0  0.37086762304E+02 -0.41248269471E+01 -0.77940407612E+02  0.86412668482E+02  0.00000000000E+00 0.  1.
         11    1    1    2    0    0 -0.46736252152E+02  0.49486518784E+01 -0.23946159900E+03  0.24402996500E+03  0.00000000000E+00 0. -1.
</event>
<event>
 7    1  0.2641580E-009  0.3551192E+03  0.7561462E-02  0.1060533E+00
          1   -1    0    0  501    0  0.00000000000E+00  0.00000000000E+00  0.99552958402E+02  0.99552958402E+02  0.00000000000E+00 0. -1.
         -1   -1    0    0    0  501 -0.00000000000E+00 -0.00000000000E+00 -0.13128150243E+04  0.13128150243E+04  0.00000000000E+00 0.  1.
         25    2    1    2    0    0  0.30656050679E+03  0.15645735527E+03 -0.61939869972E+03  0.71955571484E+03  0.12508968464E+03 0.  0.
          5    1    3    3  502    0  0.74293775300E+02  0.79055810808E+02 -0.11101835483E+03  0.15528017833E+03  0.41800000000E+01 0. -1.
         -5    1    3    3    0  502  0.23226673149E+03  0.77401544457E+02 -0.50838034489E+03  0.56427553652E+03  0.41800000000E+01 0. -1.
        -11    1    1    2    0    0 -0.29932427713E+03 -0.16795527965E+03 -0.57158280485E+03  0.66671650770E+03  0.00000000000E+00 0. -1.
         11    1    1    2    0    0 -0.72362296592E+01  0.11497924386E+02 -0.22280561291E+02  0.26095760121E+02  0.00000000000E+00 0.  1.
</event>
<event>
 7    1  0.2641580E-009  0.1741317E+03  0.7561462E-02  0.1173606E+00
         -1   -1    0    0    0  501 -0.00000000000E+00  0.00000000000E+00  0.15095867472E+03  0.15095867472E+03  0.00000000000E+00 0.  1.
          1   -1    0    0  501    0  0.00000000000E+00 -0.00000000000E+00 -0.30905532510E+03  0.30905532510E+03  0.00000000000E+00 0. -1.
         25    2    1    2    0    0 -0.88585468092E+02  0.11796643448E+03 -0.20389190907E+03  0.28103963815E+03  0.12509157769E+03 0.  0.
          5    1    3    3  502    0 -0.19551801640E+02  0.12028068011E+03 -0.15015417426E+03  0.19342560173E+03  0.41800000000E+01 0. -1.
         -5    1    3    3    0  502 -0.69033666452E+02 -0.23142456351E+01 -0.53737734808E+02  0.87614036426E+02  0.41800000000E+01 0. -1.
        -11    1    1    2    0    0  0.50590686082E+02 -0.10574116207E+03  0.65696293666E+02  0.13437490047E+03  0.00000000000E+00 0.  1.
         11    1    1    2    0    0  0.37994782010E+02 -0.12225272406E+02 -0.19901034988E+02  0.44599461196E+02  0.00000000000E+00 0. -1.
</event>
<event>
 7    1  0.2641580E-009  0.1997106E+03  0.7561462E-02  0.1149983E+00
         -2   -1    0    0    0  501 -0.00000000000E+00  0.00000000000E+00  0.56523308208E+02  0.56523308208E+02  0.00000000000E+00 0.  1.
          2   -1    0    0  501    0  0.00000000000E+00 -0.00000000000E+00 -0.80485091919E+03  0.80485091919E+03  0.00000000000E+00 0. -1.
         25    2    1    2    0    0 -0.16798605626E+03 -0.40793724013E+02 -0.26848483226E+03  0.34295020980E+03  0.12508916111E+03 0.  0.
          5    1    3    3  502    0 -0.38044726035E+02 -0.60591245682E+02 -0.48103428260E+02  0.86314033869E+02  0.41800000000E+01 0. -1.
         -5    1    3    3    0  502 -0.12994133023E+03  0.19797521668E+02 -0.22038140400E+03  0.25663617593E+03  0.41800000000E+01 0. -1.
        -11    1    1    2    0    0  0.67955000432E+02  0.64231167368E+02 -0.23026106432E+03  0.24852300233E+03  0.00000000000E+00 0. -1.
         11    1    1    2    0    0  0.10003105583E+03 -0.23437443354E+02 -0.24958171440E+03  0.26990101527E+03  0.00000000000E+00 0.  1.
</event>
<event>
 7    1  0.2641580E-009  0.2306915E+03  0.7561462E-02  0.1126154E+00
         -1   -1    0    0    0  501 -0.00000000000E+00  0.00000000000E+00  0.44398322198E+03  0.44398322198E+03  0.00000000000E+00 0.  1.
          1   -1    0    0  501    0  0.00000000000E+00 -0.00000000000E+00 -0.15543100158E+03  0.15543100158E+03  0.00000000000E+00 0. -1.
         25    2    1    2    0    0 -0.18745985722E+03 -0.12614283743E+03  0.59160886147E+02  0.26495943350E+03  0.12510106894E+03 0.  0.
          5    1    3    3  502    0 -0.63310012519E+02 -0.35056143553E+02  0.81767171519E+02  0.10927229120E+03  0.41800000000E+01 0.  1.
         -5    1    3    3    0  502 -0.12414984470E+03 -0.91086693878E+02 -0.22606285372E+02  0.15568714230E+03  0.41800000000E+01 0.  1.
        -11    1    1    2    0    0  0.14897660923E+03  0.64837196876E+02  0.11488429420E+03  0.19898817364E+03  0.00000000000E+00 0.  1.
         11    1    1    2    0    0  0.38483247984E+02  0.61305640555E+02  0.11450704006E+03  0.13546661641E+03  0.00000000000E+00 0. -1.
</event>
<event>
 7    1  0.2641580E-009  0.3140185E+03  0.7561462E-02  0.1078436E+00
          2   -1    0    0  501    0  0.00000000000E+00  0.00000000000E+00  0.10807351041E+04  0.10807351041E+04  0.00000000000E+00 0. -1.
         -2   -1    0    0    0  501 -0.00000000000E+00 -0.00000000000E+00 -0.95106797070E+02  0.95106797070E+02  0.00000000000E+00 0.  1.
         25    2    1    2    0    0  0.29173332500E+03 -0.74938888624E+02  0.51335048892E+03  0.60819443704E+03  0.12509028273E+03 0.  0.
          5    1    3    3  502    0  0.52863571835E+02  0.33775860504E+02  0.83173064552E+02  0.10426215539E+03  0.41800000000E+01 0. -1.
         -5    1    3    3    0  502  0.23886975316E+03 -0.10871474913E+03  0.43017742437E+03  0.50393228165E+03  0.41800000000E+01 0. -1.
        -11    1    1    2    0    0 -0.18654269480E+03  0.62642359533E+02  0.37664914273E+03  0.42495507869E+03  0.00000000000E+00 0. -1.
         11    1    1    2    0    0 -0.10519063020E+03  0.12296529091E+02  0.95628675433E+02  0.14269238548E+03  0.00000000000E+00 0.  1.
</event>
<event>
 7    1  0.2641580E-009  0.1026905E+03  0.7561462E-02  0.1274738E+00
         -1   -1    0    0    0  501 -0.00000000000E+00  0.00000000000E+00  0.14568868702E+03  0.14568868702E+03  0.00000000000E+00 0.  1.
          1   -1    0    0  501    0  0.00000000000E+00 -0.00000000000E+00 -0.93472779751E+02  0.93472779751E+02  0.00000000000E+00 0. -1.
         25    2    1    2    0    0 -0.20148838528E+02 -0.22644467347E+02 -0.10919630119E+01  0.12871494721E+03  0.12509035797E+03 0.  0.
          5    1    3    3  502    0 -0.54058843186E+02  0.24545671101E+02  0.25404295380E+02  0.64712434046E+02  0.41800000000E+01 0.  1.
         -5    1    3    3    0  502  0.33910004658E+02 -0.47190138448E+02 -0.26496258392E+02  0.64002513165E+02  0.41800000000E+01 0.  1.
        -11    1    1    2    0    0  0.19517697748E+02 -0.29545124365E+02  0.45526938915E+02  0.57676312868E+02  0.00000000000E+00 0.  1.
         11    1    1    2    0    0  0.63114078017E+00  0.52189591712E+02  0.77809313701E+01  0.52770206696E+02  0.00000000000E+00 0. -1.
</event>
<event>
 7    1  0.2641580E-009  0.6950902E+02  0.7561462E-02  0.1361771E+00
          1   -1    0    0  501    0  0.00000000000E+00  0.00000000000E+00  0.42224255010E+03  0.42224255010E+03  0.00000000000E+00 0. -1.
         -1   -1    0    0    0  501 -0.00000000000E+00 -0.00000000000E+00 -0.47287342720E+02  0.47287342720E+02  0.00000000000E+00 0.  1.
         25    2    1    2    0    0  0.14656604297E+02  0.17017732268E+02  0.34790854228E+03  0.37038608563E+03  0.12506430096E+03 0.  0.
          5    1    3    3  502    0  0.96945163155E+01 -0.23298231479E+02  0.62965739269E+01  0.26342180621E+02  0.41800000000E+01 0.  1.
         -5    1    3    3    0  502  0.49620879814E+01  0.40315963747E+02  0.34161196835E+03  0.34404390501E+03  0.41800000000E+01 0.  1.
        -11    1    1    2    0    0  0.98975046102E+00 -0.42603024642E+02  0.46751757877E+02  0.63259182569E+02  0.00000000000E+00 0. -1.
         11    1    1    2    0    0 -0.15646354758E+02  0.25585292375E+02 -0.19705092777E+02  0.35884624625E+02  0.00000000000E+00 0.  1.
</event>
<event>
 7    1  0.2963935E-009  0.2992686E+03  0.7561462E-02  0.1085607E+00
         -1   -1    0    0    0  501 -0.00000000000E+00  0.00000000000E+00  0.61282959517E+02  0.61282959517E+02  0.00000000000E+00 0.  1.
          1   -1    0    0  501    0  0.00000000000E+00 -0.00000000000E+00 -0.15941276015E+04  0.15941276015E+04  0.00000000000E+00 0. -1.
         25    2    1    2    0    0 -0.28776375604E+03  0.78012353151E+01 -0.64012422760E+03  0.71293485879E+03  0.12509295566E+03 0.  0.
          5    1    3    3  502    0 -0.54136098898E+02  0.43144441232E+02 -0.85703158798E+02  0.11024819201E+03  0.41800000000E+01 0.  1.
         -5    1    3    3    0  502 -0.23362765714E+03 -0.35343205917E+02 -0.55442106880E+03  0.60268666679E+03  0.41800000000E+01 0.  1.
        -11    1    1    2    0    0  0.13292108516E+03 -0.30472341844E+02 -0.53338768068E+03  0.55054427288E+03  0.00000000000E+00 0. -1.
         11    1    1    2    0    0  0.15484267088E+03  0.22671106529E+02 -0.35933273365E+03  0.39193142930E+03  0.00000000000E+00 0.  1.
</event>
<event>
 7    1  0.2641580E-009  0.1021968E+03  0.7561462E-02  0.1275743E+00
          2   -1    0    0  501    0  0.00000000000E+00  0.00000000000E+00  0.87769021003E+02  0.87769021003E+02  0.00000000000E+00 0. -1.
         -2   -1    0    0    0  501 -0.00000000000E+00 -0.00000000000E+00 -0.18139369711E+03  0.18139369711E+03  0.00000000000E+00 0.  1.
         25    2    1    2    0    0 -0.60033328901E+02  0.16994786008E+02 -0.56504553539E+02  0.15077442554E+03  0.12508932607E+03 0.  0.
          5    1    3    3  502    0  0.13787739556E+02 -0.41277135397E+02 -0.29831102617E+02  0.52927032337E+02  0.41800000000E+01 0. -1.
         -5    1    3    3    0  502 -0.73821068457E+02  0.58271921405E+02 -0.26673450922E+02  0.97847393202E+02  0.41800000000E+01 0. -1.
        -11    1    1    2    0    0  0.42760154616E+02 -0.22609872265E+02 -0.67470971455E+02  0.83017884433E+02  0.00000000000E+00 0.  1.
         11    1    1    2    0    0  0.17273174285E+02  0.56150862571E+01  0.30350848890E+02  0.35370408138E+02  0.00000000000E+00 0. -1.
</event>
<event>
 7    1  0.2641580E-009  0.8826251E+02  0.7561462E-02  0.1307115E+00
          3   -1    0    0  501    0  0.00000000000E+00  0.00000000000E+00  0.20191151428E+03  0.20191151428E+03  0.00000000000E+00 0. -1.
         -3   -1    0    0    0  501 -0.00000000000E+00 -0.00000000000E+00 -0.81532488257E+02  0.81532488257E+02  0.00000000000E+00 0.  1.
         25    2    1    2    0    0 -0.19194340898E+02 -0.66623988944E+02  0.54456743750E+02  0.15303939318E+03  0.12509332636E+03 0.  0.
          5    1    3    3  502    0 -0.37750965765E+02 -0.67281581615E+02 -0.16984029399E+02  0.79106739886E+02  0.41800000000E+01 0. -1.
         -5    1    3    3    0  502  0.18556624867E+02  0.65759267108E+00  0.71440773149E+02  0.73932653291E+02  0.41800000000E+01 0. -1.
        -11    1    1    2    0    0  0.28159748377E+02  0.25014297530E+02 -0.13732338525E+02  0.40090692572E+02  0.00000000000E+00 0.  1.
         11    1    1    2    0    0 -0.89654074793E+01  0.41609691414E+02  0.79654620799E+02  0.90313916787E+02  0.00000000000E+00 0. -1.
</event>
<event>
 7    1  0.2641580E-009  0.9441051E+02  0.7561462E-02  0.1292509E+00
         -1   -1    0    0    0  501 -0.00000000000E+00  0.00000000000E+00  0.61170968309E+02  0.61170968309E+02  0.00000000000E+00 0.  1.
          1   -1    0    0  501    0  0.00000000000E+00 -0.00000000000E+00 -0.40534355632E+03  0.40534355632E+03  0.00000000000E+00 0. -1.
         25    2    1    2    0    0 -0.69808069254E+02 -0.19704212857E+02 -0.31572121386E+03  0.34725740802E+03  0.12508557073E+03 0.  0.
          5    1    3    3  502    0 -0.84393253509E+02 -0.18388981731E+02 -0.31996778956E+03  0.33144718228E+03  0.41800000000E+01 0. -1.
         -5    1    3    3    0  502  0.14585184256E+02 -0.13152311259E+01  0.42465756995E+01  0.15810225737E+02  0.41800000000E+01 0. -1.
        -11    1    1    2    0    0  0.65123556267E+02  0.33009279320E+02  0.14159748178E+02  0.74371960916E+02  0.00000000000E+00 0.  1.
         11    1    1    2    0    0  0.46845129869E+01 -0.13305066463E+02 -0.42611122328E+02  0.44885155692E+02  0.00000000000E+00 0. -1.
</event>
<event>
 7    1  0.2641580E-009  0.1903661E+03  0.7561462E-02  0.1158132E+00
          1   -1    0    0  501    0  0.00000000000E+00  0.00000000000E+00  0.72403420354E+03  0.72403420354E+03  0.00000000000E+00 0. -1.
         -1   -1    0    0    0  501 -0.00000000000E+00 -0.00000000000E+00 -0.57466977723E+02  0.57466977723E+02  0.00000000000E+00 0.  1.
         25    2    1    2    0    0 -0.15448983013E+03  0.50696102420E+02  0.43716179305E+03  0.48290094677E+03  0.12508272730E+03 0.  0.
          5    1    3    3  502    0 -0.11913927720E+03  0.82158656254E+02  0.24167509487E+03  0.28172421986E+03  0.41800000000E+01 0.  1.
         -5    1    3    3    0  502 -0.35350552925E+02 -0.31462553834E+02  0.19548669818E+03  0.20117672691E+03  0.41800000000E+01 0.  1.
        -11    1    1    2    0    0  0.65038371939E+02 -0.71446584341E+02  0.92540462120E+02  0.13378468286E+03  0.00000000000E+00 0.  1.
         11    1    1    2    0    0  0.89451458190E+02  0.20750481920E+02  0.13686497065E+03  0.16481555164E+03  0.00000000000E+00 0. -1.
</event>
<event>
 7    1  0.2641580E-009  0.1525166E+03  0.7561462E-02  0.1197414E+00
         -2   -1    0    0    0  501 -0.00000000000E+00  0.00000000000E+00  0.21846628845E+03  0.21846628845E+03  0.00000000000E+00 0.  1.
          2   -1    0    0  501    0  0.00000000000E+00 -0.00000000000E+00 -0.12667712287E+03  0.12667712287E+03  0.00000000000E+00 0. -1.
         25    2    1    2    0    0  0.12384825865E+03  0.20524765613E+02  0.55876633229E+02  0.18582082913E+03  0.12509006845E+03 0.  0.
          5    1    3    3  502    0  0.30910299194E+02 -0.41116488234E+02  0.53299312833E+02  0.74190978895E+02  0.41800000000E+01 0.  1.
         -5    1    3    3    0  502  0.92937959457E+02  0.61641253846E+02  0.25773203956E+01  0.11162985024E+03  0.41800000000E+01 0.  1.
        -11    1    1    2    0    0 -0.44070450397E+02  0.24289823434E+02 -0.17612551783E+02  0.53314182925E+02  0.00000000000E+00 0. -1.
         11    1    1    2    0    0 -0.79777808255E+02 -0.44814589046E+02  0.53525084143E+02  0.10600839926E+03  0.00000000000E+00 0.  1.
</event>
<event>
 7    1  0.2641580E-009  0.9180028E+02  0.7561462E-02  0.1298550E+00
          1   -1    0    0  501    0  0.00000000000E+00  0.00000000000E+00  0.83242852903E+03  0.83242852903E+03  0.00000000000E+00 0. -1.
         -1   -1    0    0    0  501 -0.00000000000E+00 -0.00000000000E+00 -0.16221920612E+02  0.16221920612E+02  0.00000000000E+00 0.  1.
         25    2    1    2    0    0 -0.11739532979E+02 -0.20744255062E+02  0.58101277171E+03  0.59480344626E+03  0.12508860076E+03 0.  0.
          5    1    3    3  502    0  0.74571410445E+01 -0.53010865085E+02  0.52187044082E+03  0.52462557141E+03  0.41800000000E+01 0. -1.
         -5    1    3    3    0  502 -0.19196674024E+02  0.32266610023E+02  0.59142330885E+02  0.70177874850E+02  0.41800000000E+01 0. -1.
        -11    1    1    2    0    0 -0.38431565310E+02  0.16348376112E+02  0.14072688402E+03  0.14679342799E+03  0.00000000000E+00 0.  1.
         11    1    1    2    0    0  0.50171098290E+02  0.43958789500E+01  0.94466952687E+02  0.10705357540E+03  0.00000000000E+00 0. -1.
</event>
<event>
 7    1  0.2641580E-009  0.1138362E+03  0.7561462E-02  0.1253626E+00
          1   -1    0    0  501    0  0.00000000000E+00  0.00000000000E+00  0.14138605184E+03  0.14138605184E+03  0.00000000000E+00 0. -1.
         -1   -1    0    0    0  501 -0.00000000000E+00 -0.00000000000E+00 -0.15655480692E+03  0.15655480692E+03  0.00000000000E+00 0.  1.
         25    2    1    2    0    0 -0.95535091503E+02 -0.31895635216E+02 -0.15598936621E+02  0.16135328644E+03  0.12508905215E+03 0.  0.
          5    1    3    3  502    0 -0.10534255543E+03 -0.17165149652E+02 -0.53390957379E+02  0.11941424989E+03  0.41800000000E+01 0. -1.
         -5    1    3    3    0  502  0.98074639263E+01 -0.14730485564E+02  0.37792020758E+02  0.41939036549E+02  0.41800000000E+01 0. -1.
        -11    1    1    2    0    0  0.34448682354E+02  0.21780750737E+02  0.44684868221E+02  0.60480164240E+02  0.00000000000E+00 0. -1.
         11    1    1    2    0    0  0.61086409149E+02  0.10114884479E+02 -0.44254686686E+02  0.76107408078E+02  0.00000000000E+00 0.  1.
</event>
<event>
 7    1  0.2641580E-009  0.1046238E+03  0.7561462E-02  0.1270863E+00
          3   -1    0    0  501    0  0.00000000000E+00  0.00000000000E+00  0.75706943756E+02  0.75706943756E+02  0.00000000000E+00 0. -1.
         -3   -1    0    0    0  501 -0.00000000000E+00 -0.00000000000E+00 -0.29505097739E+03  0.29505097739E+03  0.00000000000E+00 0.  1.
         25    2    1    2    0    0 -0.88863322208E+01 -0.35539892599E+02 -0.16061958001E+03  0.20684870197E+03  0.12508271325E+03 0.  0.
          5    1    3    3  502    0 -0.52780798980E+02 -0.62039038139E+01 -0.20603528266E+02  0.57151368667E+02  0.41800000000E+01 0.  1.
         -5    1    3    3    0  502  0.43894466759E+02 -0.29335988785E+02 -0.14001605175E+03  0.14969733330E+03  0.41800000000E+01 0.  1.
        -11    1    1    2    0    0  0.22514458644E+02 -0.29170764936E+02 -0.85082853428E+02  0.92719611315E+02  0.00000000000E+00 0.  1.
         11    1    1    2    0    0 -0.13628126423E+02  0.64710657535E+02  0.26358399803E+02  0.71189607869E+02  0.00000000000E+00 0. -1.
</event>
<event>
 7    1  0.2895248E-009  0.1671773E+03  0.7561462E-02  0.1180824E+00
         -1   -1    0    0    0  501 -0.00000000000E+00  0.00000000000E+00  0.52897157149E+02  0.52897157149E+02  0.00000000000E+00 0.  1.
          1   -1    0    0  501    0  0.00000000000E+00 -0.00000000000E+00 -0.57863711131E+03  0.57863711131E+03  0.00000000000E+00 0. -1.
         25    2    1    2    0    0  0.11307214172E+03  0.75474799678E+02 -0.25314199517E+03  0.31338499667E+03  0.12509009474E+03 0.  0.
          5    1    3    3  502    0  0.13539588068E+03  0.81159103681E+02 -0.23757914520E+03  0.28527209336E+03  0.41800000000E+01 0. -1.
         -5    1    3    3    0  502 -0.22323738966E+02 -0.56843040023E+01 -0.15562849963E+02  0.28112903308E+02  0.41800000000E+01 0. -1.
        -11    1    1    2    0    0 -0.58890636260E+02 -0.79229130511E+02 -0.11556203168E+03  0.15198666168E+03  0.00000000000E+00 0.  1.
         11    1    1    2    0    0 -0.54181505455E+02  0.37543308322E+01 -0.15703592731E+03  0.16616261011E+03  0.00000000000E+00 0. -1.
</event>
<event>
 7    1  0.2641580E-009  0.2579773E+03  0.7561462E-02  0.1108365E+00
         -1   -1    0    0    0  501 -0.00000000000E+00  0.00000000000E+00  0.15662286278E+03  0.15662286278E+03  0.00000000000E+00 0.  1.
          1   -1    0    0  501    0  0.00000000000E+00 -0.00000000000E+00 -0.47715048144E+03  0.47715048144E+03  0.00000000000E+00 0. -1.
         25    2    1    2    0    0 -0.17593671739E+03 -0.15498295691E+03 -0.66109375430E+02  0.27384698085E+03  0.12509306113E+03 0.  0.
          5    1    3    3  502    0 -0.32154218572E+02 -0.10583540329E+03 -0.48403792731E+02  0.12081153054E+03  0.41800000000E+01 0. -1.
         -5    1    3    3    0  502 -0.14378249881E+03 -0.49147553625E+02 -0.17705582699E+02  0.15303545031E+03  0.41800000000E+01 0. -1.
        -11    1    1    2    0    0  0.90680171233E+01  0.61141478698E+02 -0.78639469233E+02  0.10002337463E+03  0.00000000000E+00 0. -1.
         11    1    1    2    0    0  0.16686870026E+03  0.93841478216E+02 -0.17577877401E+03  0.25990298873E+03  0.00000000000E+00 0.  1.
</event>
<event>
 7    1  0.2641580E-009  0.9843232E+02  0.7561462E-02  0.1283628E+00
          2   -1    0    0  501    0  0.00000000000E+00  0.00000000000E+00  0.10679435099E+04  0.10679435099E+04  0.00000000000E+00 0. -1.
         -2   -1    0    0    0  501 -0.00000000000E+00 -0.00000000000E+00 -0.20108182109E+02  0.20108182109E+02  0.00000000000E+00 0.  1.
         25    2    1    2    0    0  0.22760529142E+02 -0.11559406056E+02  0.91822908517E+03  0.92705435236E+03  0.12503382668E+03 0.  0.
          5    1    3    3  502    0  0.40962978979E+02 -0.61632661370E+02  0.54611669568E+03  0.55112382301E+03  0.41800000000E+01 0.  1.
         -5    1    3    3    0  502 -0.18202449838E+02  0.50073255315E+02  0.37211238949E+03  0.37593052934E+03  0.41800000000E+01 0.  1.
        -11    1    1    2    0    0 -0.34615217649E+02 -0.16863295722E+02  0.12381209070E+03  0.12966116550E+03  0.00000000000E+00 0. -1.
         11    1    1    2    0    0  0.11854688507E+02  0.28422701778E+02  0.57941519575E+01  0.31336174190E+02  0.00000000000E+00 0.  1.
</event>
<event>
 7    1  0.2641580E-009  0.6817874E+02  0.7561462E-02  0.1366398E+00
         -1   -1    0    0    0  501 -0.00000000000E+00  0.00000000000E+00  0.10977637993E+03  0.10977637993E+03  0.00000000000E+00 0.  1.
          1   -1    0    0  501    0  0.00000000000E+00 -0.00000000000E+00 -0.11234412247E+03  0.11234412247E+03  0.00000000000E+00 0. -1.
         25    2    1    2    0    0 -0.20059860185E+02 -0.48196592918E+01 -0.14218470320E+02  0.12757081767E+03  0.12508605645E+03 0.  0.
          5    1    3    3  502    0 -0.47373305989E+02 -0.27251215535E+02  0.36323651678E+02  0.65755143827E+02  0.41800000000E+01 0.  1.
         -5    1    3    3    0  502  0.27313445804E+02  0.22431556243E+02 -0.50542121997E+02  0.61815673847E+02  0.41800000000E+01 0.  1.
        -11    1    1    2    0    0  0.16441653369E+02 -0.17109950502E+02  0.47082241326E+02  0.52723958690E+02  0.00000000000E+00 0.  1.
         11    1    1    2    0    0  0.36182068168E+01  0.21929609794E+02 -0.35431513550E+02  0.41825726040E+02  0.00000000000E+00 0. -1.
</event>
<event>
 7    1  0.2705996E-009  0.7213280E+02  0.7561462E-02  0.1352987E+00
         -1   -1    0    0    0  501 -0.00000000000E+00  0.00000000000E+00  0.21443020542E+02  0.21443020542E+02  0.00000000000E+00 0.  1.
          1   -1    0    0  501    0  0.00000000000E+00 -0.00000000000E+00 -0.82650919400E+03  0.82650919400E+03  0.00000000000E+00 0. -1.
         25    2    1    2    0    0 -0.42167883967E+02 -0.46126068882E+01 -0.64918836346E+03  0.66248947988E+03  0.12508946044E+03 0.  0.
          5    1    3    3  502    0 -0.55133733072E+02 -0.24001969101E+02 -0.13605763946E+03  0.14881188359E+03  0.41800000000E+01 0.  1.
         -5    1    3    3    0  502  0.12965849105E+02  0.19389362213E+02 -0.51313072400E+03  0.51367759629E+03  0.41800000000E+01 0.  1.
        -11    1    1    2    0    0 -0.43530460953E+01  0.12383752014E+02  0.77017693088E+01  0.15219184430E+02  0.00000000000E+00 0.  1.
         11    1    1    2    0    0  0.46520930062E+02 -0.77711451253E+01 -0.16357957930E+03  0.17024355023E+03  0.00000000000E+00 0. -1.
</event>
<event>
 7    1  0.2641580E-009  0.4939141E+03  0.7561462E-02  0.1015380E+00
          2   -1    0    0  501    0  0.00000000000E+00  0.00000000000E+00  0.11728635956E+04  0.11728635956E+04  0.00000000000E+00 0. -1.
         -2   -1    0    0    0  501 -0.00000000000E+00 -0.00000000000E+00 -0.24012441478E+03  0.24012441478E+03  0.00000000000E+00 0.  1.
         25    2    1    2    0    0 -0.34606454710E+03 -0.34114554722E+03  0.22984888244E+03  0.55192229478E+03  0.12508699198E+03 0.  0.
          5    1    3    3  502    0 -0.30659463852E+03 -0.34405132172E+03  0.22121478945E+03  0.51119960859E+03  0.41800000000E+01 0. -1.
         -5    1    3    3    0  502 -0.39469908582E+02  0.29057744968E+01  0.86340929859E+01  0.40722686191E+02  0.41800000000E+01 0. -1.
        -11    1    1    2    0    0  0.21413683993E+03  0.23424586780E+03  0.53641278238E+03  0.62326911194E+03  0.00000000000E+00 0. -1.
         11    1    1    2    0    0  0.13192770718E+03  0.10689967942E+03  0.16647751597E+03  0.23779660364E+03  0.00000000000E+00 0.  1.
</event>
<event>
 7    1  0.2641580E-009  0.1267052E+03  0.7561462E-02  0.1232428E+00
          1   -1    0    0  501    0  0.00000000000E+00  0.00000000000E+00  0.10870693810E+04  0.10870693810E+04  0.00000000000E+00 0. -1.
         -1   -1    0    0    0  501 -0.00000000000E+00 -0.00000000000E+00 -0.22450839208E+02  0.22450839208E+02  0.00000000000E+00 0.  1.
         25    2    1    2    0    0  0.79139257034E+02  0.71898665428E+02  0.69705439056E+03  0.71621551704E+03  0.12508958134E+03 0.  0.
          5    1    3    3  502    0 -0.13226512188E+02 -0.67571668378E+01  0.31417430741E+03  0.31455296496E+03  0.41800000000E+01 0.  1.
         -5    1    3    3    0  502  0.92365769222E+02  0.78655832266E+02  0.38288008315E+03  0.40166255209E+03  0.41800000000E+01 0. -1.
        -11    1    1    2    0    0 -0.75653431262E+02 -0.42080667401E+02  0.34514563056E+03  0.35583666271E+03  0.00000000000E+00 0. -1.
         11    1    1    2    0    0 -0.34858257716E+01 -0.29817998028E+02  0.22418520704E+02  0.37468040491E+02  0.00000000000E+00 0.  1.
</event>
<event>
 7    1  0.2641580E-009  0.1363154E+03  0.7561462E-02  0.1218375E+00
         -2   -1    0    0    0  501 -0.00000000000E+00  0.00000000000E+00  0.53757821441E+03  0.53757821441E+03  0.00000000000E+00 0.  1.
          2   -1    0    0  501    0  0.00000000000E+00 -0.00000000000E+00 -0.35365626927E+02  0.35365626927E+02  0.00000000000E+00 0. -1.
         25    2    1    2    0    0  0.26052912775E+02  0.84089782803E+02  0.31265970910E+03  0.34807075364E+03  0.12508920819E+03 0.  0.
          5    1    3    3  502    0 -0.67669643847E+01 -0.31596087937E+02  0.62846411648E+02  0.70790171895E+02  0.41800000000E+01 0.  1.
         -5    1    3    3    0  502  0.32819877160E+02  0.11568587074E+03  0.24981329745E+03  0.27728058174E+03  0.41800000000E+01 0.  1.
        -11    1    1    2    0    0  0.67629006322E+01  0.14401729350E+02  0.37757512838E+02  0.40972874063E+02  0.00000000000E+00 0.  1.
         11    1    1    2    0    0 -0.32815813407E+02 -0.98491512153E+02  0.15179536554E+03  0.18390021364E+03  0.00000000000E+00 0. -1.
</event>
<event>
 7    1  0.2641580E-009  0.7514767E+02  0.7561462E-02  0.1343414E+00
         -2   -1    0    0    0  501 -0.00000000000E+00  0.00000000000E+00  0.78538539523E+02  0.78538539523E+02  0.00000000000E+00 0.  1.
          2   -1    0    0  501    0  0.00000000000E+00 -0.00000000000E+00 -0.17181227608E+03  0.17181227608E+03  0.00000000000E+00 0. -1.
         25    2    1    2    0    0 -0.25303033815E+02  0.13742111465E+02 -0.19120167898E+02  0.12977426893E+03  0.12508673354E+03 0.  0.
          5    1    3    3  502    0  0.23248200548E+02  0.10709085532E+01 -0.60272893945E+02  0.64745037017E+02  0.41800000000E+01 0.  1.
         -5    1    3    3    0  502 -0.48551234364E+02  0.12671202912E+02  0.41152726047E+02  0.65029231909E+02  0.41800000000E+01 0.  1.
        -11    1    1    2    0    0 -0.24915340327E+01 -0.38797884673E+02 -0.73501148592E+02  0.83149879383E+02  0.00000000000E+00 0. -1.
         11    1    1    2    0    0  0.27794567848E+02  0.25055773208E+02 -0.65242006785E+00  0.37426667296E+02  0.00000000000E+00 0.  1.
</event>
<event>
 7    1  0.2641580E-009  0.1207277E+03  0.7561462E-02  0.1241901E+00
          1   -1    0    0  501    0  0.00000000000E+00  0.00000000000E+00  0.23238161993E+03  0.23238161993E+03  0.00000000000E+00 0. -1.
         -1   -1    0    0    0  501 -0.00000000000E+00 -0.00000000000E+00 -0.12162011931E+03  0.12162011931E+03  0.00000000000E+00 0.  1.
         25    2    1    2    0    0  0.10586733928E+03 -0.78686276926E+01  0.13544611375E+03  0.21274824747E+03  0.12508540379E+03 0.  0.
          5    1    3    3  502    0 -0.84046673299E+01 -0.11716418375E+02 -0.16652823648E+02  0.22421013088E+02  0.41800000000E+01 0.  1.
         -5    1    3    3    0  502  0.11427200661E+03  0.38477906828E+01  0.15209893740E+03  0.19032723438E+03  0.41800000000E+01 0.  1.
        -11    1    1    2    0    0 -0.57153741900E+02 -0.13671110931E+02  0.29084363404E+02  0.65569426427E+02  0.00000000000E+00 0. -1.
         11    1    1    2    0    0 -0.48713597382E+02  0.21539738624E+02 -0.53768976532E+02  0.75684065345E+02  0.00000000000E+00 0.  1.
</event>
<event>
 7    1  0.2641580E-009  0.1031759E+03  0.7561462E-02  0.1273756E+00
          1   -1    0    0  501    0  0.00000000000E+00  0.00000000000E+00  0.68703554578E+02  0.68703554578E+02  0.00000000000E+00 0. -1.
         -1   -1    0    0    0  501 -0.00000000000E+00 -0.00000000000E+00 -0.22756443999E+03  0.22756443999E+03  0.00000000000E+00 0.  1.
         25    2    1    2    0    0  0.50047258243E+02  0.20578477997E+02 -0.16372361424E+03  0.21302765738E+03  0.12508860513E+03 0.  0.
          5    1    3    3  502    0 -0.35067778016E+02 -0.58620929093E+01 -0.13413158304E+02  0.38229548832E+02  0.41800000000E+01 0.  1.
         -5    1    3    3    0  502  0.85115036259E+02  0.26440570906E+02 -0.15031045594E+03  0.17479810855E+03  0.41800000000E+01 0.  1.
        -11    1    1    2    0    0 -0.29774367481E+02  0.20067840453E+02  0.10649051675E+02  0.37451748703E+02  0.00000000000E+00 0. -1.
         11    1    1    2    0    0 -0.20272890763E+02 -0.40646318449E+02 -0.57863228434E+01  0.45788588485E+02  0.00000000000E+00 0.  1.
</event>
<event>
 7    1  0.2641580E-009  0.7283263E+02  0.7561462E-02  0.1350717E+00
          1   -1    0    0  501    0  0.00000000000E+00  0.00000000000E+00  0.48055639101E+03  0.48055639101E+03  0.00000000000E+00 0. -1.
         -1   -1    0    0    0  501 -0.00000000000E+00 -0.00000000000E+00 -0.42825536727E+02  0.42825536727E+02  0.00000000000E+00 0.  1.
         25    2    1    2    0    0 -0.39582237482E+02 -0.26954506604E+02  0.38135920912E+03  0.40419673985E+03  0.12508740615E+03 0.  0.
          5    1    3    3  502    0 -0.51898565149E+02 -0.43286902068E+02  0.92762848939E+02  0.11484613837E+03  0.41800000000E+01 0.  1.
         -5    1    3    3    0  502  0.12316327667E+02  0.16332395463E+02  0.28859636018E+03  0.28935060148E+03  0.41800000000E+01 0.  1.
        -11    1    1    2    0    0  0.96828167469E+01  0.25347354157E+02  0.77779689676E+02  0.82376728686E+02  0.00000000000E+00 0. -1.
         11    1    1    2    0    0  0.29899420735E+02  0.16071524472E+01 -0.21408044508E+02  0.36808459203E+02  0.00000000000E+00 0.  1.
</event>
<event>
 7    1  0.2641580E-009  0.1032448E+03  0.7561462E-02  0.1273617E+00
         -1   -1    0    0    0  501 -0.00000000000E+00  0.00000000000E+00  0.13160026605E+02  0.13160026605E+02  0.00000000000E+00 0.  1.
          1   -1    0    0  501    0  0.00000000000E+00 -0.00000000000E+00 -0.10358611157E+04  0.10358611157E+04  0.00000000000E+00 0. -1.
         25    2    1    2    0    0 -0.62613758238E+01 -0.34541453500E+02 -0.70612059683E+03  0.71797372430E+03  0.12509058591E+03 0.  0.
          5    1    3    3  502    0  0.56415673338E+02 -0.64234867666E+01 -0.23198152431E+03  0.23886583976E+03  0.41800000000E+01 0.  1.
         -5    1    3    3    0  502 -0.62677049162E+02 -0.28117966734E+02 -0.47413907252E+03  0.47910788454E+03  0.41800000000E+01 0.  1.
        -11    1    1    2    0    0  0.25791301523E+02 -0.13329388125E+02 -0.38597113995E+02  0.48297008507E+02  0.00000000000E+00 0.  1.
         11    1    1    2    0    0 -0.19529925699E+02  0.47870841625E+02 -0.27798337828E+03  0.28275040951E+03  0.00000000000E+00 0. -1.
</event>
<event>
 7    1  0.2641580E-009  0.2073420E+03  0.7561462E-02  0.1143688E+00
          2   -1    0    0  501    0  0.00000000000E+00  0.00000000000E+00  0.30530846247E+03  0.30530846247E+03  0.00000000000E+00 0. -1.
         -2   -1    0    0    0  501 -0.00000000000E+00 -0.00000000000E+00 -0.19226853052E+03  0.19226853052E+03  0.00000000000E+00 0.  1.
         25    2    1    2    0    0  0.12045145595E+03  0.15725195954E+03  0.15012108080E+03  0.27824619302E+03  0.12509145857E+03 0.  0.
          5    1    3    3  502    0  0.37883634678E+02  0.57659549747E+02 -0.12669567038E+02  0.70269365889E+02  0.41800000000E+01 0.  1.
         -5    1    3    3    0  502  0.82567821270E+02  0.99592409795E+02  0.16279064784E+03  0.20797682713E+03  0.41800000000E+01 0.  1.
        -11    1    1    2    0    0 -0.10062270582E+03 -0.60591795948E+02 -0.17976032463E+02  0.11882521789E+03  0.00000000000E+00 0. -1.
         11    1    1    2    0    0 -0.19828750125E+02 -0.96660163595E+02 -0.19105116392E+02  0.10050558208E+03  0.00000000000E+00 0.  1.
</event>
<event>
 7    1  0.2641580E-009  0.2166042E+03  0.7561462E-02  0.1136440E+00
          2   -1    0    0  501    0  0.00000000000E+00  0.00000000000E+00  0.11200910114E+04  0.11200910114E+04  0.00000000000E+00 0. -1.
         -2   -1    0    0    0  501 -0.00000000000E+00 -0.00000000000E+00 -0.59121793094E+02  0.59121793094E+02  0.00000000000E+00 0.  1.
         25    2    1    2    0    0  0.15701377917E+03  0.12539117402E+03  0.27581149195E+03  0.36345173640E+03  0.12509561233E+03 0.  0.
          5    1    3    3  502    0  0.62476963817E+02 -0.34255578626E+01  0.14113305170E+03  0.15443806570E+03  0.41800000000E+01 0.  1.
         -5    1    3    3    0  502  0.94536815357E+02  0.12881673188E+03  0.13467844025E+03  0.20901367070E+03  0.41800000000E+01 0.  1.
        -11    1    1    2    0    0 -0.14239528724E+02 -0.44149852111E+02  0.87630640310E+02  0.99151917485E+02  0.00000000000E+00 0.  1.
         11    1    1    2    0    0 -0.14277425045E+03 -0.81241321906E+02  0.69752708602E+03  0.71660915059E+03  0.00000000000E+00 0. -1.
</event>
<event>
 7    1  0.2641580E-009  0.9404141E+02  0.7561462E-02  0.1293350E+00
         -2   -1    0    0    0  501 -0.00000000000E+00  0.00000000000E+00  0.28599258328E+02  0.28599258328E+02  0.00000000000E+00 0.  1.
          2   -1    0    0  501    0  0.00000000000E+00 -0.00000000000E+00 -0.42831829219E+03  0.42831829219E+03  0.00000000000E+00 0. -1.
         25    2    1    2    0    0  0.10548654458E+01 -0.12693910361E+02 -0.22514432120E+03  0.25787480012E+03  0.12508876475E+03 0.  0.
          5    1    3    3  502    0 -0.36527710539E+02  0.40903125769E+02 -0.67102873635E+02  0.86761785280E+02  0.41800000000E+01 0.  1.
         -5    1    3    3    0  502  0.37582575985E+02 -0.53597036130E+02 -0.15804144757E+03  0.17111301484E+03  0.41800000000E+01 0.  1.
        -11    1    1    2    0    0 -0.18059994108E+02  0.35033828668E+02 -0.24597785902E+02  0.46460559721E+02  0.00000000000E+00 0.  1.
         11    1    1    2    0    0  0.17005128662E+02 -0.22339918307E+02 -0.14997692676E+03  0.15258219067E+03  0.00000000000E+00 0. -1.
</event>
<event>
 6    1  0.2641580E-009  0.2050400E+03  0.7561462E-02  0.1145555E+00
         -2   -1    0    0    0  501 -0.00000000000E+00  0.00000000000E+00  0.14225213891E+03  0.14225213891E+03  0.00000000000E+00 0. -1.
          2   -1    0    0  501    0  0.00000000000E+00 -0.00000000000E+00 -0.35511635828E+03  0.35511635828E+03  0.00000000000E+00 0.  1.
          5    1    1    2  502    0 -0.83282506184E+02  0.74759273709E+02 -0.49516912460E+02  0.12245130404E+03  0.41800000000E+01 0. -1.
         -5    1    1    2    0  502  0.15225654987E+02  0.95621347245E+02 -0.13576819101E+03  0.16681048141E+03  0.41800000000E+01 0. -1.
        -11    1    1    2    0    0  0.58062113494E+02 -0.40230855643E+02 -0.31889225342E+02  0.77502602938E+02  0.00000000000E+00 0.  1.
         11    1    1    2    0    0  0.99947377032E+01 -0.13014976531E+03  0.43101094401E+01  0.13060410880E+03  0.00000000000E+00 0. -1.
</event>
<event>
 7    1  0.2641580E-009  0.9803353E+02  0.7561462E-02  0.1284486E+00
          4   -1    0    0  501    0  0.00000000000E+00  0.00000000000E+00  0.18867553400E+03  0.18867553400E+03  0.00000000000E+00 0. -1.
         -4   -1    0    0    0  501 -0.00000000000E+00 -0.00000000000E+00 -0.68942730890E+02  0.68942730890E+02  0.00000000000E+00 0.  1.
         25    2    1    2    0    0 -0.15908972847E+02  0.26379205323E+02  0.83466761188E+02  0.15351421076E+03  0.12510377608E+03 0.  0.
          5    1    3    3  502    0 -0.64089046140E+01  0.76175022006E+02  0.38842074898E+02  0.85848047260E+02  0.41800000000E+01 0.  1.
         -5    1    3    3    0  502 -0.95000682325E+01 -0.49795816684E+02  0.44624686290E+02  0.67666163495E+02  0.41800000000E+01 0.  1.
        -11    1    1    2    0    0  0.20955326276E+00  0.19834284489E+02 -0.20982529476E+02  0.28874024606E+02  0.00000000000E+00 0.  1.
         11    1    1    2    0    0  0.15699419584E+02 -0.46213489811E+02  0.57248571400E+02  0.75230029530E+02  0.00000000000E+00 0. -1.
</event>
<event>
 7    1  0.2641580E-009  0.8673682E+02  0.7561462E-02  0.1310952E+00
         -2   -1    0    0    0  501 -0.00000000000E+00  0.00000000000E+00  0.16633986680E+02  0.16633986680E+02  0.00000000000E+00 0.  1.
          2   -1    0    0  501    0  0.00000000000E+00 -0.00000000000E+00 -0.79689493031E+03  0.79689493031E+03  0.00000000000E+00 0. -1.
         25    2    1    2    0    0  0.51096053887E+02 -0.30994071313E+01 -0.53487609273E+03  0.55168935158E+03  0.12509313740E+03 0.  0.
          5    1    3    3  502    0  0.26285189257E+02  0.38964990586E+02 -0.71121711973E+02  0.85351930145E+02  0.41800000000E+01 0.  1.
         -5    1    3    3    0  502  0.24810864631E+02 -0.42064397717E+02 -0.46375438076E+03  0.46633742144E+03  0.41800000000E+01 0.  1.
        -11    1    1    2    0    0 -0.39986293106E+02  0.28795992911E+02 -0.78942834362E+02  0.93059572002E+02  0.00000000000E+00 0.  1.
         11    1    1    2    0    0 -0.11109760782E+02 -0.25696585780E+02 -0.16644201654E+03  0.16877999341E+03  0.00000000000E+00 0. -1.
</event>
<event>
 7    1  0.2641580E-009  0.1154026E+03  0.7561462E-02  0.1250880E+00
          2   -1    0    0  501    0  0.00000000000E+00  0.00000000000E+00  0.51789938425E+03  0.51789938425E+03  0.00000000000E+00 0. -1.
         -2   -1    0    0    0  501 -0.00000000000E+00 -0.00000000000E+00 -0.46392142164E+02  0.46392142164E+02  0.00000000000E+00 0.  1.
         25    2    1    2    0    0 -0.34634466529E+02 -0.86310861212E+02  0.36418255002E+03  0.39613780207E+03  0.12508843853E+03 0.  0.
          5    1    3    3  502    0 -0.49834622474E+02 -0.54956418446E+02  0.35079246237E+03  0.35857568459E+03  0.41800000000E+01 0. -1.
         -5    1    3    3    0  502  0.15200155945E+02 -0.31354442766E+02  0.13390087647E+02  0.37562117474E+02  0.41800000000E+01 0. -1.
        -11    1    1    2    0    0 -0.19435221034E+02  0.56312914553E+02  0.23613432770E+02  0.64081716341E+02  0.00000000000E+00 0.  1.
         11    1    1    2    0    0  0.54069687562E+02  0.29997946660E+02  0.83711259296E+02  0.10407200800E+03  0.00000000000E+00 0. -1.
</event>
<event>
 7    1  0.2641580E-009  0.1743027E+03  0.7561462E-02  0.1173434E+00
          1   -1    0    0  501    0  0.00000000000E+00  0.00000000000E+00  0.14986265404E+03  0.14986265404E+03  0.00000000000E+00 0. -1.
         -1   -1    0    0    0  501 -0.00000000000E+00 -0.00000000000E+00 -0.24043226694E+03  0.24043226694E+03  0.00000000000E+00 0.  1.
         25    2    1    2    0    0 -0.10120523864E+03  0.99413703446E+02 -0.11347290933E+03  0.22056615677E+03  0.12509094133E+03 0.  0.
          5    1    3    3  502    0 -0.78977270611E+02  0.12886155504E+03 -0.82666767847E+02  0.17231940270E+03  0.41800000000E+01 0. -1.
         -5    1    3    3    0  502 -0.22227968028E+02 -0.29447851591E+02 -0.30806141480E+02  0.48246754076E+02  0.41800000000E+01 0. -1.
        -11    1    1    2    0    0  0.49876872366E+02 -0.96787228274E+02  0.39335558180E+02  0.11577027292E+03  0.00000000000E+00 0.  1.
         11    1    1    2    0    0  0.51328366274E+02 -0.26264751718E+01 -0.16432261756E+02  0.53958491293E+02  0.00000000000E+00 0. -1.
</event>
<event>
 7    1  0.2641580E-009  0.1279845E+03  0.7561462E-02  0.1230477E+00
          2   -1    0    0  501    0  0.00000000000E+00  0.00000000000E+00  0.81984272912E+03  0.81984272912E+03  0.00000000000E+00 0. -1.
         -2   -1    0    0    0  501 -0.00000000000E+00 -0.00000000000E+00 -0.44157490863E+02  0.44157490863E+02  0.00000000000E+00 0.  1.
         25    2    1    2    0    0  0.29080724423E+02  0.85943246446E+02  0.69673761097E+03  0.71366866654E+03  0.12509091459E+03 0.  0.
          5    1    3    3  502    0  0.71925800850E+02  0.77529779392E+02  0.40263319357E+03  0.41631136003E+03  0.41800000000E+01 0. -1.
         -5    1    3    3    0  502 -0.42845076427E+02  0.84134670538E+01  0.29410441740E+03  0.29735730651E+03  0.41800000000E+01 0. -1.
        -11    1    1    2    0    0  0.48454330326E+01 -0.67460110436E+02  0.61444668893E+01  0.67912437702E+02  0.00000000000E+00 0. -1.
         11    1    1    2    0    0 -0.33926157456E+02 -0.18483136010E+02  0.72803160399E+02  0.82419115747E+02  0.00000000000E+00 0.  1.
</event>
<event>
 7    1  0.2974686E-009  0.1374258E+03  0.7561462E-02  0.1216835E+00
         -1   -1    0    0    0  501 -0.00000000000E+00  0.00000000000E+00  0.70321841350E+02  0.70321841350E+02  0.00000000000E+00 0.  1.
          1   -1    0    0  501    0  0.00000000000E+00 -0.00000000000E+00 -0.29302207274E+03  0.29302207274E+03  0.00000000000E+00 0. -1.
         25    2    1    2    0    0 -0.85269854400E+02  0.34070132032E+01 -0.16880295806E+03  0.22676863618E+03  0.12508804858E+03 0.  0.
          5    1    3    3  502    0  0.22985868644E+02  0.31760864622E+02 -0.45200536278E+02  0.59980526495E+02  0.41800000000E+01 0. -1.
         -5    1    3    3    0  502 -0.10825572304E+03 -0.28353851419E+02 -0.12360242179E+03  0.16678810969E+03  0.41800000000E+01 0. -1.
        -11    1    1    2    0    0  0.81827269624E+02  0.32001790323E+02 -0.26812180587E+02  0.91862449705E+02  0.00000000000E+00 0.  1.
         11    1    1    2    0    0  0.34425847763E+01 -0.35408803526E+02 -0.27085092736E+02  0.44712828200E+02  0.00000000000E+00 0. -1.
</event>
<event>
 7    1  0.2641580E-009  0.1262186E+03  0.7561462E-02  0.1233177E+00
         -2   -1    0    0    0  501 -0.00000000000E+00  0.00000000000E+00  0.74708785029E+02  0.74708785029E+02  0.00000000000E+00 0.  1.
          2   -1    0    0  501    0  0.00000000000E+00 -0.00000000000E+00 -0.51947333857E+03  0.51947333857E+03  0.00000000000E+00 0. -1.
         25    2    1    2    0    0 -0.59159226162E+02 -0.77765769814E+02 -0.44305841881E+03  0.47063259780E+03  0.12508777171E+03 0.  0.
          5    1    3    3  502    0 -0.64429926515E+02 -0.71952198436E+01 -0.33605549029E+03  0.34227730216E+03  0.41800000000E+01 0. -1.
         -5    1    3    3    0  502  0.52707003533E+01 -0.70570549971E+02 -0.10700292852E+03  0.12835529563E+03  0.41800000000E+01 0. -1.
        -11    1    1    2    0    0  0.47991326091E+02  0.88764273769E+02  0.13384971493E+02  0.10179106611E+03  0.00000000000E+00 0.  1.
         11    1    1    2    0    0  0.11167900071E+02 -0.10998503955E+02 -0.15091106218E+02  0.21758459691E+02  0.00000000000E+00 0. -1.
</event>
<event>
 7    1  0.2641580E-009  0.8671849E+02  0.7561462E-02  0.1310999E+00
          1   -1    0    0  501    0  0.00000000000E+00  0.00000000000E+00  0.61571343483E+02  0.61571343483E+02  0.00000000000E+00 0. -1.
         -1   -1    0    0    0  501 -0.00000000000E+00 -0.00000000000E+00 -0.20576667453E+03  0.20576667453E+03  0.00000000000E+00 0.  1.
         25    2    1    2    0    0 -0.12541143638E+02  0.22599578406E+02 -0.10683895713E+03  0.16652204925E+03  0.12508800462E+03 0.  0.
          5    1    3    3  502    0 -0.73321426158E-01  0.57343079668E+02 -0.11492385499E+03  0.12850369258E+03  0.41800000000E+01 0.  1.
         -5    1    3    3    0  502 -0.12467822212E+02 -0.34743501262E+02  0.80848978566E+01  0.38018356672E+02  0.41800000000E+01 0.  1.
        -11    1    1    2    0    0 -0.29354979922E+02  0.32966633290E+01 -0.41996111073E+02  0.51344485396E+02  0.00000000000E+00 0.  1.
         11    1    1    2    0    0  0.41896123561E+02 -0.25896241735E+02  0.46397371559E+01  0.49471483365E+02  0.00000000000E+00 0. -1.
</event>
<event>
 7    1  0.2641580E-009  0.1453248E+03  0.7561462E-02  0.1206338E+00
         -1   -1    0    0    0  501 -0.00000000000E+00  0.00000000000E+00  0.15760852367E+02  0.15760852367E+02  0.00000000000E+00 0.  1.
          1   -1    0    0  501    0  0.00000000000E+00 -0.00000000000E+00 -0.14478556326E+04  0.14478556326E+04  0.00000000000E+00 0. -1.
         25    2    1    2    0    0 -0.10243160388E+03 -0.11684143266E+00 -0.67276770015E+03  0.69192216324E+03  0.12509058513E+03 0.  0.
          5    1    3    3  502    0 -0.29687574022E+01  0.43988394814E+02 -0.10752773014E+03  0.11629048778E+03  0.41800000000E+01 0. -1.
         -5    1    3    3    0  502 -0.99462846476E+02 -0.44105236247E+02 -0.56523997001E+03  0.57563167546E+03  0.41800000000E+01 0. -1.
        -11    1    1    2    0    0  0.25259847081E+01  0.32392059558E+02 -0.16596097015E+03  0.16911141219E+03  0.00000000000E+00 0.  1.
         11    1    1    2    0    0  0.99905619171E+02 -0.32275218125E+02 -0.59336610994E+03  0.60258290954E+03  0.00000000000E+00 0. -1.
</event>
<event>
 7    1  0.2641580E-009  0.1791465E+03  0.7561462E-02  0.1168632E+00
          1   -1    0    0  501    0  0.00000000000E+00  0.00000000000E+00  0.11108757841E+04  0.11108757841E+04  0.00000000000E+00 0. -1.
         -1   -1    0    0    0  501 -0.00000000000E+00 -0.00000000000E+00 -0.34811069871E+02  0.34811069871E+02  0.00000000000E+00 0.  1.
         25    2    1    2    0    0 -0.15824001693E+03 -0.42907464276E+02  0.59024219821E+03  0.62523124214E+03  0.12508916884E+03 0.  0.
          5    1    3    3  502    0 -0.10063296468E+03  0.21769252477E+02  0.19460821915E+03  0.22020609732E+03  0.41800000000E+01 0.  1.
         -5    1    3    3    0  502 -0.57607052243E+02 -0.64676716753E+02  0.39563397906E+03  0.40502514483E+03  0.41800000000E+01 0.  1.
        -11    1    1    2    0    0  0.82363917854E+02  0.21214015672E+01  0.35040273446E+03  0.35995887491E+03  0.00000000000E+00 0. -1.
         11    1    1    2    0    0  0.75876099071E+02  0.40786062709E+02  0.13541978152E+03  0.16049673688E+03  0.00000000000E+00 0.  1.
</event>
<event>
 7    1  0.2641580E-009  0.2190646E+03  0.7561462E-02  0.1134582E+00
         -2   -1    0    0    0  501 -0.00000000000E+00  0.00000000000E+00  0.44534842477E+02  0.44534842477E+02  0.00000000000E+00 0. -1.
          2   -1    0    0  501    0  0.00000000000E+00 -0.00000000000E+00 -0.16117916891E+04  0.16117916891E+04  0.00000000000E+00 0.  1.
         25    2    1    2    0    0  0.71239978127E+02 -0.18615618692E+03 -0.12422933945E+04  0.12643853117E+04  0.12509227793E+03 0.  0.
          5    1    3    3  502    0  0.90719898718E+02 -0.69261210410E+02 -0.51730779650E+03  0.52976602761E+03  0.41800000000E+01 0. -1.
         -5    1    3    3    0  502 -0.19479920591E+02 -0.11689497651E+03 -0.72498559804E+03  0.73461928412E+03  0.41800000000E+01 0. -1.
        -11    1    1    2    0    0 -0.44145226367E+02  0.16543948474E+03 -0.20438286846E+03  0.26662967022E+03  0.00000000000E+00 0. -1.
         11    1    1    2    0    0 -0.27094751760E+02  0.20716702185E+02 -0.12058058366E+03  0.12531154966E+03  0.00000000000E+00 0.  1.
</event>
<event>
 7    1  0.2641580E-009  0.1406266E+03  0.7561462E-02  0.1212488E+00
         -2   -1    0    0    0  501 -0.00000000000E+00  0.00000000000E+00  0.27498439528E+02  0.27498439528E+02  0.00000000000E+00 0.  1.
          2   -1    0    0  501    0  0.00000000000E+00 -0.00000000000E+00 -0.84001046246E+03  0.84001046246E+03  0.00000000000E+00 0. -1.
         25    2    1    2    0    0  0.21359084736E+02 -0.10392935857E+03 -0.47669395734E+03  0.50412519537E+03  0.12509021370E+03 0.  0.
          5    1    3    3  502    0  0.72976907785E+02 -0.74848856993E+02 -0.30089388980E+03  0.31856331518E+03  0.41800000000E+01 0.  1.
         -5    1    3    3    0  502 -0.51617823050E+02 -0.29080501575E+02 -0.17580006755E+03  0.18556188019E+03  0.41800000000E+01 0.  1.
        -11    1    1    2    0    0 -0.29918721237E+02  0.28481794929E+02 -0.38308534923E+02  0.56337255620E+02  0.00000000000E+00 0.  1.
         11    1    1    2    0    0  0.85596365011E+01  0.75447563639E+02 -0.29750953066E+03  0.30704645100E+03  0.00000000000E+00 0. -1.
</event>
<event>
 7    1  0.2641580E-009  0.8555557E+02  0.7561462E-02  0.1313986E+00
         -1   -1    0    0    0  501 -0.00000000000E+00  0.00000000000E+00  0.27400889507E+02  0.27400889507E+02  0.00000000000E+00 0.  1.
          1   -1    0    0  501    0  0.00000000000E+00 -0.00000000000E+00 -0.56662309854E+03  0.56662309854E+03  0.00000000000E+00 0. -1.
         25    2    1    2    0    0  0.13389520728E+02  0.25280216890E+01 -0.44295081880E+03  0.46047622996E+03  0.12508900962E+03 0.  0.
          5    1    3    3  502    0 -0.28028252758E+02  0.51189178725E+02 -0.15981035914E+03  0.17018442426E+03  0.41800000000E+01 0.  1.
         -5    1    3    3    0  502  0.41417773486E+02 -0.48661157036E+02 -0.28314045965E+03  0.29029180570E+03  0.41800000000E+01 0.  1.
        -11    1    1    2    0    0 -0.30895332189E+02 -0.13809303698E+00  0.45155633377E+01  0.31223884015E+02  0.00000000000E+00 0.  1.
         11    1    1    2    0    0  0.17505811461E+02 -0.23899286520E+01 -0.10078695357E+03  0.10232387407E+03  0.00000000000E+00 0. -1.
</event>
<event>
 7    1  0.2641580E-009  0.1077888E+03  0.7561462E-02  0.1264720E+00
         -1   -1    0    0    0  501 -0.00000000000E+00  0.00000000000E+00  0.86522318672E+02  0.86522318672E+02  0.00000000000E+00 0.  1.
          1   -1    0    0  501    0  0.00000000000E+00 -0.00000000000E+00 -0.19700957348E+03  0.19700957348E+03  0.00000000000E+00 0. -1.
         25    2    1    2    0    0  0.66731550949E+02  0.27105227171E+01 -0.75946947735E+02  0.16086013439E+03  0.12509035591E+03 0.  0.
          5    1    3    3  502    0  0.36798815680E+02 -0.48554821173E+02 -0.80652388543E+02  0.10116325258E+03  0.41800000000E+01 0. -1.
         -5    1    3    3    0  502  0.29932735268E+02  0.51265343890E+02  0.47054408082E+01  0.59696881812E+02  0.41800000000E+01 0. -1.
        -11    1    1    2    0    0 -0.79667941609E+02 -0.97654240638E+01  0.50553208955E+01  0.80423259675E+02  0.00000000000E+00 0.  1.
         11    1    1    2    0    0  0.12936390660E+02  0.70549013468E+01 -0.39595627969E+02  0.42248498087E+02  0.00000000000E+00 0. -1.
</event>
<event>
 7    1  0.2641580E-009  0.1079818E+03  0.7561462E-02  0.1264354E+00
          2   -1    0    0  501    0  0.00000000000E+00  0.00000000000E+00  0.40510641432E+03  0.40510641432E+03  0.00000000000E+00 0. -1.
         -2   -1    0    0    0  501 -0.00000000000E+00 -0.00000000000E+00 -0.48865622222E+02  0.48865622222E+02  0.00000000000E+00 0.  1.
         25    2    1    2    0    0 -0.26403198998E+01  0.45431957977E+02  0.70919380891E+02  0.15082501518E+03  0.12509033745E+03 0.  0.
          5    1    3    3  502    0 -0.56807245612E+02  0.38355580773E+02  0.10848635723E+02  0.69522507344E+02  0.41800000000E+01 0.  1.
         -5    1    3    3    0  502  0.54166925712E+02  0.70763772040E+01  0.60070745168E+02  0.81302507836E+02  0.41800000000E+01 0.  1.
        -11    1    1    2    0    0  0.37317514076E+02 -0.44145223486E+02  0.10834651955E+03  0.12280214131E+03  0.00000000000E+00 0.  1.
         11    1    1    2    0    0 -0.34677194176E+02 -0.12867344910E+01  0.17697489167E+03  0.18034488005E+03  0.00000000000E+00 0. -1.
</event>
<event>
 7    1  0.2641580E-009  0.1279965E+03  0.7561462E-02  0.1230459E+00
         -3   -1    0    0    0  501 -0.00000000000E+00  0.00000000000E+00  0.54529623369E+03  0.54529623369E+03  0.00000000000E+00 0.  1.
          3   -1    0    0  501    0  0.00000000000E+00 -0.00000000000E+00 -0.40276586062E+02  0.40276586062E+02  0.00000000000E+00 0. -1.
         25    2    1    2    0    0  0.55425031242E+02 -0.63593072417E+02  0.36221348487E+03  0.39237949327E+03  0.12508814960E+03 0.  0.
          5    1    3    3  502    0  0.83498469967E+02 -0.59294449917E+02  0.17364142747E+03  0.20163492756E+03  0.41800000000E+01 0. -1.
         -5    1    3    3    0  502 -0.28073438725E+02 -0.42986224998E+01  0.18857205739E+03  0.19074456571E+03  0.41800000000E+01 0. -1.
        -11    1    1    2    0    0 -0.79482447789E+02  0.61773421034E+02  0.13380424864E+03  0.16744250358E+03  0.00000000000E+00 0. -1.
         11    1    1    2    0    0  0.24057416546E+02  0.18196513835E+01  0.90019141218E+01  0.25750822897E+02  0.00000000000E+00 0.  1.
</event>
<event>
 7    1  0.2641580E-009  0.1098838E+03  0.7561462E-02  0.1260785E+00
         -1   -1    0    0    0  501 -0.00000000000E+00  0.00000000000E+00  0.57575654587E+03  0.57575654587E+03  0.00000000000E+00 0.  1.
          1   -1    0    0  501    0  0.00000000000E+00 -0.00000000000E+00 -0.24312652121E+02  0.24312652121E+02  0.00000000000E+00 0. -1.
         25    2    1    2    0    0 -0.55253474486E+02 -0.33628377731E+02  0.28054732924E+03  0.31391107842E+03  0.12509814939E+03 0.  0.
          5    1    3    3  502    0 -0.56099780412E+02  0.31509952058E+02  0.78533199163E+02  0.10161199836E+03  0.41800000000E+01 0. -1.
         -5    1    3    3    0  502  0.84630592604E+00 -0.65138329789E+02  0.20201413008E+03  0.21229908006E+03  0.41800000000E+01 0. -1.
        -11    1    1    2    0    0  0.22495122814E+02 -0.18038404334E+02  0.11811538432E+03  0.12158395698E+03  0.00000000000E+00 0. -1.
         11    1    1    2    0    0  0.32758351672E+02  0.51666782065E+02  0.15278118018E+03  0.16457416259E+03  0.00000000000E+00 0.  1.
</event>
<event>
 7    1  0.2641580E-009  0.1148145E+03  0.7561462E-02  0.1251905E+00
          4   -1    0    0  501    0  0.00000000000E+00  0.00000000000E+00  0.18848026146E+03  0.18848026146E+03  0.00000000000E+00 0. -1.
         -4   -1    0    0    0  501 -0.00000000000E+00 -0.00000000000E+00 -0.75490558169E+02  0.75490558169E+02  0.00000000000E+00 0.  1.
         25    2    1    2    0    0 -0.18188833677E+02 -0.47692832419E+02  0.69886802097E+02  0.15211050147E+03  0.12509196463E+03 0.  0.
          5    1    3    3  502    0  0.26317699611E+01  0.39645044167E+02  0.29855763059E+01  0.40062973005E+02  0.41800000000E+01 0.  1.
         -5    1    3    3    0  502 -0.20820603639E+02 -0.87337876585E+02  0.66901225791E+02  0.11204752846E+03  0.41800000000E+01 0.  1.
        -11    1    1    2    0    0 -0.15071313794E+02  0.61840651212E+02  0.13327228873E+02  0.65030959329E+02  0.00000000000E+00 0.  1.
         11    1    1    2    0    0  0.33260147471E+02 -0.14147818794E+02  0.29775672317E+02  0.46829358829E+02  0.00000000000E+00 0. -1.
</event>
<event>
 7    1  0.2641580E-009  0.1131420E+03  0.7561462E-02  0.1254860E+00
         -1   -1    0    0    0  501 -0.00000000000E+00  0.00000000000E+00  0.30748995450E+02  0.30748995450E+02  0.00000000000E+00 0.  1.
          1   -1    0    0  501    0  0.00000000000E+00 -0.00000000000E+00 -0.10522984768E+04  0.10522984768E+04  0.00000000000E+00 0. -1.
         25    2    1    2    0    0  0.82924552381E+02 -0.27494595136E+02 -0.88295815595E+03  0.89604364835E+03  0.12508669170E+03 0.  0.
          5    1    3    3  502    0  0.78745635976E+02 -0.38873020261E+02 -0.29204454246E+03  0.30499094096E+03  0.41800000000E+01 0.  1.
         -5    1    3    3    0  502  0.41789164050E+01  0.11378425124E+02 -0.59091361349E+03  0.59105270739E+03  0.41800000000E+01 0.  1.
        -11    1    1    2    0    0 -0.14127654221E+02 -0.31751774337E+02 -0.37577471747E+02  0.51184296129E+02  0.00000000000E+00 0.  1.
         11    1    1    2    0    0 -0.68796898160E+02  0.59246369474E+02 -0.10101385363E+03  0.13581952774E+03  0.00000000000E+00 0. -1.
</event>
<event>
 7    1  0.2641580E-009  0.1186705E+03  0.7561462E-02  0.1245307E+00
          1   -1    0    0  501    0  0.00000000000E+00  0.00000000000E+00  0.25107587564E+03  0.25107587564E+03  0.00000000000E+00 0. -1.
         -1   -1    0    0    0  501 -0.00000000000E+00 -0.00000000000E+00 -0.74040970005E+02  0.74040970005E+02  0.00000000000E+00 0.  1.
         25    2    1    2    0    0  0.53681137346E+02  0.36236685292E+02  0.15815289431E+03  0.21178897844E+03  0.12508985388E+03 0.  0.
          5    1    3    3  502    0  0.22848184244E+02 -0.39072031568E+02  0.10522935168E+03  0.11462701265E+03  0.41800000000E+01 0.  1.
         -5    1    3    3    0  502  0.30832953102E+02  0.75308716860E+02  0.52923542633E+02  0.97161965793E+02  0.41800000000E+01 0.  1.
        -11    1    1    2    0    0  0.67316123602E+00  0.27004651093E+02  0.12291580027E+02  0.29678060352E+02  0.00000000000E+00 0.  1.
         11    1    1    2    0    0 -0.54354298582E+02 -0.63241336385E+02  0.65904312991E+01  0.83649806854E+02  0.00000000000E+00 0. -1.
</event>
<event>
 7    1  0.2641580E-009  0.1587252E+03  0.7561462E-02  0.1190144E+00
          1   -1    0    0  501    0  0.00000000000E+00  0.00000000000E+00  0.10310457663E+04  0.10310457663E+04  0.00000000000E+00 0. -1.
         -1   -1    0    0    0  501 -0.00000000000E+00 -0.00000000000E+00 -0.36437554508E+02  0.36437554508E+02  0.00000000000E+00 0.  1.
         25    2    1    2    0    0  0.85880864299E+02 -0.10483591150E+03  0.75939179923E+03  0.78146972030E+03  0.12511166137E+03 0.  0.
          5    1    3    3  502    0  0.10983750454E+03 -0.62929055207E+02  0.42139138478E+03  0.44001422131E+03  0.41800000000E+01 0.  1.
         -5    1    3    3    0  502 -0.23956640241E+02 -0.41906856293E+02  0.33800041445E+03  0.34145549898E+03  0.41800000000E+01 0.  1.
        -11    1    1    2    0    0 -0.64010895990E+02  0.43947299429E+02  0.56724999285E+02  0.96158647435E+02  0.00000000000E+00 0.  1.
         11    1    1    2    0    0 -0.21869968310E+02  0.60888612072E+02  0.17849141324E+03  0.18985495304E+03  0.00000000000E+00 0. -1.
</event>
<event>
 7    1  0.2641580E-009  0.1094393E+03  0.7561462E-02  0.1261612E+00
          2   -1    0    0  501    0  0.00000000000E+00  0.00000000000E+00  0.44028960781E+03  0.44028960781E+03  0.00000000000E+00 0. -1.
         -2   -1    0    0    0  501 -0.00000000000E+00 -0.00000000000E+00 -0.62067868751E+02  0.62067868751E+02  0.00000000000E+00 0.  1.
         25    2    1    2    0    0 -0.54071019776E+01 -0.10184752994E+03  0.93506987737E+02  0.18653070055E+03  0.12509192374E+03 0.  0.
          5    1    3    3  502    0 -0.15239926817E+02 -0.29681038781E+02 -0.28697513179E+02  0.44206776575E+02  0.41800000000E+01 0. -1.
         -5    1    3    3    0  502  0.98328248398E+01 -0.72166491160E+02  0.12220450092E+03  0.14232392397E+03  0.41800000000E+01 0. -1.
        -11    1    1    2    0    0 -0.16908131703E+02  0.77289480448E+02  0.26645345864E+03  0.27795142440E+03  0.00000000000E+00 0. -1.
         11    1    1    2    0    0  0.22315233680E+02  0.24558049493E+02  0.18261292675E+02  0.37875351606E+02  0.00000000000E+00 0.  1.
</event>
<event>
 7    1  0.2641580E-009  0.1165270E+03  0.7561462E-02  0.1248939E+00
          1   -1    0    0  501    0  0.00000000000E+00  0.00000000000E+00  0.13186201335E+03  0.13186201335E+03  0.00000000000E+00 0. -1.
         -1   -1    0    0    0  501 -0.00000000000E+00 -0.00000000000E+00 -0.10812846170E+03  0.10812846170E+03  0.00000000000E+00 0.  1.
         25    2    1    2    0    0 -0.41214010896E+02 -0.21909890404E+02  0.31194173242E+02  0.13707556578E+03  0.12505197438E+03 0.  0.
          5    1    3    3  502    0 -0.71690611296E+02 -0.51920678018E+02  0.31646384310E+02  0.94097112569E+02  0.41800000000E+01 0.  1.
         -5    1    3    3    0  502  0.30476600400E+02  0.30010787614E+02 -0.45221106776E+00  0.42978453207E+02  0.41800000000E+01 0.  1.
        -11    1    1    2    0    0  0.27165025216E+01  0.52327461067E+02 -0.11632941771E+02  0.53673717049E+02  0.00000000000E+00 0.  1.
         11    1    1    2    0    0  0.38497508374E+02 -0.30417570663E+02  0.41723201742E+01  0.49241192225E+02  0.00000000000E+00 0. -1.
</event>
<event>
 7    1  0.2641580E-009  0.8217730E+02  0.7561462E-02  0.1322984E+00
          2   -1    0    0  501    0  0.00000000000E+00  0.00000000000E+00  0.12850979754E+03  0.12850979754E+03  0.00000000000E+00 0. -1.
         -2   -1    0    0    0  501 -0.00000000000E+00 -0.00000000000E+00 -0.75143273162E+02  0.75143273162E+02  0.00000000000E+00 0.  1.
         25    2    1    2    0    0  0.54659702001E+01  0.54815651023E+01 -0.32796790452E+01  0.12537255543E+03  0.12509035524E+03 0.  0.
          5    1    3    3  502    0  0.13919150665E+02 -0.57549900469E+02  0.10208082154E+02  0.60227992997E+02  0.41800000000E+01 0.  1.
         -5    1    3    3    0  502 -0.84531804647E+01  0.63031465571E+02 -0.13487761200E+02  0.65144562430E+02  0.41800000000E+01 0.  1.
        -11    1    1    2    0    0  0.15971685262E+02 -0.10670642623E+02  0.19530525605E+01  0.19307298061E+02  0.00000000000E+00 0.  1.
         11    1    1    2    0    0 -0.21437655463E+02  0.51890775206E+01  0.54693150863E+02  0.58973217214E+02  0.00000000000E+00 0. -1.
</event>
<event>
 6    1  0.2641580E-009  0.1021387E+03  0.7561462E-02  0.1275862E+00
          3   -1    0    0  501    0  0.00000000000E+00  0.00000000000E+00  0.55744847809E+02  0.55744847809E+02  0.00000000000E+00 0. -1.
         -3   -1    0    0    0  501 -0.00000000000E+00 -0.00000000000E+00 -0.29986762922E+03  0.29986762922E+03  0.00000000000E+00 0.  1.
          5    1    1    2  502    0  0.47929464448E+02 -0.33805923077E+02 -0.45121627532E+02  0.74118200656E+02  0.41800000000E+01 0. -1.
         -5    1    1    2    0  502 -0.59253362225E+02 -0.55633110504E+01 -0.14932182598E+03  0.16079922723E+03  0.41800000000E+01 0. -1.
        -11    1    1    2    0    0 -0.25228410058E+02 -0.75549537863E+01 -0.54996933950E+02  0.60977149365E+02  0.00000000000E+00 0.  1.
         11    1    1    2    0    0  0.36552307835E+02  0.46924187913E+02  0.53176060501E+01  0.59717899775E+02  0.00000000000E+00 0. -1.
</event>
<event>
 7    1  0.2641580E-009  0.1089155E+03  0.7561462E-02  0.1262592E+00
          2   -1    0    0  501    0  0.00000000000E+00  0.00000000000E+00  0.51169081639E+03  0.51169081639E+03  0.00000000000E+00 0.  1.
         -2   -1    0    0    0  501 -0.00000000000E+00 -0.00000000000E+00 -0.36265915692E+02  0.36265915692E+02  0.00000000000E+00 0. -1.
         25    2    1    2    0    0  0.79959773315E+02  0.15305925003E+02  0.22248582268E+03  0.26790777559E+03  0.12508716256E+03 0.  0.
          5    1    3    3  502    0  0.77185670041E+02 -0.15354383657E+02  0.22333105953E+03  0.23682824854E+03  0.41800000000E+01 0. -1.
         -5    1    3    3    0  502  0.27741032745E+01  0.30660308660E+02 -0.84523684612E+00  0.31079527046E+02  0.41800000000E+01 0. -1.
        -11    1    1    2    0    0 -0.23267225846E+02 -0.39874741493E+02  0.17277423600E+03  0.17883594558E+03  0.00000000000E+00 0. -1.
         11    1    1    2    0    0 -0.56692547470E+02  0.24568816491E+02  0.80164842020E+02  0.10121301091E+03  0.00000000000E+00 0.  1.
</event>
<event>
 7    1  0.2641580E-009  0.1124698E+03  0.7561462E-02  0.1256063E+00
          3   -1    0    0  501    0  0.00000000000E+00  0.00000000000E+00  0.21152901488E+03  0.21152901488E+03  0.00000000000E+00 0. -1.
         -3   -1    0    0    0  501 -0.00000000000E+00 -0.00000000000E+00 -0.65580108276E+02  0.65580108276E+02  0.00000000000E+00 0.  1.
         25    2    1    2    0    0 -0.47268731567E+02  0.50655912789E+00  0.72427269831E+02  0.15207645113E+03  0.12508776114E+03 0.  0.
          5    1    3    3  502    0 -0.61977915190E+02  0.45353988110E+02  0.16297907077E+02  0.78621500774E+02  0.41800000000E+01 0.  1.
         -5    1    3    3    0  502  0.14709183623E+02 -0.44847428982E+02  0.56129362754E+02  0.73454950360E+02  0.41800000000E+01 0.  1.
        -11    1    1    2    0    0  0.60984256211E+02 -0.30113228248E+02  0.43807678144E+02  0.80901166156E+02  0.00000000000E+00 0.  1.
         11    1    1    2    0    0 -0.13715524644E+02  0.29606669120E+02  0.29713958632E+02  0.44131505868E+02  0.00000000000E+00 0. -1.
</event>
<event>
 7    1  0.2641580E-009  0.1121231E+03  0.7561462E-02  0.1256688E+00
         -2   -1    0    0    0  501 -0.00000000000E+00  0.00000000000E+00  0.49836333733E+03  0.49836333733E+03  0.00000000000E+00 0.  1.
          2   -1    0    0  501    0  0.00000000000E+00 -0.00000000000E+00 -0.28327397450E+02  0.28327397450E+02  0.00000000000E+00 0. -1.
         25    2    1    2    0    0  0.22573956377E+01 -0.45800658164E+02  0.22642782161E+03  0.26271549477E+03  0.12508827551E+03 0.  0.
          5    1    3    3  502    0  0.22100893896E+02 -0.84276778661E+02  0.17364378956E+03  0.19432103074E+03  0.41800000000E+01 0.  1.
         -5    1    3    3    0  502 -0.19843498259E+02  0.38476120497E+02  0.52784032047E+02  0.68394464036E+02  0.41800000000E+01 0.  1.
        -11    1    1    2    0    0 -0.28756796476E+02  0.57706870625E+02  0.20937093562E+03  0.21907356058E+03  0.00000000000E+00 0.  1.
         11    1    1    2    0    0  0.26499400839E+02 -0.11906212461E+02  0.34237182648E+02  0.44901679430E+02  0.00000000000E+00 0. -1.
</event>
<event>
 7    1  0.2641580E-009  0.2312058E+03  0.7561462E-02  0.1125794E+00
          1   -1    0    0  501    0  0.00000000000E+00  0.00000000000E+00  0.56889104112E+03  0.56889104112E+03  0.00000000000E+00 0. -1.
         -1   -1    0    0    0  501 -0.00000000000E+00 -0.00000000000E+00 -0.12391417128E+03  0.12391417128E+03  0.00000000000E+00 0.  1.
         25    2    1    2    0    0 -0.14983405380E+03  0.16893724678E+03  0.11466769996E+03  0.28246025420E+03  0.12508028125E+03 0.  0.
          5    1    3    3  502    0 -0.65247332960E+02  0.12458971408E+03  0.10529899257E+02  0.14109628801E+03  0.41800000000E+01 0. -1.
         -5    1    3    3    0  502 -0.84586720845E+02  0.44347532700E+02  0.10413780070E+03  0.14136396618E+03  0.41800000000E+01 0. -1.
        -11    1    1    2    0    0  0.99316336350E+01 -0.16039542495E+02 -0.17216361445E+01  0.18943819602E+02  0.00000000000E+00 0.  1.
         11    1    1    2    0    0  0.13990242017E+03 -0.15289770428E+03  0.33203080603E+03  0.39140113860E+03  0.00000000000E+00 0. -1.
</event>
<event>
 7    1  0.2641580E-009  0.1309493E+03  0.7561462E-02  0.1226054E+00
         -2   -1    0    0    0  501 -0.00000000000E+00  0.00000000000E+00  0.31907091382E+02  0.31907091382E+02  0.00000000000E+00 0.  1.
          2   -1    0    0  501    0  0.00000000000E+00 -0.00000000000E+00 -0.70872914591E+03  0.70872914591E+03  0.00000000000E+00 0. -1.
         25    2    1    2    0    0  0.75947785113E+02 -0.49260080034E+02 -0.49181039668E+03  0.51547985226E+03  0.12508952894E+03 0.  0.
          5    1    3    3  502    0 -0.14309558833E+02  0.28123437255E+02 -0.64612296303E+02  0.72027164532E+02  0.41800000000E+01 0. -1.
         -5    1    3    3    0  502  0.90257343946E+02 -0.77383517289E+02 -0.42719810038E+03  0.44345268772E+03  0.41800000000E+01 0. -1.
        -11    1    1    2    0    0 -0.41817290737E+01 -0.14510058679E+02 -0.85724467356E+02  0.87044316095E+02  0.00000000000E+00 0. -1.
         11    1    1    2    0    0 -0.71766056040E+02  0.63770138713E+02 -0.99287190488E+02  0.13811206894E+03  0.00000000000E+00 0.  1.
</event>
<event>
 7    1  0.2641580E-009  0.1191584E+03  0.7561462E-02  0.1244492E+00
          1   -1    0    0  501    0  0.00000000000E+00  0.00000000000E+00  0.91688153649E+02  0.91688153649E+02  0.00000000000E+00 0. -1.
         -1   -1    0    0    0  501 -0.00000000000E+00 -0.00000000000E+00 -0.24770502451E+03  0.24770502451E+03  0.00000000000E+00 0.  1.
         25    2    1    2    0    0  0.90202175626E+02  0.50108852668E+02 -0.68512906636E+02  0.17604358415E+03  0.12509994221E+03 0.  0.
          5    1    3    3  502    0  0.71408535981E+02  0.15918959329E+02  0.22727105441E+02  0.76724090081E+02  0.41800000000E+01 0.  1.
         -5    1    3    3    0  502  0.18793639645E+02  0.34189893339E+02 -0.91240012077E+02  0.99319494065E+02  0.41800000000E+01 0.  1.
        -11    1    1    2    0    0 -0.11802667351E+02 -0.45782321328E+02 -0.67345312756E+02  0.82284354849E+02  0.00000000000E+00 0.  1.
         11    1    1    2    0    0 -0.78399508275E+02 -0.43265313407E+01 -0.20158651466E+02  0.81065239161E+02  0.00000000000E+00 0. -1.
</event>
<event>
 7    1  0.2641580E-009  0.6611397E+02  0.7561462E-02  0.1373830E+00
          1   -1    0    0  501    0  0.00000000000E+00  0.00000000000E+00  0.78011064614E+02  0.78011064614E+02  0.00000000000E+00 0. -1.
         -1   -1    0    0    0  501 -0.00000000000E+00 -0.00000000000E+00 -0.15873682669E+03  0.15873682669E+03  0.00000000000E+00 0.  1.
         25    2    1    2    0    0 -0.26328224156E+01  0.11452572286E+02 -0.34735974552E+02  0.13036212459E+03  0.12509837103E+03 0.  0.
          5    1    3    3  502    0 -0.27707398292E+01  0.34913100491E+02 -0.75393121494E+02  0.83235790100E+02  0.41800000000E+01 0.  1.
         -5    1    3    3    0  502  0.13791741358E+00 -0.23460528205E+02  0.40657146942E+02  0.47126334489E+02  0.41800000000E+01 0.  1.
        -11    1    1    2    0    0 -0.20306509592E+02 -0.34865782924E+02  0.99438768882E+01  0.41555479041E+02  0.00000000000E+00 0. -1.
         11    1    1    2    0    0  0.22939332007E+02  0.23413210638E+02 -0.55933664411E+02  0.64830287673E+02  0.00000000000E+00 0.  1.
</event>
<event>
 7    1  0.2641580E-009  0.1132536E+03  0.7561462E-02  0.1254661E+00
         -2   -1    0    0    0  501 -0.00000000000E+00  0.00000000000E+00  0.52167966887E+02  0.52167966887E+02  0.00000000000E+00 0.  1.
          2   -1    0    0  501    0  0.00000000000E+00 -0.00000000000E+00 -0.42333985826E+03  0.42333985826E+03  0.00000000000E+00 0. -1.
         25    2    1    2    0    0 -0.32334665780E+02 -0.10026207944E+03 -0.20846568225E+03  0.26495679251E+03  0.12508455555E+03 0.  0.
          5    1    3    3  502    0 -0.34226032050E+02 -0.10190658297E+03 -0.74399100231E+02  0.13080164921E+03  0.41800000000E+01 0.  1.
         -5    1    3    3    0  502  0.18913662694E+01  0.16445035292E+01 -0.13406658202E+03  0.13415514330E+03  0.41800000000E+01 0.  1.
        -11    1    1    2    0    0 -0.65297653434E+01  0.50454564014E+02 -0.12959562188E+03  0.13922401400E+03  0.00000000000E+00 0.  1.
         11    1    1    2    0    0  0.38864431124E+02  0.49807515425E+02 -0.33110587243E+02  0.71327018632E+02  0.00000000000E+00 0. -1.
</event>
<event>
 7    1  0.2641580E-009  0.1326776E+03  0.7561462E-02  0.1223536E+00
         -3   -1    0    0    0  501 -0.00000000000E+00  0.00000000000E+00  0.33277019811E+02  0.33277019811E+02  0.00000000000E+00 0.  1.
          3   -1    0    0  501    0  0.00000000000E+00 -0.00000000000E+00 -0.66438668977E+03  0.66438668977E+03  0.00000000000E+00 0. -1.
         25    2    1    2    0    0 -0.42810420800E+02  0.90615181472E+02 -0.36997934943E+03  0.40320713078E+03  0.12508968009E+03 0.  0.
          5    1    3    3  502    0 -0.86326695334E+02  0.49239728575E+02 -0.21293151474E+03  0.23501947061E+03  0.41800000000E+01 0.  1.
         -5    1    3    3    0  502  0.43516274534E+02  0.41375452897E+02 -0.15704783469E+03  0.16818766017E+03  0.41800000000E+01 0.  1.
        -11    1    1    2    0    0  0.19577059816E+02 -0.10373575248E+02 -0.20603582516E+01  0.22251233911E+02  0.00000000000E+00 0.  1.
         11    1    1    2    0    0  0.23233360984E+02 -0.80241606224E+02 -0.25906996228E+03  0.27220534489E+03  0.00000000000E+00 0. -1.
</event>
<event>
 7    1  0.2641580E-009  0.1194247E+03  0.7561462E-02  0.1244049E+00
          2   -1    0    0  501    0  0.00000000000E+00  0.00000000000E+00  0.29609395197E+04  0.29609395197E+04  0.00000000000E+00 0. -1.
         -2   -1    0    0    0  501 -0.00000000000E+00 -0.00000000000E+00 -0.14833345021E+02  0.14833345021E+02  0.00000000000E+00 0.  1.
         25    2    1    2    0    0  0.28267364540E+02 -0.65361111858E+02  0.26540763572E+04  0.26579766603E+04  0.12508995837E+03 0.  0.
          5    1    3    3  502    0 -0.31751596421E+02 -0.30178639768E+02  0.19418008337E+04  0.19422993756E+04  0.41800000000E+01 0. -1.
         -5    1    3    3    0  502  0.60018960961E+02 -0.35182472090E+02  0.71227552353E+03  0.71567728470E+03  0.41800000000E+01 0. -1.
        -11    1    1    2    0    0 -0.13268746100E+02 -0.27791500646E+02  0.79886809492E+02  0.85617343232E+02  0.00000000000E+00 0.  1.
         11    1    1    2    0    0 -0.14998618439E+02  0.93152612504E+02  0.21214300793E+03  0.23217886119E+03  0.00000000000E+00 0. -1.
</event>
<event>
 7    1  0.2641580E-009  0.9846455E+02  0.7561462E-02  0.1283558E+00
         -2   -1    0    0    0  501 -0.00000000000E+00  0.00000000000E+00  0.28317419609E+03  0.28317419609E+03  0.00000000000E+00 0.  1.
          2   -1    0    0  501    0  0.00000000000E+00 -0.00000000000E+00 -0.44881872600E+02  0.44881872600E+02  0.00000000000E+00 0. -1.
         25    2    1    2    0    0  0.17768581640E+01  0.24221115459E+02  0.10685996031E+03  0.16629852981E+03  0.12508529186E+03 0.  0.
          5    1    3    3  502    0  0.41709570335E+02  0.47397045878E+02  0.17533962981E+02  0.65658818702E+02  0.41800000000E+01 0.  1.
         -5    1    3    3    0  502 -0.39932712171E+02 -0.23175930419E+02  0.89325997330E+02  0.10063971110E+03  0.41800000000E+01 0.  1.
        -11    1    1    2    0    0 -0.18204344749E+02 -0.51960070987E+02  0.11010507493E+03  0.12310310585E+03  0.00000000000E+00 0.  1.
         11    1    1    2    0    0  0.16427486585E+02  0.27738955528E+02  0.21327288253E+02  0.38654433038E+02  0.00000000000E+00 0. -1.
</event>
<event>
 7    1  0.2641580E-009  0.1079695E+03  0.7561462E-02  0.1264377E+00
          2   -1    0    0  501    0  0.00000000000E+00  0.00000000000E+00  0.12950313948E+03  0.12950313948E+03  0.00000000000E+00 0. -1.
         -2   -1    0    0    0  501 -0.00000000000E+00 -0.00000000000E+00 -0.15280828553E+03  0.15280828553E+03  0.00000000000E+00 0.  1.
         25    2    1    2    0    0  0.65507631959E+02  0.59766543338E+02 -0.21323474203E+02  0.15480683006E+03  0.12508866669E+03 0.  0.
          5    1    3    3  502    0  0.13105615378E+02  0.25458565785E+01  0.48416721983E+02  0.50397320442E+02  0.41800000000E+01 0.  1.
         -5    1    3    3    0  502  0.52402016581E+02  0.57220686759E+02 -0.69740196186E+02  0.10440950962E+03  0.41800000000E+01 0.  1.
        -11    1    1    2    0    0 -0.14961809786E+02  0.22898521349E+02  0.11509731235E+02  0.29676117420E+02  0.00000000000E+00 0. -1.
         11    1    1    2    0    0 -0.50545822172E+02 -0.82665064687E+02 -0.13491403084E+02  0.97828477530E+02  0.00000000000E+00 0.  1.
</event>
<event>
 7    1  0.2641580E-009  0.1406570E+03  0.7561462E-02  0.1212448E+00
         -1   -1    0    0    0  501 -0.00000000000E+00  0.00000000000E+00  0.11911216248E+03  0.11911216248E+03  0.00000000000E+00 0.  1.
          1   -1    0    0  501    0  0.00000000000E+00 -0.00000000000E+00 -0.21299034347E+03  0.21299034347E+03  0.00000000000E+00 0. -1.
         25    2    1    2    0    0 -0.89060219923E+02  0.77276291402E+02 -0.48353959356E+02  0.17857423523E+03  0.12508918466E+03 0.  0.
          5    1    3    3  502    0 -0.19776104772E+02 -0.28170173807E+02 -0.38707745575E+02  0.51965517218E+02  0.41800000000E+01 0. -1.
         -5    1    3    3    0  502 -0.69284115151E+02  0.10544646521E+03 -0.96462137808E+01  0.12660871802E+03  0.41800000000E+01 0. -1.
        -11    1    1    2    0    0  0.59214593909E+02 -0.65548292061E+02 -0.70389831330E+02  0.11294987861E+03  0.00000000000E+00 0. -1.
         11    1    1    2    0    0  0.29845626015E+02 -0.11727999341E+02  0.24865609692E+02  0.40578392108E+02  0.00000000000E+00 0.  1.
</event>
<event>
 7    1  0.2641580E-009  0.1161657E+03  0.7561462E-02  0.1249560E+00
          2   -1    0    0  501    0  0.00000000000E+00  0.00000000000E+00  0.62431282941E+02  0.62431282941E+02  0.00000000000E+00 0. -1.
         -2   -1    0    0    0  501 -0.00000000000E+00 -0.00000000000E+00 -0.27507226438E+03  0.27507226438E+03  0.00000000000E+00 0.  1.
         25    2    1    2    0    0 -0.51121790310E+02  0.46946065781E+02 -0.14655359870E+03  0.20479533584E+03  0.12508317934E+03 0.  0.
          5    1    3    3  502    0 -0.76105287087E+02  0.70422287403E+02 -0.13044312631E+03  0.16668591688E+03  0.41800000000E+01 0. -1.
         -5    1    3    3    0  502  0.24983496777E+02 -0.23476221622E+02 -0.16110472397E+02  0.38109418963E+02  0.41800000000E+01 0. -1.
        -11    1    1    2    0    0  0.48995135394E+02 -0.20106877700E+01 -0.72232625297E+02  0.87304743943E+02  0.00000000000E+00 0.  1.
         11    1    1    2    0    0  0.21266549165E+01 -0.44935378011E+02  0.61452425609E+01  0.45403467535E+02  0.00000000000E+00 0. -1.
</event>
<event>
 7    1  0.2641580E-009  0.7410266E+02  0.7561462E-02  0.1346673E+00
         -1   -1    0    0    0  501 -0.00000000000E+00  0.00000000000E+00  0.11172256323E+03  0.11172256323E+03  0.00000000000E+00 0.  1.
          1   -1    0    0  501    0  0.00000000000E+00 -0.00000000000E+00 -0.11215061678E+03  0.11215061678E+03  0.00000000000E+00 0. -1.
         25    2    1    2    0    0 -0.11529000544E+02  0.26367070391E+02 -0.12450342510E+02  0.12896665401E+03  0.12509694866E+03 0.  0.
          5    1    3    3  502    0 -0.25595689026E+02 -0.19303671468E+02  0.44182406211E+02  0.54747862492E+02  0.41800000000E+01 0.  1.
         -5    1    3    3    0  502  0.14066688482E+02  0.45670741860E+02 -0.56632748721E+02  0.74218791519E+02  0.41800000000E+01 0.  1.
        -11    1    1    2    0    0  0.31938745048E+02  0.30682161820E+01  0.38680532785E+02  0.50256153875E+02  0.00000000000E+00 0.  1.
         11    1    1    2    0    0 -0.20409744504E+02 -0.29435286573E+02 -0.26658243831E+02  0.44650372121E+02  0.00000000000E+00 0. -1.
</event>
<event>
 7    1  0.2641580E-009  0.1002737E+03  0.7561462E-02  0.1279721E+00
          1   -1    0    0  501    0  0.00000000000E+00  0.00000000000E+00  0.27141001353E+03  0.27141001353E+03  0.00000000000E+00 0. -1.
         -1   -1    0    0    0  501 -0.00000000000E+00 -0.00000000000E+00 -0.92607538718E+02  0.92607538718E+02  0.00000000000E+00 0.  1.
         25    2    1    2    0    0 -0.55320363963E+02  0.34902837135E+02  0.20442418990E+03  0.24842548449E+03  0.12508965272E+03 0.  0.
          5    1    3    3  502    0  0.94169832111E+01 -0.57563524893E+01  0.15893021878E+03  0.15936781986E+03  0.41800000000E+01 0.  1.
         -5    1    3    3    0  502 -0.64737347174E+02  0.40659189625E+02  0.45493971117E+02  0.89057664623E+02  0.41800000000E+01 0.  1.
        -11    1    1    2    0    0  0.56930768800E+02  0.17652411051E+02 -0.19203721406E+02  0.62621904857E+02  0.00000000000E+00 0.  1.
         11    1    1    2    0    0 -0.16104048368E+01 -0.52555248187E+02 -0.64179936741E+01  0.52970162908E+02  0.00000000000E+00 0. -1.
</event>
<event>
 7    1  0.2641580E-009  0.1219933E+03  0.7561462E-02  0.1239844E+00
         -1   -1    0    0    0  501 -0.00000000000E+00  0.00000000000E+00  0.11507550451E+03  0.11507550451E+03  0.00000000000E+00 0.  1.
          1   -1    0    0  501    0  0.00000000000E+00 -0.00000000000E+00 -0.18029639414E+03  0.18029639414E+03  0.00000000000E+00 0. -1.
         25    2    1    2    0    0 -0.41837132485E+02 -0.82710513635E+02 -0.52273047419E+02  0.16422982350E+03  0.12509032224E+03 0.  0.
          5    1    3    3  502    0 -0.69663563198E+02 -0.28691653751E+02  0.11173485174E+02  0.76279369448E+02  0.41800000000E+01 0.  1.
         -5    1    3    3    0  502  0.27826430713E+02 -0.54018859884E+02 -0.63446532593E+02  0.87950454050E+02  0.41800000000E+01 0.  1.
        -11    1    1    2    0    0 -0.32438093476E+01  0.54167472682E+02  0.30575069634E+02  0.62285409841E+02  0.00000000000E+00 0.  1.
         11    1    1    2    0    0  0.45080941832E+02  0.28543040953E+02 -0.43522911843E+02  0.68856665317E+02  0.00000000000E+00 0. -1.
</event>
<event>
 7    1  0.2641580E-009  0.1990075E+03  0.7561462E-02  0.1150579E+00
         -3   -1    0    0    0  501 -0.00000000000E+00  0.00000000000E+00  0.48628545663E+03  0.48628545663E+03  0.00000000000E+00 0.  1.
          3   -1    0    0  501    0  0.00000000000E+00 -0.00000000000E+00 -0.18749016535E+03  0.18749016535E+03  0.00000000000E+00 0. -1.
         25    2    1    2    0    0  0.50158814900E+02  0.18142044820E+03 -0.81091335107E+02  0.24010849400E+03  0.12508796315E+03 0.  0.
          5    1    3    3  502    0  0.46929610543E+02  0.14378148676E+03 -0.11430960418E+03  0.18963033061E+03  0.41800000000E+01 0. -1.
         -5    1    3    3    0  502  0.32292043570E+01  0.37638961441E+02  0.33218269071E+02  0.50478163389E+02  0.41800000000E+01 0. -1.
        -11    1    1    2    0    0 -0.60512827938E+01 -0.15919918149E+03  0.27717943731E+03  0.31970210802E+03  0.00000000000E+00 0.  1.
         11    1    1    2    0    0 -0.44107532106E+02 -0.22221266714E+02  0.10270718909E+03  0.11396501995E+03  0.00000000000E+00 0. -1.
</event>
<event>
 7    1  0.2641580E-009  0.1828567E+03  0.7561462E-02  0.1165067E+00
          1   -1    0    0  501    0  0.00000000000E+00  0.00000000000E+00  0.14295260437E+03  0.14295260437E+03  0.00000000000E+00 0.  1.
         -1   -1    0    0    0  501 -0.00000000000E+00 -0.00000000000E+00 -0.44576512826E+03  0.44576512826E+03  0.00000000000E+00 0. -1.
         25    2    1    2    0    0 -0.11650137872E+02 -0.15878792072E+03  0.35787512908E+02  0.20561509906E+03  0.12508994125E+03 0.  0.
          5    1    3    3  502    0 -0.49365619938E+02 -0.13213835638E+03 -0.86566627911E+01  0.14138571310E+03  0.41800000000E+01 0. -1.
         -5    1    3    3    0  502  0.37715482066E+02 -0.26649564342E+02  0.44444175699E+02  0.64229385959E+02  0.41800000000E+01 0. -1.
        -11    1    1    2    0    0  0.45485391401E+02  0.10810384283E+03 -0.20313988014E+03  0.23456592371E+03  0.00000000000E+00 0.  1.
         11    1    1    2    0    0 -0.33835253529E+02  0.50684077887E+02 -0.13546015666E+03  0.14853670985E+03  0.00000000000E+00 0. -1.
</event>
<event>
 7    1  0.2641580E-009  0.1689067E+03  0.7561462E-02  0.1178993E+00
         -1   -1    0    0    0  501 -0.00000000000E+00  0.00000000000E+00  0.17455413556E+03  0.17455413556E+03  0.00000000000E+00 0.  1.
          1   -1    0    0  501    0  0.00000000000E+00 -0.00000000000E+00 -0.20566605242E+03  0.20566605242E+03  0.00000000000E+00 0. -1.
         25    2    1    2    0    0 -0.22183711783E+01  0.15411601424E+03 -0.29364044122E+01  0.19852531488E+03  0.12508801367E+03 0.  0.
          5    1    3    3  502    0 -0.11763006734E+02  0.16795721259E+02 -0.49023448024E+02  0.53303240391E+02  0.41800000000E+01 0.  1.
         -5    1    3    3    0  502  0.95446355557E+01  0.13732029298E+03  0.46087043612E+02  0.14522207449E+03  0.41800000000E+01 0.  1.
        -11    1    1    2    0    0 -0.41913710480E+02 -0.45140560425E+02 -0.14899039251E+02  0.63375158322E+02  0.00000000000E+00 0.  1.
         11    1    1    2    0    0  0.44132081658E+02 -0.10897545381E+03 -0.13276473198E+02  0.11831971478E+03  0.00000000000E+00 0. -1.
</event>
<event>
 7    1  0.2641580E-009  0.1330231E+03  0.7561462E-02  0.1223038E+00
         -1   -1    0    0    0  501 -0.00000000000E+00  0.00000000000E+00  0.40907773095E+03  0.40907773095E+03  0.00000000000E+00 0.  1.
          1   -1    0    0  501    0  0.00000000000E+00 -0.00000000000E+00 -0.62637310113E+02  0.62637310113E+02  0.00000000000E+00 0. -1.
         25    2    1    2    0    0  0.12453010911E+02  0.10922150559E+03  0.13800890012E+03  0.21628499076E+03  0.12509326901E+03 0.  0.
          5    1    3    3  502    0 -0.40455373809E+01 -0.18886248863E+02 -0.79808257563E+01  0.21312502166E+02  0.41800000000E+01 0. -1.
         -5    1    3    3    0  502  0.16498548292E+02  0.12810775445E+03  0.14598972587E+03  0.19497248859E+03  0.41800000000E+01 0. -1.
        -11    1    1    2    0    0 -0.14930736814E+02 -0.10393895455E+02 -0.61234884499E+01  0.19195235746E+02  0.00000000000E+00 0. -1.
         11    1    1    2    0    0  0.24777259029E+01 -0.98827610134E+02  0.21455500918E+03  0.23623481457E+03  0.00000000000E+00 0.  1.
</event>
<event>
 7    1  0.2641580E-009  0.2176414E+03  0.7561462E-02  0.1135654E+00
         -1   -1    0    0    0  501 -0.00000000000E+00  0.00000000000E+00  0.49411461681E+02  0.49411461681E+02  0.00000000000E+00 0.  1.
          1   -1    0    0  501    0  0.00000000000E+00 -0.00000000000E+00 -0.10883215763E+04  0.10883215763E+04  0.00000000000E+00 0. -1.
         25    2    1    2    0    0 -0.19340238733E+03 -0.24451225731E+02 -0.38379574999E+03  0.44827259958E+03  0.12508716946E+03 0.  0.
          5    1    3    3  502    0 -0.27721451216E+02  0.43593959799E+02 -0.72853060734E+02  0.89408909214E+02  0.41800000000E+01 0. -1.
         -5    1    3    3    0  502 -0.16568093612E+03 -0.68045185530E+02 -0.31094268925E+03  0.35886369037E+03  0.41800000000E+01 0. -1.
        -11    1    1    2    0    0  0.14116843694E+03  0.44994294629E+02 -0.36427873396E+03  0.39325819782E+03  0.00000000000E+00 0.  1.
         11    1    1    2    0    0  0.52233950391E+02 -0.20543068899E+02 -0.29083563068E+03  0.29620224058E+03  0.00000000000E+00 0. -1.
</event>
<event>
 7    1  0.2641580E-009  0.1399293E+03  0.7561462E-02  0.1213424E+00
         -2   -1    0    0    0  501 -0.00000000000E+00  0.00000000000E+00  0.84598130148E+02  0.84598130148E+02  0.00000000000E+00 0.  1.
          2   -1    0    0  501    0  0.00000000000E+00 -0.00000000000E+00 -0.32338851435E+03  0.32338851435E+03  0.00000000000E+00 0. -1.
         25    2    1    2    0    0  0.33399953495E+02 -0.85760468497E+02 -0.22762740005E+03  0.27555616138E+03  0.12508617018E+03 0.  0.
          5    1    3    3  502    0 -0.19172527862E+02 -0.98755605589E+02 -0.15582391912E+03  0.18552310269E+03  0.41800000000E+01 0.  1.
         -5    1    3    3    0  502  0.52572481358E+02  0.12995137092E+02 -0.71803480930E+02  0.90033058694E+02  0.41800000000E+01 0.  1.
        -11    1    1    2    0    0 -0.62058838928E+02  0.57294614466E+02  0.12855466884E+02  0.85435562647E+02  0.00000000000E+00 0.  1.
         11    1    1    2    0    0  0.28658885433E+02  0.28465854031E+02 -0.24018451032E+02  0.46994920470E+02  0.00000000000E+00 0. -1.
</event>
<event>
 7    1  0.2641580E-009  0.7194439E+02  0.7561462E-02  0.1353603E+00
          3   -1    0    0  501    0  0.00000000000E+00  0.00000000000E+00  0.39755634256E+02  0.39755634256E+02  0.00000000000E+00 0. -1.
         -3   -1    0    0    0  501 -0.00000000000E+00 -0.00000000000E+00 -0.44428720281E+03  0.44428720281E+03  0.00000000000E+00 0.  1.
         25    2    1    2    0    0 -0.24598744841E+02  0.36788355974E+02 -0.10824118043E+03  0.17123738703E+03  0.12509040009E+03 0.  0.
          5    1    3    3  502    0  0.11364473853E+01  0.21820522310E+02  0.25684261752E+02  0.33979117238E+02  0.41800000000E+01 0.  1.
         -5    1    3    3    0  502 -0.25735192226E+02  0.14967833665E+02 -0.13392544218E+03  0.13725826979E+03  0.41800000000E+01 0.  1.
        -11    1    1    2    0    0  0.33606037661E+02  0.16567697813E+02 -0.18858933534E+03  0.19227530206E+03  0.00000000000E+00 0.  1.
         11    1    1    2    0    0 -0.90072928204E+01 -0.53356053787E+02 -0.10770105278E+03  0.12053014797E+03  0.00000000000E+00 0. -1.
</event>
<event>
 7    1  0.2641580E-009  0.1203842E+03  0.7561462E-02  0.1242465E+00
         -2   -1    0    0    0  501 -0.00000000000E+00  0.00000000000E+00  0.82300407038E+02  0.82300407038E+02  0.00000000000E+00 0.  1.
          2   -1    0    0  501    0  0.00000000000E+00 -0.00000000000E+00 -0.20845738275E+03  0.20845738275E+03  0.00000000000E+00 0. -1.
         25    2    1    2    0    0  0.68039882496E+02  0.19844795721E+02 -0.81167728996E+02  0.16511223501E+03  0.12510239164E+03 0.  0.
          5    1    3    3  502    0  0.69324251302E+02  0.54873489760E+02 -0.14523155421E+02  0.89695853530E+02  0.41800000000E+01 0. -1.
         -5    1    3    3    0  502 -0.12843688061E+01 -0.35028694039E+02 -0.66644573574E+02  0.75416381484E+02  0.41800000000E+01 0. -1.
        -11    1    1    2    0    0  0.55335953493E+01  0.28426628307E+02 -0.15454926785E+02  0.32826035952E+02  0.00000000000E+00 0.  1.
         11    1    1    2    0    0 -0.73573477846E+02 -0.48271424028E+02 -0.29534319927E+02  0.92819518818E+02  0.00000000000E+00 0. -1.
</event>
<event>
 7    1  0.2641580E-009  0.1561609E+03  0.7561462E-02  0.1193101E+00
          2   -1    0    0  501    0  0.00000000000E+00  0.00000000000E+00  0.80061311395E+03  0.80061311395E+03  0.00000000000E+00 0.  1.
         -2   -1    0    0    0  501 -0.00000000000E+00 -0.00000000000E+00 -0.31038178534E+02  0.31038178534E+02  0.00000000000E+00 0. -1.
         25    2    1    2    0    0  0.21838538656E+02 -0.10864441643E+03  0.44975056845E+03  0.47979534564E+03  0.12508984325E+03 0.  0.
          5    1    3    3  502    0 -0.39330329037E+02  0.29076789211E+01  0.97936763729E+02  0.10566177865E+03  0.41800000000E+01 0.  1.
         -5    1    3    3    0  502  0.61168867693E+02 -0.11155209535E+03  0.35181380472E+03  0.37413356698E+03  0.41800000000E+01 0.  1.
        -11    1    1    2    0    0 -0.38944120136E+02  0.37859341525E+01  0.66551859359E+02  0.77201863803E+02  0.00000000000E+00 0.  1.
         11    1    1    2    0    0  0.17105581480E+02  0.10485848227E+03  0.25327250761E+03  0.27465408304E+03  0.00000000000E+00 0. -1.
</event>
<event>
 7    1  0.2641580E-009  0.1233892E+03  0.7561462E-02  0.1237608E+00
          1   -1    0    0  501    0  0.00000000000E+00  0.00000000000E+00  0.18811649292E+03  0.18811649292E+03  0.00000000000E+00 0. -1.
         -1   -1    0    0    0  501 -0.00000000000E+00 -0.00000000000E+00 -0.12510202020E+03  0.12510202020E+03  0.00000000000E+00 0.  1.
         25    2    1    2    0    0 -0.27518470757E+00 -0.62126887377E+02  0.12563378043E+03  0.18785953403E+03  0.12509009505E+03 0.  0.
          5    1    3    3  502    0  0.15890941253E+02 -0.98314139053E+02  0.85937630363E+02  0.13160904477E+03  0.41800000000E+01 0. -1.
         -5    1    3    3    0  502 -0.16166125960E+02  0.36187251677E+02  0.39696150062E+02  0.56250489262E+02  0.41800000000E+01 0. -1.
        -11    1    1    2    0    0  0.41150889160E+02  0.49697274236E+02 -0.47175407137E+02  0.79929555132E+02  0.00000000000E+00 0.  1.
         11    1    1    2    0    0 -0.40875704452E+02  0.12429613141E+02 -0.15443900567E+02  0.45429423968E+02  0.00000000000E+00 0. -1.
</event>
<event>
 7    1  0.2641580E-009  0.1303441E+03  0.7561462E-02  0.1226946E+00
          2   -1    0    0  501    0  0.00000000000E+00  0.00000000000E+00  0.12336177332E+04  0.12336177332E+04  0.00000000000E+00 0. -1.
         -2   -1    0    0    0  501 -0.00000000000E+00 -0.00000000000E+00 -0.22301441168E+02  0.22301441168E+02  0.00000000000E+00 0.  1.
         25    2    1    2    0    0 -0.70925416986E+02  0.10240073908E+03  0.69593770934E+03  0.71797889414E+03  0.12509225000E+03 0.  0.
          5    1    3    3  502    0 -0.18265668313E+02  0.43305379053E+02  0.56343476943E+02  0.73491838240E+02  0.41800000000E+01 0. -1.
         -5    1    3    3    0  502 -0.52659748673E+02  0.59095360022E+02  0.63959423239E+03  0.64448705590E+03  0.41800000000E+01 0. -1.
        -11    1    1    2    0    0  0.16544400810E+02  0.18593722524E+01  0.10809083693E+02  0.19849704119E+02  0.00000000000E+00 0.  1.
         11    1    1    2    0    0  0.54381016176E+02 -0.10426011133E+03  0.50456949900E+03  0.51809057611E+03  0.00000000000E+00 0. -1.
</event>
<event>
 7    1  0.2641580E-009  0.1276999E+03  0.7561462E-02  0.1230909E+00
          2   -1    0    0  501    0  0.00000000000E+00  0.00000000000E+00  0.14082406275E+04  0.14082406275E+04  0.00000000000E+00 0. -1.
         -2   -1    0    0    0  501 -0.00000000000E+00 -0.00000000000E+00 -0.14556731414E+02  0.14556731414E+02  0.00000000000E+00 0.  1.
         25    2    1    2    0    0  0.25975691135E+02 -0.71281406259E+02  0.10258806750E+04  0.10362587044E+04  0.12508064432E+03 0.  0.
          5    1    3    3  502    0  0.42513980592E+02  0.18472240529E+02  0.52941870561E+03  0.53146053520E+03  0.41800000000E+01 0.  1.
         -5    1    3    3    0  502 -0.16538289457E+02 -0.89753646788E+02  0.49646196941E+03  0.50479816918E+03  0.41800000000E+01 0.  1.
        -11    1    1    2    0    0 -0.50010933477E+02  0.90990416473E+01  0.18883738107E+03  0.19555930690E+03  0.00000000000E+00 0. -1.
         11    1    1    2    0    0  0.24035242342E+02  0.62182364612E+02  0.17896584001E+03  0.19097934766E+03  0.00000000000E+00 0.  1.
</event>
<event>
 7    1  0.2641580E-009  0.8741341E+02  0.7561462E-02  0.1309239E+00
         -2   -1    0    0    0  501 -0.00000000000E+00  0.00000000000E+00  0.34784695533E+02  0.34784695533E+02  0.00000000000E+00 0. -1.
          2   -1    0    0  501    0  0.00000000000E+00 -0.00000000000E+00 -0.45217931718E+03  0.45217931718E+03  0.00000000000E+00 0.  1.
         25    2    1    2    0    0  0.58522437866E+02  0.19722418591E+02 -0.26244978152E+03  0.29722214330E+03  0.12508902877E+03 0.  0.
          5    1    3    3  502    0  0.58849908316E+02 -0.18293763350E+01 -0.26812445338E+03  0.27454481096E+03  0.41800000000E+01 0. -1.
         -5    1    3    3    0  502 -0.32747044975E+00  0.21551794926E+02  0.56746718556E+01  0.22677332341E+02  0.41800000000E+01 0. -1.
        -11    1    1    2    0    0 -0.74664820339E+02 -0.21250148561E+02 -0.15519240615E+03  0.17352546538E+03  0.00000000000E+00 0.  1.
         11    1    1    2    0    0  0.16142382473E+02  0.15277299699E+01  0.24756601996E+00  0.16216404031E+02  0.00000000000E+00 0. -1.
</event>
<event>
 7    1  0.2641580E-009  0.1133752E+03  0.7561462E-02  0.1254444E+00
          1   -1    0    0  501    0  0.00000000000E+00  0.00000000000E+00  0.48344569424E+03  0.48344569424E+03  0.00000000000E+00 0.  1.
         -1   -1    0    0    0  501 -0.00000000000E+00 -0.00000000000E+00 -0.26777550209E+02  0.26777550209E+02  0.00000000000E+00 0. -1.
         25    2    1    2    0    0  0.35921118948E+02  0.36603578296E+01  0.24331091401E+03  0.27595482824E+03  0.12508853404E+03 0.  0.
          5    1    3    3  502    0  0.82789746898E+02  0.20180985228E+01  0.14788261951E+03  0.16954337635E+03  0.41800000000E+01 0. -1.
         -5    1    3    3    0  502 -0.46868627950E+02  0.16422593068E+01  0.95428294497E+02  0.10641145188E+03  0.41800000000E+01 0. -1.
        -11    1    1    2    0    0  0.11654815799E+02  0.34081383729E+02  0.80129101555E+02  0.87852423781E+02  0.00000000000E+00 0. -1.
         11    1    1    2    0    0 -0.47575934747E+02 -0.37741741559E+02  0.13322812847E+03  0.14641599243E+03  0.00000000000E+00 0.  1.
</event>
<event>
 7    1  0.2641580E-009  0.1215221E+03  0.7561462E-02  0.1240607E+00
          1   -1    0    0  501    0  0.00000000000E+00  0.00000000000E+00  0.11052470373E+04  0.11052470373E+04  0.00000000000E+00 0. -1.
         -1   -1    0    0    0  501 -0.00000000000E+00 -0.00000000000E+00 -0.14251867106E+02  0.14251867106E+02  0.00000000000E+00 0.  1.
         25    2    1    2    0    0  0.35665529419E+02  0.53257457055E+02  0.62574706233E+03  0.64133820961E+03  0.12508767473E+03 0.  0.
          5    1    3    3  502    0  0.27053718071E+02 -0.38862583463E+02  0.18987168791E+03  0.19573179181E+03  0.41800000000E+01 0.  1.
         -5    1    3    3    0  502  0.86118113480E+01  0.92120040518E+02  0.43587537441E+03  0.44560641779E+03  0.41800000000E+01 0.  1.
        -11    1    1    2    0    0  0.25812577326E+02 -0.22041432763E+02  0.81797050691E+02  0.88559987626E+02  0.00000000000E+00 0.  1.
         11    1    1    2    0    0 -0.61478106745E+02 -0.31216024292E+02  0.38345105721E+03  0.38960070721E+03  0.00000000000E+00 0. -1.
</event>
<event>
 7    1  0.2641580E-009  0.1386522E+03  0.7561462E-02  0.1215154E+00
         -1   -1    0    0    0  501 -0.00000000000E+00  0.00000000000E+00  0.31893910621E+02  0.31893910621E+02  0.00000000000E+00 0.  1.
          1   -1    0    0  501    0  0.00000000000E+00 -0.00000000000E+00 -0.61500957409E+03  0.61500957409E+03  0.00000000000E+00 0. -1.
         25    2    1    2    0    0  0.31810722041E+02 -0.81042213903E+02 -0.28827251422E+03  0.32608051394E+03  0.12509075364E+03 0.  0.
          5    1    3    3  502    0 -0.36378468170E+02  0.91091752620E+01 -0.53360731874E+02  0.65354495840E+02  0.41800000000E+01 0.  1.
         -5    1    3    3    0  502  0.68189190211E+02 -0.90151389165E+02 -0.23491178234E+03  0.26072601810E+03  0.41800000000E+01 0.  1.
        -11    1    1    2    0    0 -0.64338430729E+02  0.57695887108E+02 -0.19932893714E+03  0.21725624096E+03  0.00000000000E+00 0.  1.
         11    1    1    2    0    0  0.32527708688E+02  0.23346326795E+02 -0.95514212113E+02  0.10356672981E+03  0.00000000000E+00 0. -1.
</event>
<event>
 7    1  0.2641580E-009  0.1646253E+03  0.7561462E-02  0.1183572E+00
         -4   -1    0    0    0  501 -0.00000000000E+00  0.00000000000E+00  0.41724229287E+02  0.41724229287E+02  0.00000000000E+00 0. -1.
          4   -1    0    0  501    0  0.00000000000E+00 -0.00000000000E+00 -0.91982368622E+03  0.91982368622E+03  0.00000000000E+00 0.  1.
         25    2    1    2    0    0  0.87888000781E+02  0.84254786019E+02 -0.69909187405E+03  0.72055559136E+03  0.12509093584E+03 0.  0.
          5    1    3    3  502    0  0.44121627562E+02 -0.25246967523E+02 -0.30292699543E+03  0.30719108768E+03  0.41800000000E+01 0.  1.
         -5    1    3    3    0  502  0.43766373219E+02  0.10950175354E+03 -0.39616487862E+03  0.41336450369E+03  0.41800000000E+01 0.  1.
        -11    1    1    2    0    0  0.15828675052E+02 -0.47730323782E+02 -0.43560813843E+02  0.66530258266E+02  0.00000000000E+00 0.  1.
         11    1    1    2    0    0 -0.10371667583E+03 -0.36524462236E+02 -0.13544676903E+03  0.17446206587E+03  0.00000000000E+00 0. -1.
</event>
<event>
 7    1  0.2641580E-009  0.1091285E+03  0.7561462E-02  0.1262192E+00
          2   -1    0    0  501    0  0.00000000000E+00  0.00000000000E+00  0.11246316432E+04  0.11246316432E+04  0.00000000000E+00 0. -1.
         -2   -1    0    0    0  501 -0.00000000000E+00 -0.00000000000E+00 -0.12699422307E+02  0.12699422307E+02  0.00000000000E+00 0.  1.
         25    2    1    2    0    0  0.18475529669E+02  0.39515500880E+02  0.73863369861E+03  0.75042183534E+03  0.12510143970E+03 0.  0.
          5    1    3    3  502    0 -0.34694515006E+01  0.74804124678E+02  0.27935217659E+03  0.28924523354E+03  0.41800000000E+01 0. -1.
         -5    1    3    3    0  502  0.21944981170E+02 -0.35288623798E+02  0.45928152203E+03  0.46117660180E+03  0.41800000000E+01 0. -1.
        -11    1    1    2    0    0  0.37487936882E+02 -0.17123827915E+02  0.16450586443E+03  0.16958994760E+03  0.00000000000E+00 0. -1.
         11    1    1    2    0    0 -0.55963466552E+02 -0.22391672966E+02  0.20879265786E+03  0.21731928258E+03  0.00000000000E+00 0.  1.
</event>
<event>
 7    1  0.2641580E-009  0.1302150E+03  0.7561462E-02  0.1227137E+00
          3   -1    0    0  501    0  0.00000000000E+00  0.00000000000E+00  0.47524230373E+03  0.47524230373E+03  0.00000000000E+00 0. -1.
         -3   -1    0    0    0  501 -0.00000000000E+00 -0.00000000000E+00 -0.50135336669E+02  0.50135336669E+02  0.00000000000E+00 0.  1.
         25    2    1    2    0    0  0.46536110829E+02  0.59476108015E+02  0.94039897692E+02  0.17376473041E+03  0.12509061572E+03 0.  0.
          5    1    3    3  502    0  0.48369397071E+02 -0.27306908197E+02  0.18719785400E+02  0.58763667122E+02  0.41800000000E+01 0. -1.
         -5    1    3    3    0  502 -0.18332862419E+01  0.86783016212E+02  0.75320112292E+02  0.11500106329E+03  0.41800000000E+01 0. -1.
        -11    1    1    2    0    0 -0.21175012060E+01 -0.71718651331E+02  0.21859860443E+03  0.23007259423E+03  0.00000000000E+00 0.  1.
         11    1    1    2    0    0 -0.44418609623E+02  0.12242543316E+02  0.11246846494E+03  0.12154031576E+03  0.00000000000E+00 0. -1.
</event>
<event>
 7    1  0.2641580E-009  0.1176596E+03  0.7561462E-02  0.1247009E+00
          1   -1    0    0  501    0  0.00000000000E+00  0.00000000000E+00  0.68426577204E+03  0.68426577204E+03  0.00000000000E+00 0. -1.
         -1   -1    0    0    0  501 -0.00000000000E+00 -0.00000000000E+00 -0.29590990278E+02  0.29590990278E+02  0.00000000000E+00 0.  1.
         25    2    1    2    0    0  0.85187511334E+02 -0.22456135145E+02  0.29557397237E+03  0.33282743042E+03  0.12509570418E+03 0.  0.
          5    1    3    3  502    0  0.15508380791E+00 -0.32763832324E+02  0.20671030546E+03  0.20933254774E+03  0.41800000000E+01 0. -1.
         -5    1    3    3    0  502  0.85032427526E+02  0.10307697179E+02  0.88863666914E+02  0.12349488269E+03  0.41800000000E+01 0. -1.
        -11    1    1    2    0    0 -0.23026793457E+02  0.44886918867E+02  0.82991487067E+02  0.97121859681E+02  0.00000000000E+00 0.  1.
         11    1    1    2    0    0 -0.62160717878E+02 -0.22430783723E+02  0.27610932232E+03  0.28390747221E+03  0.00000000000E+00 0. -1.
</event>
<event>
 7    1  0.2641580E-009  0.1394592E+03  0.7561462E-02  0.1214058E+00
         -2   -1    0    0    0  501 -0.00000000000E+00  0.00000000000E+00  0.58344855642E+02  0.58344855642E+02  0.00000000000E+00 0.  1.
          2   -1    0    0  501    0  0.00000000000E+00 -0.00000000000E+00 -0.37125414482E+03  0.37125414482E+03  0.00000000000E+00 0. -1.
         25    2    1    2    0    0 -0.66123153352E+02  0.65242466077E+02 -0.20986493459E+03  0.26138085677E+03  0.12509120963E+03 0.  0.
          5    1    3    3  502    0 -0.94515784145E+02  0.12637172055E+02 -0.13831205740E+03  0.16804948435E+03  0.41800000000E+01 0. -1.
         -5    1    3    3    0  502  0.28392630793E+02  0.52605294021E+02 -0.71552877190E+02  0.93331372413E+02  0.41800000000E+01 0. -1.
        -11    1    1    2    0    0  0.57829636173E+02 -0.51915571402E-01 -0.79718740845E+02  0.98485263654E+02  0.00000000000E+00 0.  1.
         11    1    1    2    0    0  0.82935171788E+01 -0.65190550505E+02 -0.23325613750E+02  0.69732880044E+02  0.00000000000E+00 0. -1.
</event>
<event>
 7    1  0.2881852E-009  0.8363193E+02  0.7561462E-02  0.1319049E+00
          2   -1    0    0  501    0  0.00000000000E+00  0.00000000000E+00  0.38399327323E+02  0.38399327323E+02  0.00000000000E+00 0. -1.
         -2   -1    0    0    0  501 -0.00000000000E+00 -0.00000000000E+00 -0.40292088803E+03  0.40292088803E+03  0.00000000000E+00 0.  1.
         25    2    1    2    0    0  0.33156716766E+02 -0.50824146513E+02 -0.19344037802E+03  0.23822743649E+03  0.12510263750E+03 0.  0.
          5    1    3    3  502    0  0.11463611932E+02 -0.29958262379E+02 -0.20362460677E+03  0.20617799292E+03  0.41800000000E+01 0. -1.
         -5    1    3    3    0  502  0.21693104834E+02 -0.20865884134E+02  0.10184228741E+02  0.32049443569E+02  0.41800000000E+01 0. -1.
        -11    1    1    2    0    0 -0.50898506981E+02  0.21515156438E+00 -0.53419989455E+02  0.73786174698E+02  0.00000000000E+00 0. -1.
         11    1    1    2    0    0  0.17741790216E+02  0.50608994949E+02 -0.11766119323E+03  0.12930660417E+03  0.00000000000E+00 0.  1.
</event>
<event>
 7    1  0.2641580E-009  0.9403517E+02  0.7561462E-02  0.1293364E+00
         -1   -1    0    0    0  501 -0.00000000000E+00  0.00000000000E+00  0.24910737018E+03  0.24910737018E+03  0.00000000000E+00 0.  1.
          1   -1    0    0  501    0  0.00000000000E+00 -0.00000000000E+00 -0.44134932063E+02  0.44134932063E+02  0.00000000000E+00 0. -1.
         25    2    1    2    0    0  0.27590791265E+02 -0.57126163789E+01  0.87303223812E+02  0.15512669645E+03  0.12509417778E+03 0.  0.
          5    1    3    3  502    0 -0.35361832481E+02  0.33390575380E+02  0.56755217387E+02  0.74859981440E+02  0.41800000000E+01 0.  1.
         -5    1    3    3    0  502  0.62952623746E+02 -0.39103191759E+02  0.30548006425E+02  0.80266715012E+02  0.41800000000E+01 0.  1.
        -11    1    1    2    0    0 -0.31724940620E+02  0.28029045358E+02  0.10227842482E+03  0.11069315889E+03  0.00000000000E+00 0.  1.
         11    1    1    2    0    0  0.41341493545E+01 -0.22316428979E+02  0.15390789488E+02  0.27422446906E+02  0.00000000000E+00 0. -1.
</event>
<event>
 7    1  0.2641580E-009  0.1268323E+03  0.7561462E-02  0.1232233E+00
         -2   -1    0    0    0  501 -0.00000000000E+00  0.00000000000E+00  0.49282650361E+02  0.49282650361E+02  0.00000000000E+00 0. -1.
          2   -1    0    0  501    0  0.00000000000E+00 -0.00000000000E+00 -0.42118548467E+03  0.42118548467E+03  0.00000000000E+00 0.  1.
         25    2    1    2    0    0 -0.86345817587E+01  0.67197216823E+02 -0.30934583521E+03  0.34048988734E+03  0.12509394735E+03 0.  0.
          5    1    3    3  502    0  0.13659711034E+02 -0.33586247384E+02 -0.11112375041E+03  0.11696402876E+03  0.41800000000E+01 0. -1.
         -5    1    3    3    0  502 -0.22294292793E+02  0.10078346421E+03 -0.19822208481E+03  0.22352585858E+03  0.41800000000E+01 0. -1.
        -11    1    1    2    0    0 -0.12859062720E+02 -0.84991434187E+02 -0.49190488562E+02  0.99038394294E+02  0.00000000000E+00 0.  1.
         11    1    1    2    0    0  0.21493644479E+02  0.17794217364E+02 -0.13366510534E+02  0.30939853401E+02  0.00000000000E+00 0. -1.
</event>
<event>
 7    1  0.2641580E-009  0.8537699E+02  0.7561462E-02  0.1314450E+00
         -1   -1    0    0    0  501 -0.00000000000E+00  0.00000000000E+00  0.20552661517E+03  0.20552661517E+03  0.00000000000E+00 0.  1.
          1   -1    0    0  501    0  0.00000000000E+00 -0.00000000000E+00 -0.70050126889E+02  0.70050126889E+02  0.00000000000E+00 0. -1.
         25    2    1    2    0    0 -0.36141217644E+02 -0.32499189755E+02  0.97336400687E+02  0.16578422583E+03  0.12509056594E+03 0.  0.
          5    1    3    3  502    0 -0.77236468587E+01 -0.69088859434E+02  0.15038885897E+02  0.71250022510E+02  0.41800000000E+01 0.  1.
         -5    1    3    3    0  502 -0.28417570785E+02  0.36589669679E+02  0.82297514790E+02  0.94534203319E+02  0.41800000000E+01 0.  1.
        -11    1    1    2    0    0  0.29647174482E+02  0.10178203677E+02  0.66264509767E+02  0.73304406686E+02  0.00000000000E+00 0.  1.
         11    1    1    2    0    0  0.64940431621E+01  0.22320986078E+02 -0.28124422169E+02  0.36488109549E+02  0.00000000000E+00 0. -1.
</event>
<event>
 7    1  0.2641580E-009  0.1718676E+03  0.7561462E-02  0.1175914E+00
          3   -1    0    0  501    0  0.00000000000E+00  0.00000000000E+00  0.42803701802E+03  0.42803701802E+03  0.00000000000E+00 0. -1.
         -3   -1    0    0    0  501 -0.00000000000E+00 -0.00000000000E+00 -0.90003645565E+02  0.90003645565E+02  0.00000000000E+00 0.  1.
         25    2    1    2    0    0  0.61763728927E+02  0.11870490465E+03  0.30028705502E+03  0.35174317519E+03  0.12508130668E+03 0.  0.
          5    1    3    3  502    0  0.58018384500E+02 -0.47311713210E+01  0.77932622910E+02  0.97362636754E+02  0.41800000000E+01 0.  1.
         -5    1    3    3    0  502  0.37453444266E+01  0.12343607597E+03  0.22235443211E+03  0.25438053843E+03  0.41800000000E+01 0.  1.
        -11    1    1    2    0    0 -0.39404059889E+01  0.15333584315E+02  0.58233134073E+01  0.16868805125E+02  0.00000000000E+00 0.  1.
         11    1    1    2    0    0 -0.57823322938E+02 -0.13403848896E+03  0.31923004032E+02  0.14942868327E+03  0.00000000000E+00 0. -1.
</event>
<event>
 7    1  0.2641580E-009  0.1210238E+03  0.7561462E-02  0.1241418E+00
         -2   -1    0    0    0  501 -0.00000000000E+00  0.00000000000E+00  0.63738769302E+02  0.63738769302E+02  0.00000000000E+00 0.  1.
          2   -1    0    0  501    0  0.00000000000E+00 -0.00000000000E+00 -0.32084998834E+03  0.32084998834E+03  0.00000000000E+00 0. -1.
         25    2    1    2    0    0  0.87238025591E+02  0.19433960162E+02 -0.18702441602E+03  0.24210185866E+03  0.12508807243E+03 0.  0.
          5    1    3    3  502    0 -0.22390443400E+02  0.20732847931E+02 -0.74912786713E+01  0.31698179681E+02  0.41800000000E+01 0. -1.
         -5    1    3    3    0  502  0.10962846899E+03 -0.12988877691E+01 -0.17953313735E+03  0.21040367898E+03  0.41800000000E+01 0. -1.
        -11    1    1    2    0    0 -0.13474403168E+02  0.14968466861E+02 -0.56483040008E+02  0.59966226740E+02  0.00000000000E+00 0. -1.
         11    1    1    2    0    0 -0.73763622423E+02 -0.34402427023E+02 -0.13603763005E+02  0.82520672234E+02  0.00000000000E+00 0.  1.
</event>
<event>
 7    1  0.2641580E-009  0.1095568E+03  0.7561462E-02  0.1261393E+00
          1   -1    0    0  501    0  0.00000000000E+00  0.00000000000E+00  0.35215280212E+03  0.35215280212E+03  0.00000000000E+00 0. -1.
         -1   -1    0    0    0  501 -0.00000000000E+00 -0.00000000000E+00 -0.43039606955E+02  0.43039606955E+02  0.00000000000E+00 0.  1.
         25    2    1    2    0    0  0.28007077898E+01 -0.46958064100E+02  0.11932045768E+03  0.17915675361E+03  0.12508743741E+03 0.  0.
          5    1    3    3  502    0 -0.27877122352E+02  0.25110757274E+02  0.86026403319E+02  0.93945189070E+02  0.41800000000E+01 0.  1.
         -5    1    3    3    0  502  0.30677830142E+02 -0.72068821373E+02  0.33294054359E+02  0.85211564544E+02  0.41800000000E+01 0.  1.
        -11    1    1    2    0    0 -0.69646112647E+01  0.74623308315E+02  0.14498944117E+03  0.16321483390E+03  0.00000000000E+00 0.  1.
         11    1    1    2    0    0  0.41639034748E+01 -0.27665244215E+02  0.44803296319E+02  0.52820821563E+02  0.00000000000E+00 0. -1.
</event>
<event>
 7    1  0.3315477E-009  0.1198526E+03  0.7561462E-02  0.1243340E+00
          1   -1    0    0  501    0  0.00000000000E+00  0.00000000000E+00  0.81810724344E+03  0.81810724344E+03  0.00000000000E+00 0. -1.
         -1   -1    0    0    0  501 -0.00000000000E+00 -0.00000000000E+00 -0.18942490348E+02  0.18942490348E+02  0.00000000000E+00 0.  1.
         25    2    1    2    0    0  0.57501819455E+02  0.46986777593E+01  0.51473574330E+03  0.53284835593E+03  0.12508376461E+03 0.  0.
          5    1    3    3  502    0 -0.11231555077E+02  0.51777318319E+02  0.23533677474E+03  0.24126315191E+03  0.41800000000E+01 0. -1.
         -5    1    3    3    0  502  0.68733374532E+02 -0.47078640559E+02  0.27939896856E+03  0.29158520402E+03  0.41800000000E+01 0. -1.
        -11    1    1    2    0    0 -0.33532414997E+02 -0.45080201368E+02  0.10941925399E+03  0.12300089656E+03  0.00000000000E+00 0.  1.
         11    1    1    2    0    0 -0.23969404458E+02  0.40381523608E+02  0.17500975580E+03  0.18120048130E+03  0.00000000000E+00 0. -1.
</event>
<event>
 7    1  0.2641580E-009  0.1433481E+03  0.7561462E-02  0.1208894E+00
         -2   -1    0    0    0  501 -0.00000000000E+00  0.00000000000E+00  0.80177658039E+02  0.80177658039E+02  0.00000000000E+00 0.  1.
          2   -1    0    0  501    0  0.00000000000E+00 -0.00000000000E+00 -0.34495245254E+03  0.34495245254E+03  0.00000000000E+00 0. -1.
         25    2    1    2    0    0  0.22194921059E+02  0.11963679671E+03 -0.10057002739E+03  0.20141392132E+03  0.12509060575E+03 0.  0.
          5    1    3    3  502    0 -0.32319262293E+02  0.55435025846E+02 -0.97792974318E+02  0.11704065546E+03  0.41800000000E+01 0. -1.
         -5    1    3    3    0  502  0.54514183352E+02  0.64201770860E+02 -0.27770530737E+01  0.84373265860E+02  0.41800000000E+01 0. -1.
        -11    1    1    2    0    0  0.68651416551E+01 -0.10554458523E+03 -0.77299822363E+02  0.13100401589E+03  0.00000000000E+00 0. -1.
         11    1    1    2    0    0 -0.29060062714E+02 -0.14092211478E+02 -0.86904944746E+02  0.92712173368E+02  0.00000000000E+00 0.  1.
</event>
<event>
 7    1  0.2641580E-009  0.1345654E+03  0.7561462E-02  0.1220834E+00
          2   -1    0    0  501    0  0.00000000000E+00  0.00000000000E+00  0.10011031479E+03  0.10011031479E+03  0.00000000000E+00 0. -1.
         -2   -1    0    0    0  501 -0.00000000000E+00 -0.00000000000E+00 -0.18776294918E+03  0.18776294918E+03  0.00000000000E+00 0.  1.
         25    2    1    2    0    0 -0.41253354606E+02  0.69927202751E+02 -0.32667731452E+02  0.15265126553E+03  0.12507427889E+03 0.  0.
          5    1    3    3  502    0  0.43282523433E+02  0.13940030179E+02  0.11671237482E+01  0.45678614843E+02  0.41800000000E+01 0.  1.
         -5    1    3    3    0  502 -0.84535878040E+02  0.55987172572E+02 -0.33834855200E+02  0.10697265069E+03  0.41800000000E+01 0.  1.
        -11    1    1    2    0    0  0.70380067691E+02 -0.44078096851E+02 -0.27204970421E+02  0.87386171479E+02  0.00000000000E+00 0. -1.
         11    1    1    2    0    0 -0.29126713085E+02 -0.25849105900E+02 -0.27779932518E+02  0.47835826968E+02  0.00000000000E+00 0.  1.
</event>
<event>
 7    1  0.2641580E-009  0.7320002E+02  0.7561462E-02  0.1349537E+00
         -1   -1    0    0    0  501 -0.00000000000E+00  0.00000000000E+00  0.29309580311E+02  0.29309580311E+02  0.00000000000E+00 0.  1.
          1   -1    0    0  501    0  0.00000000000E+00 -0.00000000000E+00 -0.57472781723E+03  0.57472781723E+03  0.00000000000E+00 0. -1.
         25    2    1    2    0    0  0.27277722384E+01  0.26635612198E+02 -0.45299253805E+03  0.47070889528E+03  0.12509087894E+03 0.  0.
          5    1    3    3  502    0 -0.28612049036E+02 -0.21596383187E+02 -0.40677126684E+02  0.54379721883E+02  0.41800000000E+01 0.  1.
         -5    1    3    3    0  502  0.31339821275E+02  0.48231995385E+02 -0.41231541136E+03  0.41632917340E+03  0.41800000000E+01 0.  1.
        -11    1    1    2    0    0 -0.57450910523E+01  0.12305400069E+02  0.14275608325E+02  0.19703348322E+02  0.00000000000E+00 0.  1.
         11    1    1    2    0    0  0.30173188139E+01 -0.38941012268E+02 -0.10670130720E+03  0.11362515394E+03  0.00000000000E+00 0. -1.
</event>
<event>
 7    1  0.2641580E-009  0.9225870E+02  0.7561462E-02  0.1297472E+00
         -4   -1    0    0    0  501 -0.00000000000E+00  0.00000000000E+00  0.14111373106E+03  0.14111373106E+03  0.00000000000E+00 0.  1.
          4   -1    0    0  501    0  0.00000000000E+00 -0.00000000000E+00 -0.10533210330E+03  0.10533210330E+03  0.00000000000E+00 0. -1.
         25    2    1    2    0    0 -0.19171464371E+02  0.38241410493E+02 -0.16520854000E+02  0.13323355001E+03  0.12509312415E+03 0.  0.
          5    1    3    3  502    0  0.25961743783E+02  0.55099291231E+02  0.28304277699E+02  0.67294491383E+02  0.41800000000E+01 0. -1.
         -5    1    3    3    0  502 -0.45133208154E+02 -0.16857880737E+02 -0.44825131698E+02  0.65939058630E+02  0.41800000000E+01 0. -1.
        -11    1    1    2    0    0 -0.99471513450E+01  0.12879035222E+02  0.51886896207E+02  0.54378905526E+02  0.00000000000E+00 0.  1.
         11    1    1    2    0    0  0.29118615716E+02 -0.51120445716E+02  0.41558555428E+00  0.58833378815E+02  0.00000000000E+00 0. -1.
</event>
<event>
 7    1  0.2641580E-009  0.9989203E+02  0.7561462E-02  0.1280523E+00
          1   -1    0    0  501    0  0.00000000000E+00  0.00000000000E+00  0.17423781957E+03  0.17423781957E+03  0.00000000000E+00 0. -1.
         -1   -1    0    0    0  501 -0.00000000000E+00 -0.00000000000E+00 -0.11710705109E+03  0.11710705109E+03  0.00000000000E+00 0.  1.
         25    2    1    2    0    0 -0.34364595495E+02  0.19904159754E+01  0.11922118163E+03  0.17619971283E+03  0.12509101276E+03 0.  0.
          5    1    3    3  502    0 -0.65271446727E+02  0.36689362707E+02  0.10170639040E+03  0.12636507960E+03  0.41800000000E+01 0. -1.
         -5    1    3    3    0  502  0.30906851232E+02 -0.34698946731E+02  0.17514791227E+02  0.49834633229E+02  0.41800000000E+01 0. -1.
        -11    1    1    2    0    0  0.41276711216E+02  0.26346217866E+02 -0.69530789344E+02  0.85043640277E+02  0.00000000000E+00 0.  1.
         11    1    1    2    0    0 -0.69121157211E+01 -0.28336633841E+02  0.74403762029E+01  0.30101517557E+02  0.00000000000E+00 0. -1.
</event>
<event>
 7    1  0.2641580E-009  0.9342440E+02  0.7561462E-02  0.1294765E+00
          1   -1    0    0  501    0  0.00000000000E+00  0.00000000000E+00  0.16917955216E+03  0.16917955216E+03  0.00000000000E+00 0. -1.
         -1   -1    0    0    0  501 -0.00000000000E+00 -0.00000000000E+00 -0.15160584811E+03  0.15160584811E+03  0.00000000000E+00 0.  1.
         25    2    1    2    0    0  0.44661089565E+02 -0.67940918081E+02 -0.76218859988E+02  0.16752442953E+03  0.12507812999E+03 0.  0.
          5    1    3    3  502    0  0.20140740182E+02 -0.75934206804E+02 -0.10333201726E+03  0.12987159570E+03  0.41800000000E+01 0. -1.
         -5    1    3    3    0  502  0.24520349384E+02  0.79932887236E+01  0.27113157273E+02  0.37652833835E+02  0.41800000000E+01 0. -1.
        -11    1    1    2    0    0 -0.27093884242E+02  0.31172173742E+02 -0.93622908824E+01  0.42348972475E+02  0.00000000000E+00 0.  1.
         11    1    1    2    0    0 -0.17567205324E+02  0.36768744338E+02  0.10315485492E+03  0.11091199826E+03  0.00000000000E+00 0. -1.
</event>
<event>
 7    1  0.2641580E-009  0.1573158E+03  0.7561462E-02  0.1191761E+00
         -2   -1    0    0    0  501 -0.00000000000E+00  0.00000000000E+00  0.28664950372E+02  0.28664950372E+02  0.00000000000E+00 0.  1.
          2   -1    0    0  501    0  0.00000000000E+00 -0.00000000000E+00 -0.12914365400E+04  0.12914365400E+04  0.00000000000E+00 0. -1.
         25    2    1    2    0    0  0.13495343642E+02 -0.12937701865E+03 -0.97036395385E+03  0.98700280707E+03  0.12509117067E+03 0.  0.
          5    1    3    3  502    0 -0.99642586236E+01 -0.13632562023E+03 -0.92703809299E+03  0.93707046664E+03  0.41800000000E+01 0.  1.
         -5    1    3    3    0  502  0.23459602265E+02  0.69486015798E+01 -0.43325860858E+02  0.49932340436E+02  0.41800000000E+01 0.  1.
        -11    1    1    2    0    0  0.33896380376E+02  0.62344242204E+02 -0.18329404831E+03  0.19655146218E+03  0.00000000000E+00 0. -1.
         11    1    1    2    0    0 -0.47391724018E+02  0.67032776447E+02 -0.10911358742E+03  0.13654722108E+03  0.00000000000E+00 0.  1.
</event>
<event>
 7    1  0.2641580E-009  0.1198389E+03  0.7561462E-02  0.1243363E+00
         -4   -1    0    0    0  501 -0.00000000000E+00  0.00000000000E+00  0.21350314475E+03  0.21350314475E+03  0.00000000000E+00 0. -1.
          4   -1    0    0  501    0  0.00000000000E+00 -0.00000000000E+00 -0.14642613413E+03  0.14642613413E+03  0.00000000000E+00 0.  1.
         25    2    1    2    0    0 -0.22069461235E+02 -0.79140119183E+02  0.14944293240E+03  0.21149573554E+03  0.12508811504E+03 0.  0.
          5    1    3    3  502    0 -0.28232610964E+02 -0.10843533455E+03  0.86310030205E+02  0.14149980853E+03  0.41800000000E+01 0. -1.
         -5    1    3    3    0  502  0.61631497292E+01  0.29295215366E+02  0.63132902197E+02  0.69995927008E+02  0.41800000000E+01 0. -1.
        -11    1    1    2    0    0  0.16751327511E+01  0.76773043693E+02 -0.96634782818E+02  0.12343090196E+03  0.00000000000E+00 0.  1.
         11    1    1    2    0    0  0.20394328484E+02  0.23670754896E+01  0.14268861033E+02  0.25002641378E+02  0.00000000000E+00 0. -1.
</event>
<event>
 7    1  0.2641580E-009  0.1698023E+03  0.7561462E-02  0.1178054E+00
          2   -1    0    0  501    0  0.00000000000E+00  0.00000000000E+00  0.14871928790E+04  0.14871928790E+04  0.00000000000E+00 0. -1.
         -2   -1    0    0    0  501 -0.00000000000E+00 -0.00000000000E+00 -0.31238778284E+02  0.31238778284E+02  0.00000000000E+00 0.  1.
         25    2    1    2    0    0 -0.14676344782E+03  0.48768075149E+02  0.11187814176E+04  0.11363267427E+04  0.12509504813E+03 0.  0.
          5    1    3    3  502    0 -0.14240643664E+03  0.37936321799E+02  0.61618247727E+03  0.63357483804E+03  0.41800000000E+01 0. -1.
         -5    1    3    3    0  502 -0.43570111857E+01  0.10831753350E+02  0.50259894033E+03  0.50275190467E+03  0.41800000000E+01 0. -1.
        -11    1    1    2    0    0  0.93324369031E+02  0.17177385878E+02  0.17695858825E+03  0.20079552384E+03  0.00000000000E+00 0.  1.
         11    1    1    2    0    0  0.53439078794E+02 -0.65945461027E+02  0.16021409487E+03  0.18130939074E+03  0.00000000000E+00 0. -1.
</event>
<event>
 7    1  0.2641580E-009  0.7186604E+02  0.7561462E-02  0.1353860E+00
          2   -1    0    0  501    0  0.00000000000E+00  0.00000000000E+00  0.97349328567E+03  0.97349328567E+03  0.00000000000E+00 0. -1.
         -2   -1    0    0    0  501 -0.00000000000E+00 -0.00000000000E+00 -0.18047082786E+02  0.18047082786E+02  0.00000000000E+00 0.  1.
         25    2    1    2    0    0  0.29454174220E+02  0.58967580333E+01  0.79716492656E+03  0.80747848225E+03  0.12508900436E+03 0.  0.
          5    1    3    3  502    0  0.13524417103E+02 -0.18625175504E+02  0.75830661524E+03  0.75866738571E+03  0.41800000000E+01 0. -1.
         -5    1    3    3    0  502  0.15929757117E+02  0.24521933538E+02  0.38858311321E+02  0.48811096535E+02  0.41800000000E+01 0. -1.
        -11    1    1    2    0    0 -0.49113789048E+02 -0.31628322443E+02  0.77642958935E+02  0.97164520929E+02  0.00000000000E+00 0.  1.
         11    1    1    2    0    0  0.19659614829E+02  0.25731564409E+02  0.80638317385E+02  0.86897365281E+02  0.00000000000E+00 0. -1.
</event>
<event>
 7    1  0.2641580E-009  0.2535076E+03  0.7561462E-02  0.1111108E+00
          2   -1    0    0  501    0  0.00000000000E+00  0.00000000000E+00  0.75790366778E+03  0.75790366778E+03  0.00000000000E+00 0. -1.
         -2   -1    0    0    0  501 -0.00000000000E+00 -0.00000000000E+00 -0.15747433865E+03  0.15747433865E+03  0.00000000000E+00 0.  1.
         25    2    1    2    0    0 -0.12466697636E+03 -0.21282297754E+03  0.18696772951E+02  0.27718953587E+03  0.12509594205E+03 0.  0.
          5    1    3    3  502    0 -0.73645795780E+02 -0.15238990565E+03  0.69588209386E+02  0.18304747435E+03  0.41800000000E+01 0.  1.
         -5    1    3    3    0  502 -0.51021180575E+02 -0.60433071883E+02 -0.50891436435E+02  0.94142061519E+02  0.41800000000E+01 0.  1.
        -11    1    1    2    0    0  0.14578869888E+02  0.99337480284E+02  0.28149251495E+03  0.29886203240E+03  0.00000000000E+00 0.  1.
         11    1    1    2    0    0  0.11008810647E+03  0.11348549725E+03  0.30024004123E+03  0.33932643815E+03  0.00000000000E+00 0. -1.
</event>
<event>
 7    1  0.2641580E-009  0.1557983E+03  0.7561462E-02  0.1193524E+00
          2   -1    0    0  501    0  0.00000000000E+00  0.00000000000E+00  0.67054932980E+03  0.67054932980E+03  0.00000000000E+00 0. -1.
         -2   -1    0    0    0  501 -0.00000000000E+00 -0.00000000000E+00 -0.55752040287E+02  0.55752040287E+02  0.00000000000E+00 0.  1.
         25    2    1    2    0    0  0.60019776297E+02 -0.11492997803E+03  0.49740560344E+03  0.52902909862E+03  0.12509268348E+03 0.  0.
          5    1    3    3  502    0 -0.25675196195E+02 -0.65049852544E+02  0.30011461206E+03  0.30818330874E+03  0.41800000000E+01 0. -1.
         -5    1    3    3    0  502  0.85694972492E+02 -0.49880125490E+02  0.19729099138E+03  0.22084578988E+03  0.41800000000E+01 0. -1.
        -11    1    1    2    0    0  0.95062533882E+01  0.35426555753E+02 -0.33784553510E+01  0.36835087438E+02  0.00000000000E+00 0. -1.
         11    1    1    2    0    0 -0.69526029685E+02  0.79503422282E+02  0.12077014143E+03  0.16043718403E+03  0.00000000000E+00 0.  1.
</event>
<event>
 7    1  0.2641580E-009  0.9988253E+02  0.7561462E-02  0.1280543E+00
          1   -1    0    0  501    0  0.00000000000E+00  0.00000000000E+00  0.18673712903E+03  0.18673712903E+03  0.00000000000E+00 0. -1.
         -1   -1    0    0    0  501 -0.00000000000E+00 -0.00000000000E+00 -0.82918255728E+02  0.82918255728E+02  0.00000000000E+00 0.  1.
         25    2    1    2    0    0  0.13907976001E+02  0.31955148138E+01 -0.50937370506E+01  0.12600098025E+03  0.12508660103E+03 0.  0.
          5    1    3    3  502    0  0.47997224168E+02 -0.37155535882E+02 -0.29553351237E+02  0.67639783736E+02  0.41800000000E+01 0. -1.
         -5    1    3    3    0  502 -0.34089248167E+02  0.40351050696E+02  0.24459614187E+02  0.58361196518E+02  0.41800000000E+01 0. -1.
        -11    1    1    2    0    0  0.35495733035E+02  0.50323886171E+01  0.75119482016E+02  0.83235861125E+02  0.00000000000E+00 0. -1.
         11    1    1    2    0    0 -0.49403709036E+02 -0.82279034309E+01  0.33793128341E+02  0.60418543383E+02  0.00000000000E+00 0.  1.
</event>
<event>
 7    1  0.2641580E-009  0.1015748E+03  0.7561462E-02  0.1277019E+00
          2   -1    0    0  501    0  0.00000000000E+00  0.00000000000E+00  0.15104092753E+03  0.15104092753E+03  0.00000000000E+00 0.  1.
         -2   -1    0    0    0  501 -0.00000000000E+00 -0.00000000000E+00 -0.11943209236E+03  0.11943209236E+03  0.00000000000E+00 0. -1.
         25    2    1    2    0    0  0.70029448963E+02 -0.34675250402E+02  0.49218686557E+01  0.14757241645E+03  0.12508755570E+03 0.  0.
          5    1    3    3  502    0 -0.23748735614E+02 -0.10146572204E+02  0.37061176714E+02  0.45364728481E+02  0.41800000000E+01 0. -1.
         -5    1    3    3    0  502  0.93778184577E+02 -0.24528678198E+02 -0.32139308058E+02  0.10220768796E+03  0.41800000000E+01 0. -1.
        -11    1    1    2    0    0 -0.61005630333E+02  0.22973498607E+02  0.58649001859E+02  0.87687935257E+02  0.00000000000E+00 0.  1.
         11    1    1    2    0    0 -0.90238186297E+01  0.11701751795E+02 -0.31962035342E+02  0.35212668188E+02  0.00000000000E+00 0. -1.
</event>
<event>
 7    1  0.2641580E-009  0.3065345E+03  0.7561462E-02  0.1082019E+00
          1   -1    0    0  501    0  0.00000000000E+00  0.00000000000E+00  0.35971330620E+03  0.35971330620E+03  0.00000000000E+00 0. -1.
         -1   -1    0    0    0  501 -0.00000000000E+00 -0.00000000000E+00 -0.27022641201E+03  0.27022641201E+03  0.00000000000E+00 0.  1.
         25    2    1    2    0    0 -0.11211052252E+03 -0.26941639255E+03  0.46147414033E+02  0.32083663988E+03  0.12511036661E+03 0.  0.
          5    1    3    3  502    0 -0.11942600628E+03 -0.27857343161E+03  0.51182346047E+02  0.30741313037E+03  0.41800000000E+01 0.  1.
         -5    1    3    3    0  502  0.73154837674E+01  0.91570390621E+01 -0.50349320140E+01  0.13423509508E+02  0.41800000000E+01 0.  1.
        -11    1    1    2    0    0  0.10974764553E+03  0.20070463787E+03  0.17640289118E+01  0.22875753356E+03  0.00000000000E+00 0.  1.
         11    1    1    2    0    0  0.23628769859E+01  0.68711754683E+02  0.41575451251E+02  0.80345544780E+02  0.00000000000E+00 0. -1.
</event>
<event>
 7    1  0.2641580E-009  0.9888476E+02  0.7561462E-02  0.1282659E+00
         -2   -1    0    0    0  501 -0.00000000000E+00  0.00000000000E+00  0.10634435507E+03  0.10634435507E+03  0.00000000000E+00 0.  1.
          2   -1    0    0  501    0  0.00000000000E+00 -0.00000000000E+00 -0.20535098638E+03  0.20535098638E+03  0.00000000000E+00 0. -1.
         25    2    1    2    0    0  0.54314163970E+02 -0.59070694851E+02 -0.11640635970E+03  0.18877744992E+03  0.12508840722E+03 0.  0.
          5    1    3    3  502    0  0.50493213766E+02 -0.78028717528E+02 -0.26522590719E+02  0.96741747006E+02  0.41800000000E+01 0.  1.
         -5    1    3    3    0  502  0.38209502042E+01  0.18958022677E+02 -0.89883768984E+02  0.92035702915E+02  0.41800000000E+01 0.  1.
        -11    1    1    2    0    0 -0.36825649374E+02  0.19464700878E+02 -0.35380857561E+02  0.54651698178E+02  0.00000000000E+00 0. -1.
         11    1    1    2    0    0 -0.17488514596E+02  0.39605993973E+02  0.52780585951E+02  0.68266193352E+02  0.00000000000E+00 0.  1.
</event>
<event>
 7    1  0.2641580E-009  0.1056961E+03  0.7561462E-02  0.1268754E+00
          2   -1    0    0  501    0  0.00000000000E+00  0.00000000000E+00  0.16224872468E+02  0.16224872468E+02  0.00000000000E+00 0. -1.
         -2   -1    0    0    0  501 -0.00000000000E+00 -0.00000000000E+00 -0.14889202840E+04  0.14889202840E+04  0.00000000000E+00 0.  1.
         25    2    1    2    0    0  0.21054454905E+02 -0.48732285573E+02 -0.12749676386E+04  0.12821928338E+04  0.12513136310E+03 0.  0.
          5    1    3    3  502    0  0.21855034578E+02  0.38536315109E+02 -0.58990133241E+03  0.59157733602E+03  0.41800000000E+01 0. -1.
         -5    1    3    3    0  502 -0.80057967244E+00 -0.87268600682E+02 -0.68506630616E+03  0.69061549782E+03  0.41800000000E+01 0. -1.
        -11    1    1    2    0    0 -0.23894260113E+02 -0.60633798990E+01 -0.14422173332E+03  0.14631339174E+03  0.00000000000E+00 0.  1.
         11    1    1    2    0    0  0.28398052078E+01  0.54795665472E+02 -0.53506039645E+02  0.76638930882E+02  0.00000000000E+00 0. -1.
</event>
<event>
 7    1  0.2641580E-009  0.7854831E+02  0.7561462E-02  0.1333222E+00
         -2   -1    0    0    0  501 -0.00000000000E+00  0.00000000000E+00  0.15998207350E+03  0.15998207350E+03  0.00000000000E+00 0.  1.
          2   -1    0    0  501    0  0.00000000000E+00 -0.00000000000E+00 -0.10164135021E+03  0.10164135021E+03  0.00000000000E+00 0. -1.
         25    2    1    2    0    0  0.62410758827E+02  0.11670525947E+02  0.52324829807E+02  0.14972300889E+03  0.12509111712E+03 0.  0.
          5    1    3    3  502    0  0.13475768161E+02  0.15966707797E+02 -0.39851736321E+02  0.45190323890E+02  0.41800000000E+01 0.  1.
         -5    1    3    3    0  502  0.48934990666E+02 -0.42961818501E+01  0.92176566128E+02  0.10453268500E+03  0.41800000000E+01 0.  1.
        -11    1    1    2    0    0 -0.39384792807E+02 -0.35736478910E+02  0.38282335031E+02  0.65527055517E+02  0.00000000000E+00 0. -1.
         11    1    1    2    0    0 -0.23025966020E+02  0.24065952963E+02 -0.32266441542E+02  0.46373359302E+02  0.00000000000E+00 0.  1.
</event>
<event>
 7    1  0.2641580E-009  0.1139825E+03  0.7561462E-02  0.1253368E+00
          2   -1    0    0  501    0  0.00000000000E+00  0.00000000000E+00  0.52917695925E+02  0.52917695925E+02  0.00000000000E+00 0.  1.
         -2   -1    0    0    0  501 -0.00000000000E+00 -0.00000000000E+00 -0.34109567095E+03  0.34109567095E+03  0.00000000000E+00 0. -1.
         25    2    1    2    0    0  0.86891449039E+00  0.76757746933E+02 -0.16548761618E+03  0.22119109446E+03  0.12508733923E+03 0.  0.
          5    1    3    3  502    0 -0.58737627950E+02  0.48047247148E+02 -0.11507716744E+03  0.13790893286E+03  0.41800000000E+01 0.  1.
         -5    1    3    3    0  502  0.59606542440E+02  0.28710499785E+02 -0.50410448731E+02  0.83282161601E+02  0.41800000000E+01 0.  1.
        -11    1    1    2    0    0 -0.17800994158E+02 -0.21688905115E+02 -0.11040393987E+03  0.11391362490E+03  0.00000000000E+00 0. -1.
         11    1    1    2    0    0  0.16932079667E+02 -0.55068841818E+02 -0.12286418979E+02  0.58908647517E+02  0.00000000000E+00 0.  1.
</event>
<event>
 7    1  0.2641580E-009  0.1101193E+03  0.7561462E-02  0.1260349E+00
         -1   -1    0    0    0  501 -0.00000000000E+00  0.00000000000E+00  0.27142024268E+02  0.27142024268E+02  0.00000000000E+00 0.  1.
          1   -1    0    0  501    0  0.00000000000E+00 -0.00000000000E+00 -0.53317482862E+03  0.53317482862E+03  0.00000000000E+00 0. -1.
         25    2    1    2    0    0  0.11749923147E+02  0.47587408829E+02 -0.32108138022E+03  0.34805506048E+03  0.12508577149E+03 0.  0.
          5    1    3    3  502    0  0.19118668817E+01 -0.34977818286E+02 -0.33444517674E+02  0.48611841864E+02  0.41800000000E+01 0.  1.
         -5    1    3    3    0  502  0.98380562656E+01  0.82565227115E+02 -0.28763686255E+03  0.29944321862E+03  0.41800000000E+01 0.  1.
        -11    1    1    2    0    0 -0.18331787429E+02 -0.73097071099E+02 -0.15515648166E+03  0.17248991285E+03  0.00000000000E+00 0.  1.
         11    1    1    2    0    0  0.65818642813E+01  0.25509662270E+02 -0.29794942463E+02  0.39771879550E+02  0.00000000000E+00 0. -1.
</event>
<event>
 7    1  0.2641580E-009  0.1153246E+03  0.7561462E-02  0.1251016E+00
         -1   -1    0    0    0  501 -0.00000000000E+00  0.00000000000E+00  0.91827410086E+03  0.91827410086E+03  0.00000000000E+00 0.  1.
          1   -1    0    0  501    0  0.00000000000E+00 -0.00000000000E+00 -0.22262258246E+02  0.22262258246E+02  0.00000000000E+00 0. -1.
         25    2    1    2    0    0 -0.83863584309E+02 -0.29506120390E+02  0.56800157648E+03  0.58836870430E+03  0.12509288311E+03 0.  0.
          5    1    3    3  502    0 -0.18480765259E+00  0.17175980248E+02  0.34703274572E+03  0.34748272972E+03  0.41800000000E+01 0. -1.
         -5    1    3    3    0  502 -0.83678776656E+02 -0.46682100638E+02  0.22096883076E+03  0.24088597458E+03  0.41800000000E+01 0. -1.
        -11    1    1    2    0    0  0.38395193983E+02 -0.25199515094E+02  0.64202916006E+02  0.78938082733E+02  0.00000000000E+00 0. -1.
         11    1    1    2    0    0  0.45468390326E+02  0.54705635483E+02  0.26380735013E+03  0.27322957207E+03  0.00000000000E+00 0.  1.
</event>
<event>
 7    1  0.2641580E-009  0.1285773E+03  0.7561462E-02  0.1229582E+00
         -2   -1    0    0    0  501 -0.00000000000E+00  0.00000000000E+00  0.70233844404E+03  0.70233844404E+03  0.00000000000E+00 0.  1.
          2   -1    0    0  501    0  0.00000000000E+00 -0.00000000000E+00 -0.33847919307E+02  0.33847919307E+02  0.00000000000E+00 0. -1.
         25    2    1    2    0    0  0.92119962101E+02  0.23879116616E+02  0.48759953100E+03  0.51230442256E+03  0.12508484767E+03 0.  0.
          5    1    3    3  502    0 -0.98489077344E+01 -0.34549223968E+02  0.74863893754E+02  0.83142797934E+02  0.41800000000E+01 0.  1.
         -5    1    3    3    0  502  0.10196886984E+03  0.58428340584E+02  0.41273563725E+03  0.42916162463E+03  0.41800000000E+01 0.  1.
        -11    1    1    2    0    0 -0.22579054898E+02  0.11530410161E+02 -0.16027271359E+01  0.25403401600E+02  0.00000000000E+00 0. -1.
         11    1    1    2    0    0 -0.69540907202E+02 -0.35409526777E+02  0.18249372087E+03  0.19847853919E+03  0.00000000000E+00 0.  1.
</event>
<event>
 7    1  0.2641580E-009  0.1376570E+03  0.7561462E-02  0.1216517E+00
          2   -1    0    0  501    0  0.00000000000E+00  0.00000000000E+00  0.25036512625E+04  0.25036512625E+04  0.00000000000E+00 0. -1.
         -2   -1    0    0    0  501 -0.00000000000E+00 -0.00000000000E+00 -0.46171714354E+02  0.46171714354E+02  0.00000000000E+00 0.  1.
         25    2    1    2    0    0 -0.70021213590E+02 -0.10326327529E+03  0.23644549959E+04  0.23710470435E+04  0.12510148246E+03 0.  0.
          5    1    3    3  502    0 -0.38075905493E+02 -0.53109002600E+02  0.20468030024E+04  0.20478501762E+04  0.41800000000E+01 0. -1.
         -5    1    3    3    0  502 -0.31945308097E+02 -0.50154272691E+02  0.31765199341E+03  0.32319686740E+03  0.41800000000E+01 0. -1.
        -11    1    1    2    0    0 -0.19364418534E+02  0.23227244062E+02  0.32500033167E+02  0.44392991877E+02  0.00000000000E+00 0. -1.
         11    1    1    2    0    0  0.89385632124E+02  0.80036031230E+02  0.60524519076E+02  0.13438294138E+03  0.00000000000E+00 0.  1.
</event>
<event>
 7    1  0.2641580E-009  0.5895754E+02  0.7561462E-02  0.1402259E+00
         -1   -1    0    0    0  501 -0.00000000000E+00  0.00000000000E+00  0.27909862051E+03  0.27909862051E+03  0.00000000000E+00 0.  1.
          1   -1    0    0  501    0  0.00000000000E+00 -0.00000000000E+00 -0.44006128438E+02  0.44006128438E+02  0.00000000000E+00 0. -1.
         25    2    1    2    0    0 -0.10025529860E+02  0.17058401807E+02  0.16615416475E+03  0.20891051387E+03  0.12507955876E+03 0.  0.
          5    1    3    3  502    0  0.14327716830E+02 -0.38453327397E+01  0.17474580400E+03  0.17542416729E+03  0.41800000000E+01 0.  1.
         -5    1    3    3    0  502 -0.24353246690E+02  0.20903734547E+02 -0.85916392470E+01  0.33486346581E+02  0.41800000000E+01 0.  1.
        -11    1    1    2    0    0  0.18884617184E+02  0.22628647175E+02  0.67330277539E+02  0.73498644291E+02  0.00000000000E+00 0.  1.
         11    1    1    2    0    0 -0.88590873238E+01 -0.39687048982E+02  0.16080497767E+01  0.40695590783E+02  0.00000000000E+00 0. -1.
</event>
<event>
 7    1  0.2641580E-009  0.8142550E+02  0.7561462E-02  0.1325054E+00
          4   -1    0    0  501    0  0.00000000000E+00  0.00000000000E+00  0.17411213115E+03  0.17411213115E+03  0.00000000000E+00 0. -1.
         -4   -1    0    0    0  501 -0.00000000000E+00 -0.00000000000E+00 -0.76414085624E+02  0.76414085624E+02  0.00000000000E+00 0.  1.
         25    2    1    2    0    0  0.38976512522E+02 -0.96947622009E+01  0.50702727519E+02  0.14082534553E+03  0.12509138429E+03 0.  0.
          5    1    3    3  502    0  0.21869403495E+02 -0.57663878743E+02 -0.87509756788E+01  0.62429525837E+02  0.41800000000E+01 0. -1.
         -5    1    3    3    0  502  0.17107109027E+02  0.47969116542E+02  0.59453703198E+02  0.78395819691E+02  0.41800000000E+01 0. -1.
        -11    1    1    2    0    0 -0.24066403819E+02  0.20427567720E+02  0.72033003815E+02  0.78646239289E+02  0.00000000000E+00 0. -1.
         11    1    1    2    0    0 -0.14910108703E+02 -0.10732805519E+02 -0.25037685803E+02  0.31054631961E+02  0.00000000000E+00 0.  1.
</event>
<event>
 7    1  0.2893763E-009  0.2465130E+03  0.7561462E-02  0.1115529E+00
         -1   -1    0    0    0  501 -0.00000000000E+00  0.00000000000E+00  0.28158026224E+03  0.28158026224E+03  0.00000000000E+00 0.  1.
          1   -1    0    0  501    0  0.00000000000E+00 -0.00000000000E+00 -0.23489115411E+03  0.23489115411E+03  0.00000000000E+00 0. -1.
         25    2    1    2    0    0  0.18482480476E+03  0.12947464526E+03 -0.33141138281E+02  0.26013384061E+03  0.12508951901E+03 0.  0.
          5    1    3    3  502    0  0.12705387741E+03  0.19624154491E+02 -0.42827743041E+02  0.13557095256E+03  0.41800000000E+01 0.  1.
         -5    1    3    3    0  502  0.57770927353E+02  0.10985049077E+03  0.96866047602E+01  0.12456288806E+03  0.41800000000E+01 0.  1.
        -11    1    1    2    0    0 -0.16043549368E+03 -0.68326203666E+02  0.38412291859E+02  0.17855957523E+03  0.00000000000E+00 0.  1.
         11    1    1    2    0    0 -0.24389311078E+02 -0.61148441591E+02  0.41417954544E+02  0.77778000505E+02  0.00000000000E+00 0. -1.
</event>
<event>
 7    1  0.2641580E-009  0.1952705E+03  0.7561462E-02  0.1153792E+00
         -2   -1    0    0    0  501 -0.00000000000E+00  0.00000000000E+00  0.41372683198E+03  0.41372683198E+03  0.00000000000E+00 0.  1.
          2   -1    0    0  501    0  0.00000000000E+00 -0.00000000000E+00 -0.13022888954E+03  0.13022888954E+03  0.00000000000E+00 0. -1.
         25    2    1    2    0    0 -0.15685544946E+03  0.43524596142E+02  0.29107817401E+03  0.35619236851E+03  0.12509387478E+03 0.  0.
          5    1    3    3  502    0 -0.32947159651E+02 -0.41463074656E+02  0.56194546766E+02  0.77330468609E+02  0.41800000000E+01 0.  1.
         -5    1    3    3    0  502 -0.12390828981E+03  0.84987670798E+02  0.23488362724E+03  0.27886189990E+03  0.41800000000E+01 0.  1.
        -11    1    1    2    0    0  0.70565325887E+02  0.27107799516E+02 -0.98249610779E+01  0.76228786376E+02  0.00000000000E+00 0.  1.
         11    1    1    2    0    0  0.86290123574E+02 -0.70632395658E+02  0.22447295146E+01  0.11153456663E+03  0.00000000000E+00 0. -1.
</event>
<event>
 7    1  0.2641580E-009  0.2288087E+03  0.7561462E-02  0.1127481E+00
         -1   -1    0    0    0  501 -0.00000000000E+00  0.00000000000E+00  0.63633396878E+02  0.63633396878E+02  0.00000000000E+00 0.  1.
          1   -1    0    0  501    0  0.00000000000E+00 -0.00000000000E+00 -0.99463520245E+03  0.99463520245E+03  0.00000000000E+00 0. -1.
         25    2    1    2    0    0 -0.72252749986E+02 -0.20852295883E+03 -0.58820803872E+03  0.64057621476E+03  0.12508759272E+03 0.  0.
          5    1    3    3  502    0 -0.71878901269E+02 -0.14340597167E+03 -0.25685521680E+03  0.30285957795E+03  0.41800000000E+01 0.  1.
         -5    1    3    3    0  502 -0.37384871679E+00 -0.65116987164E+02 -0.33135282192E+03  0.33771663681E+03  0.41800000000E+01 0.  1.
        -11    1    1    2    0    0  0.33967527136E+02  0.18243611666E+03 -0.30865268394E+03  0.36014331712E+03  0.00000000000E+00 0.  1.
         11    1    1    2    0    0  0.38285222850E+02  0.26086842167E+02 -0.34141082916E+02  0.57549067461E+02  0.00000000000E+00 0. -1.
</event>
<event>
 7    1  0.2641580E-009  0.9150089E+02  0.7561462E-02  0.1299257E+00
         -1   -1    0    0    0  501 -0.00000000000E+00  0.00000000000E+00  0.68803315862E+02  0.68803315862E+02  0.00000000000E+00 0.  1.
          1   -1    0    0  501    0  0.00000000000E+00 -0.00000000000E+00 -0.24607327036E+03  0.24607327036E+03  0.00000000000E+00 0. -1.
         25    2    1    2    0    0  0.29306569740E+02  0.20514698742E+02 -0.32372424673E+02  0.13407465567E+03  0.12509321132E+03 0.  0.
          5    1    3    3  502    0  0.40996446566E+02 -0.24549508582E+02  0.29664627672E+02  0.56399020715E+02  0.41800000000E+01 0. -1.
         -5    1    3    3    0  502 -0.11689876826E+02  0.45064207324E+02 -0.62037052345E+02  0.77675634955E+02  0.41800000000E+01 0. -1.
        -11    1    1    2    0    0 -0.50926554364E+02  0.89895119855E+01 -0.13241172233E+03  0.14215199427E+03  0.00000000000E+00 0. -1.
         11    1    1    2    0    0  0.21619984624E+02 -0.29504210728E+02 -0.12485807500E+02  0.38649936284E+02  0.00000000000E+00 0.  1.
</event>
<event>
 7    1  0.2641580E-009  0.1444935E+03  0.7561462E-02  0.1207407E+00
         -1   -1    0    0    0  501 -0.00000000000E+00  0.00000000000E+00  0.26174398250E+03  0.26174398250E+03  0.00000000000E+00 0.  1.
          1   -1    0    0  501    0  0.00000000000E+00 -0.00000000000E+00 -0.10106181115E+03  0.10106181115E+03  0.00000000000E+00 0. -1.
         25    2    1    2    0    0 -0.40092745286E+02  0.98768306808E+02  0.29493424166E+02  0.16697342320E+03  0.12509058850E+03 0.  0.
          5    1    3    3  502    0 -0.58618165996E+02 -0.47937845383E+01  0.13341082913E+02  0.60452681068E+02  0.41800000000E+01 0. -1.
         -5    1    3    3    0  502  0.18525420710E+02  0.10356209135E+03  0.16152341253E+02  0.10652074213E+03  0.41800000000E+01 0. -1.
        -11    1    1    2    0    0 -0.17135941116E+02 -0.35532810861E+02  0.95597389439E+02  0.10341702951E+03  0.00000000000E+00 0.  1.
         11    1    1    2    0    0  0.57228686402E+02 -0.63235495947E+02  0.35591357749E+02  0.92415340942E+02  0.00000000000E+00 0. -1.
</event>
<event>
 7    1  0.2641580E-009  0.1174965E+03  0.7561462E-02  0.1247285E+00
         -1   -1    0    0    0  501 -0.00000000000E+00  0.00000000000E+00  0.33687868448E+03  0.33687868448E+03  0.00000000000E+00 0.  1.
          1   -1    0    0  501    0  0.00000000000E+00 -0.00000000000E+00 -0.73459224411E+02  0.73459224411E+02  0.00000000000E+00 0. -1.
         25    2    1    2    0    0 -0.59823207015E+02 -0.94161301058E+02  0.13051919359E+03  0.21243128985E+03  0.12508647528E+03 0.  0.
          5    1    3    3  502    0 -0.44339254237E+02 -0.25299576365E+02 -0.12646133103E+02  0.52758270565E+02  0.41800000000E+01 0.  1.
         -5    1    3    3    0  502 -0.15483952778E+02 -0.68861724693E+02  0.14316532669E+03  0.15967301929E+03  0.41800000000E+01 0.  1.
        -11    1    1    2    0    0  0.33870897151E+01  0.17775261322E+02  0.93249499336E+02  0.94988954190E+02  0.00000000000E+00 0.  1.
         11    1    1    2    0    0  0.56436117300E+02  0.76386039735E+02  0.39650767140E+02  0.10291766485E+03  0.00000000000E+00 0. -1.
</event>
<event>
 7    1  0.2641580E-009  0.1039155E+03  0.7561462E-02  0.1272271E+00
          2   -1    0    0  501    0  0.00000000000E+00  0.00000000000E+00  0.10043096783E+03  0.10043096783E+03  0.00000000000E+00 0. -1.
         -2   -1    0    0    0  501 -0.00000000000E+00 -0.00000000000E+00 -0.15407459088E+03  0.15407459088E+03  0.00000000000E+00 0.  1.
         25    2    1    2    0    0  0.24792340000E+02 -0.29736880613E+02  0.18011705689E+02  0.13217682288E+03  0.12508936315E+03 0.  0.
          5    1    3    3  502    0  0.69316645925E+02 -0.34554844666E+02  0.33660116738E+02  0.84553595730E+02  0.41800000000E+01 0. -1.
         -5    1    3    3    0  502 -0.44524305924E+02  0.48179640529E+01 -0.15648411049E+02  0.47623227148E+02  0.41800000000E+01 0. -1.
        -11    1    1    2    0    0  0.60771655966E+01  0.48687252692E+02 -0.88938420526E+01  0.49864626168E+02  0.00000000000E+00 0. -1.
         11    1    1    2    0    0 -0.30869505597E+02 -0.18950372079E+02 -0.62761486689E+02  0.72464109662E+02  0.00000000000E+00 0.  1.
</event>
<event>
 7    1  0.2641580E-009  0.1476434E+03  0.7561462E-02  0.1203399E+00
          4   -1    0    0  501    0  0.00000000000E+00  0.00000000000E+00  0.41606270000E+02  0.41606270000E+02  0.00000000000E+00 0.  1.
         -4   -1    0    0    0  501 -0.00000000000E+00 -0.00000000000E+00 -0.70999671800E+03  0.70999671800E+03  0.00000000000E+00 0. -1.
         25    2    1    2    0    0  0.11944681184E+03 -0.46671182065E+02 -0.35588500014E+03  0.39843015468E+03  0.12508682880E+03 0.  0.
          5    1    3    3  502    0  0.13462765392E+03 -0.57616225867E+02 -0.34821514458E+03  0.37777704270E+03  0.41800000000E+01 0. -1.
         -5    1    3    3    0  502 -0.15180842075E+02  0.10945043802E+02 -0.76698555630E+01  0.20653111976E+02  0.41800000000E+01 0. -1.
        -11    1    1    2    0    0 -0.62533062381E+02  0.14338584613E+02 -0.26405125030E+03  0.27173340186E+03  0.00000000000E+00 0. -1.
         11    1    1    2    0    0 -0.56913749463E+02  0.32332597452E+02 -0.48454197567E+02  0.81439431468E+02  0.00000000000E+00 0.  1.
</event>
<event>
 7    1  0.2641580E-009  0.1101495E+03  0.7561462E-02  0.1260293E+00
         -2   -1    0    0    0  501 -0.00000000000E+00  0.00000000000E+00  0.31362065299E+02  0.31362065299E+02  0.00000000000E+00 0.  1.
          2   -1    0    0  501    0  0.00000000000E+00 -0.00000000000E+00 -0.51943186439E+03  0.51943186439E+03  0.00000000000E+00 0. -1.
         25    2    1    2    0    0 -0.37828608076E+02 -0.55754178118E+02 -0.24769495278E+03  0.28555180281E+03  0.12509000956E+03 0.  0.
          5    1    3    3  502    0 -0.14383658539E+02 -0.90235510810E+02 -0.11828802299E+03  0.14952881270E+03  0.41800000000E+01 0.  1.
         -5    1    3    3    0  502 -0.23444949537E+02  0.34481332692E+02 -0.12940692979E+03  0.13602299011E+03  0.41800000000E+01 0.  1.
        -11    1    1    2    0    0 -0.14031384926E+02  0.67422934513E+01 -0.11585410487E+01  0.15610269097E+02  0.00000000000E+00 0.  1.
         11    1    1    2    0    0  0.51859993002E+02  0.49011884667E+02 -0.23921630526E+03  0.24963185777E+03  0.00000000000E+00 0. -1.
</event>
<event>
 7    1  0.2641580E-009  0.1555437E+03  0.7561462E-02  0.1193822E+00
         -3   -1    0    0    0  501 -0.00000000000E+00  0.00000000000E+00  0.29626129569E+03  0.29626129569E+03  0.00000000000E+00 0.  1.
          3   -1    0    0  501    0  0.00000000000E+00 -0.00000000000E+00 -0.11627216472E+03  0.11627216472E+03  0.00000000000E+00 0. -1.
         25    2    1    2    0    0 -0.26975302189E+02 -0.14008220995E+03  0.41234716421E+02  0.19416269281E+03  0.12509259358E+03 0.  0.
          5    1    3    3  502    0  0.21174916691E+02 -0.44602223793E+02 -0.36797178954E+02  0.61719042792E+02  0.41800000000E+01 0. -1.
         -5    1    3    3    0  502 -0.48150218880E+02 -0.95479986152E+02  0.78031895375E+02  0.13244365002E+03  0.41800000000E+01 0. -1.
        -11    1    1    2    0    0  0.27740946676E+02  0.19433725582E+02  0.74132100922E+02  0.81503363118E+02  0.00000000000E+00 0.  1.
         11    1    1    2    0    0 -0.76564448740E+00  0.12064848436E+03  0.64622313628E+02  0.13686740448E+03  0.00000000000E+00 0. -1.
</event>
<event>
 7    1  0.3637371E-009  0.1403330E+03  0.7561462E-02  0.1212882E+00
         -2   -1    0    0    0  501 -0.00000000000E+00  0.00000000000E+00  0.12067127436E+03  0.12067127436E+03  0.00000000000E+00 0. -1.
          2   -1    0    0  501    0  0.00000000000E+00 -0.00000000000E+00 -0.29531290339E+03  0.29531290339E+03  0.00000000000E+00 0.  1.
         25    2    1    2    0    0 -0.10406461230E+03  0.26651662404E+02 -0.21359696741E+03  0.26983384960E+03  0.12508751839E+03 0.  0.
          5    1    3    3  502    0  0.18888483345E+02 -0.24420903833E+02 -0.32462198893E+02  0.44993578476E+02  0.41800000000E+01 0. -1.
         -5    1    3    3    0  502 -0.12295309565E+03  0.51072566237E+02 -0.18113476852E+03  0.22484027112E+03  0.41800000000E+01 0. -1.
        -11    1    1    2    0    0  0.30665731345E+02  0.12503975181E+02 -0.24771767598E+02  0.41356703739E+02  0.00000000000E+00 0.  1.
         11    1    1    2    0    0  0.73398880959E+02 -0.39155637585E+02  0.63727105985E+02  0.10479362441E+03  0.00000000000E+00 0. -1.
</event>
<event>
 7    1  0.2641580E-009  0.1245195E+03  0.7561462E-02  0.1235822E+00
          2   -1    0    0  501    0  0.00000000000E+00  0.00000000000E+00  0.17312770817E+03  0.17312770817E+03  0.00000000000E+00 0. -1.
         -2   -1    0    0    0  501 -0.00000000000E+00 -0.00000000000E+00 -0.11680800335E+03  0.11680800335E+03  0.00000000000E+00 0.  1.
         25    2    1    2    0    0  0.15042231573E+02  0.72175458019E+02  0.82581663934E+02  0.16703621254E+03  0.12508317078E+03 0.  0.
          5    1    3    3  502    0 -0.45259190843E+02  0.17616828289E+02  0.69003227535E+02  0.84484701603E+02  0.41800000000E+01 0.  1.
         -5    1    3    3    0  502  0.60301422416E+02  0.54558629730E+02  0.13578436399E+02  0.82551510940E+02  0.41800000000E+01 0.  1.
        -11    1    1    2    0    0 -0.19846953319E+02  0.19052059176E+02 -0.13543474472E+02  0.30664445465E+02  0.00000000000E+00 0.  1.
         11    1    1    2    0    0  0.48047217462E+01 -0.91227517194E+02 -0.12718484649E+02  0.92235053511E+02  0.00000000000E+00 0. -1.
</event>
<event>
 7    1  0.2641580E-009  0.1236650E+03  0.7561462E-02  0.1237171E+00
         -1   -1    0    0    0  501 -0.00000000000E+00  0.00000000000E+00  0.27463989532E+02  0.27463989532E+02  0.00000000000E+00 0.  1.
          1   -1    0    0  501    0  0.00000000000E+00 -0.00000000000E+00 -0.65822945709E+03  0.65822945709E+03  0.00000000000E+00 0. -1.
         25    2    1    2    0    0  0.68248716754E+02 -0.34334881642E+02 -0.39749329354E+03  0.42365660463E+03  0.12508888361E+03 0.  0.
          5    1    3    3  502    0  0.90126820760E+02 -0.49373657476E+02 -0.37424748267E+03  0.38812272873E+03  0.41800000000E+01 0. -1.
         -5    1    3    3    0  502 -0.21878104006E+02  0.15038775834E+02 -0.23245810869E+02  0.35533875900E+02  0.41800000000E+01 0. -1.
        -11    1    1    2    0    0 -0.20949790238E+02 -0.30713410403E+02 -0.54118406396E+02  0.65658275947E+02  0.00000000000E+00 0. -1.
         11    1    1    2    0    0 -0.47298926516E+02  0.65048292045E+02 -0.17915376763E+03  0.19637856604E+03  0.00000000000E+00 0.  1.
</event>
<event>
 7    1  0.2641580E-009  0.9889720E+02  0.7561462E-02  0.1282632E+00
         -2   -1    0    0    0  501 -0.00000000000E+00  0.00000000000E+00  0.12144541995E+03  0.12144541995E+03  0.00000000000E+00 0. -1.
          2   -1    0    0  501    0  0.00000000000E+00 -0.00000000000E+00 -0.18824493601E+03  0.18824493601E+03  0.00000000000E+00 0.  1.
         25    2    1    2    0    0 -0.17500762852E+01 -0.90470252634E+01  0.70472929393E+02  0.14387297650E+03  0.12509231854E+03 0.  0.
          5    1    3    3  502    0 -0.36065414945E+02 -0.44484587468E+02 -0.40038742888E+00  0.57421471485E+02  0.41800000000E+01 0.  1.
         -5    1    3    3    0  502  0.34315338660E+02  0.35437562204E+02  0.70873316822E+02  0.86451505017E+02  0.41800000000E+01 0.  1.
        -11    1    1    2    0    0 -0.44332900790E+02  0.46548688715E+01 -0.49696230579E+02  0.66759188360E+02  0.00000000000E+00 0. -1.
         11    1    1    2    0    0  0.46082977075E+02  0.43921563919E+01 -0.87576214871E+02  0.99058191105E+02  0.00000000000E+00 0.  1.
</event>
<event>
 7    1  0.2641580E-009  0.1305287E+03  0.7561462E-02  0.1226673E+00
         -3   -1    0    0    0  501 -0.00000000000E+00  0.00000000000E+00  0.31156946099E+03  0.31156946099E+03  0.00000000000E+00 0.  1.
          3   -1    0    0  501    0  0.00000000000E+00 -0.00000000000E+00 -0.60599560850E+02  0.60599560850E+02  0.00000000000E+00 0. -1.
         25    2    1    2    0    0 -0.53482540595E+02  0.54848410490E+02  0.18852284574E+03  0.23886685767E+03  0.12509109498E+03 0.  0.
          5    1    3    3  502    0 -0.57317163878E+01 -0.38326127594E+02  0.74034817604E+02  0.83668221247E+02  0.41800000000E+01 0. -1.
         -5    1    3    3    0  502 -0.47750824207E+02  0.93174538084E+02  0.11448802814E+03  0.15519863642E+03  0.41800000000E+01 0. -1.
        -11    1    1    2    0    0  0.52042714944E+02 -0.78182833696E+02  0.54620719671E+02  0.10864816004E+03  0.00000000000E+00 0.  1.
         11    1    1    2    0    0  0.14398256501E+01  0.23334423206E+02  0.78263347252E+01  0.24654004127E+02  0.00000000000E+00 0. -1.
</event>
<event>
 7    1  0.2641580E-009  0.1153792E+03  0.7561462E-02  0.1250921E+00
          1   -1    0    0  501    0  0.00000000000E+00  0.00000000000E+00  0.29016475998E+03  0.29016475998E+03  0.00000000000E+00 0. -1.
         -1   -1    0    0    0  501 -0.00000000000E+00 -0.00000000000E+00 -0.72179854090E+02  0.72179854090E+02  0.00000000000E+00 0.  1.
         25    2    1    2    0    0  0.60181452025E+02  0.67770819501E+02  0.80573250565E+02  0.17422902862E+03  0.12509602138E+03 0.  0.
          5    1    3    3  502    0 -0.16906240007E+02 -0.14833511859E+02  0.53183421988E+02  0.57894756236E+02  0.41800000000E+01 0.  1.
         -5    1    3    3    0  502  0.77087692032E+02  0.82604331360E+02  0.27389828577E+02  0.11633427239E+03  0.41800000000E+01 0.  1.
        -11    1    1    2    0    0 -0.23919566109E+02 -0.85976287244E+01 -0.82852910094E+01  0.26734077684E+02  0.00000000000E+00 0.  1.
         11    1    1    2    0    0 -0.36261885916E+02 -0.59173190776E+02  0.14569694634E+03  0.16138150776E+03  0.00000000000E+00 0. -1.
</event>
<event>
 7    1  0.2641580E-009  0.1548868E+03  0.7561462E-02  0.1194593E+00
          2   -1    0    0  501    0  0.00000000000E+00  0.00000000000E+00  0.11344951348E+04  0.11344951348E+04  0.00000000000E+00 0. -1.
         -2   -1    0    0    0  501 -0.00000000000E+00 -0.00000000000E+00 -0.25918268879E+02  0.25918268879E+02  0.00000000000E+00 0.  1.
         25    2    1    2    0    0  0.80167238177E+02  0.75009279964E+02  0.81431459405E+03  0.83114984108E+03  0.12509445271E+03 0.  0.
          5    1    3    3  502    0  0.54053378741E+01  0.87779938599E+02  0.36567678756E+03  0.37612700071E+03  0.41800000000E+01 0.  1.
         -5    1    3    3    0  502  0.74761900303E+02 -0.12770658635E+02  0.44863780648E+03  0.45502284038E+03  0.41800000000E+01 0.  1.
        -11    1    1    2    0    0  0.21377228529E+02 -0.23972554880E+02  0.89311298952E+02  0.94911418742E+02  0.00000000000E+00 0. -1.
         11    1    1    2    0    0 -0.10154446671E+03 -0.51036725084E+02  0.20495097291E+03  0.23435214384E+03  0.00000000000E+00 0.  1.
</event>
<event>
 7    1  0.2641580E-009  0.9339766E+02  0.7561462E-02  0.1294826E+00
         -2   -1    0    0    0  501 -0.00000000000E+00  0.00000000000E+00  0.22338674747E+02  0.22338674747E+02  0.00000000000E+00 0. -1.
          2   -1    0    0  501    0  0.00000000000E+00 -0.00000000000E+00 -0.15497147171E+04  0.15497147171E+04  0.00000000000E+00 0.  1.
         25    2    1    2    0    0  0.67841623418E+02  0.37297051650E+02 -0.13406730712E+04  0.13487198878E+04  0.12508995253E+03 0.  0.
          5    1    3    3  502    0  0.52458639533E+02  0.31895858425E+02 -0.13225723056E+04  0.13240031082E+04  0.41800000000E+01 0. -1.
         -5    1    3    3    0  502  0.15382983885E+02  0.54011932247E+01 -0.18100765569E+02  0.24716779637E+02  0.41800000000E+01 0. -1.
        -11    1    1    2    0    0 -0.82645861580E+02 -0.42247393277E+02 -0.18580403587E+03  0.20769766590E+03  0.00000000000E+00 0.  1.
         11    1    1    2    0    0  0.14804238162E+02  0.49503416275E+01 -0.89893537670E+00  0.15635838148E+02  0.00000000000E+00 0. -1.
</event>
<event>
 7    1  0.2641580E-009  0.9664252E+02  0.7561462E-02  0.1287519E+00
         -1   -1    0    0    0  501 -0.00000000000E+00  0.00000000000E+00  0.18141275665E+03  0.18141275665E+03  0.00000000000E+00 0.  1.
          1   -1    0    0  501    0  0.00000000000E+00 -0.00000000000E+00 -0.75200180457E+02  0.75200180457E+02  0.00000000000E+00 0. -1.
         25    2    1    2    0    0  0.66665836001E+01 -0.14821902789E+02  0.94873730888E+02  0.15783822949E+03  0.12509096584E+03 0.  0.
          5    1    3    3  502    0  0.63612341719E+00  0.40167627486E+02 -0.77994832971E+01  0.41135717942E+02  0.41800000000E+01 0.  1.
         -5    1    3    3    0  502  0.60304601829E+01 -0.54989530276E+02  0.10267321419E+03  0.11670251155E+03  0.41800000000E+01 0.  1.
        -11    1    1    2    0    0  0.19648401033E+02  0.49864238039E+02  0.35754766450E+00  0.53596919116E+02  0.00000000000E+00 0.  1.
         11    1    1    2    0    0 -0.26314984633E+02 -0.35042335250E+02  0.10981297636E+02  0.45177788500E+02  0.00000000000E+00 0. -1.
</event>
<event>
 7    1  0.2641580E-009  0.1591553E+03  0.7561462E-02  0.1189654E+00
         -2   -1    0    0    0  501 -0.00000000000E+00  0.00000000000E+00  0.68327006128E+02  0.68327006128E+02  0.00000000000E+00 0.  1.
          2   -1    0    0  501    0  0.00000000000E+00 -0.00000000000E+00 -0.38191716005E+03  0.38191716005E+03  0.00000000000E+00 0. -1.
         25    2    1    2    0    0 -0.61123675590E+02  0.10097992392E+03 -0.18823268829E+03  0.25497492867E+03  0.12509044951E+03 0.  0.
          5    1    3    3  502    0 -0.18981501600E+02  0.12053663065E+03 -0.15678942906E+03  0.19872034168E+03  0.41800000000E+01 0.  1.
         -5    1    3    3    0  502 -0.42142173990E+02 -0.19556706731E+02 -0.31443259225E+02  0.56254586990E+02  0.41800000000E+01 0.  1.
        -11    1    1    2    0    0 -0.24459230170E+02 -0.27147146963E+02 -0.34419148823E+02  0.50198598929E+02  0.00000000000E+00 0.  1.
         11    1    1    2    0    0  0.85582905760E+02 -0.73832776960E+02 -0.90938316805E+02  0.14507063857E+03  0.00000000000E+00 0. -1.
</event>
<event>
 7    1  0.2641580E-009  0.1253060E+03  0.7561462E-02  0.1234592E+00
         -1   -1    0    0    0  501 -0.00000000000E+00  0.00000000000E+00  0.17353893098E+02  0.17353893098E+02  0.00000000000E+00 0.  1.
          1   -1    0    0  501    0  0.00000000000E+00 -0.00000000000E+00 -0.14021058162E+04  0.14021058162E+04  0.00000000000E+00 0. -1.
         25    2    1    2    0    0  0.70704443802E+02 -0.43824756920E+01 -0.11422083571E+04  0.11512193512E+04  0.12509092299E+03 0.  0.
          5    1    3    3  502    0  0.27348349766E+02  0.59415386436E+02 -0.59134469618E+03  0.59496566496E+03  0.41800000000E+01 0.  1.
         -5    1    3    3    0  502  0.43356094036E+02 -0.63797862128E+02 -0.55086366095E+03  0.55625368625E+03  0.41800000000E+01 0.  1.
        -11    1    1    2    0    0  0.18447012588E+02  0.27893390716E+01 -0.86764067120E+02  0.88747259276E+02  0.00000000000E+00 0. -1.
         11    1    1    2    0    0 -0.89151456390E+02  0.15931366205E+01 -0.15577949883E+03  0.17949309880E+03  0.00000000000E+00 0.  1.
</event>
<event>
 7    1  0.2641580E-009  0.9262684E+02  0.7561462E-02  0.1296612E+00
          2   -1    0    0  501    0  0.00000000000E+00  0.00000000000E+00  0.45916148471E+03  0.45916148471E+03  0.00000000000E+00 0. -1.
         -2   -1    0    0    0  501 -0.00000000000E+00 -0.00000000000E+00 -0.27689606424E+02  0.27689606424E+02  0.00000000000E+00 0.  1.
         25    2    1    2    0    0  0.11410097012E+02  0.21902016959E+02  0.21222276122E+03  0.24758066749E+03  0.12509115826E+03 0.  0.
          5    1    3    3  502    0 -0.36940132238E+02 -0.23234497638E+02  0.28550084317E+02  0.52316297315E+02  0.41800000000E+01 0. -1.
         -5    1    3    3    0  502  0.48350229251E+02  0.45136514596E+02  0.18367267691E+03  0.19526437018E+03  0.41800000000E+01 0. -1.
        -11    1    1    2    0    0 -0.33026194207E+02  0.11824450846E+02  0.31024445855E+02  0.46830154625E+02  0.00000000000E+00 0.  1.
         11    1    1    2    0    0  0.21616097194E+02 -0.33726467805E+02  0.18822467120E+03  0.19244026901E+03  0.00000000000E+00 0. -1.
</event>
<event>
 7    1  0.2641580E-009  0.1108647E+03  0.7561462E-02  0.1258977E+00
         -1   -1    0    0    0  501 -0.00000000000E+00  0.00000000000E+00  0.20794739720E+02  0.20794739720E+02  0.00000000000E+00 0.  1.
          1   -1    0    0  501    0  0.00000000000E+00 -0.00000000000E+00 -0.63435248413E+03  0.63435248413E+03  0.00000000000E+00 0. -1.
         25    2    1    2    0    0  0.15495634420E+02  0.21710355197E+02 -0.27863802671E+03  0.30659112894E+03  0.12509003242E+03 0.  0.
          5    1    3    3  502    0  0.68673759620E+02  0.25799722464E+02 -0.17909671549E+03  0.19358413374E+03  0.41800000000E+01 0.  1.
         -5    1    3    3    0  502 -0.53178125200E+02 -0.40893672665E+01 -0.99541311223E+02  0.11300699520E+03  0.41800000000E+01 0.  1.
        -11    1    1    2    0    0  0.11049026872E+02  0.32534831348E+02 -0.90980585191E+02  0.97252573886E+02  0.00000000000E+00 0. -1.
         11    1    1    2    0    0 -0.26544661292E+02 -0.54245186546E+02 -0.24393913251E+03  0.25130352102E+03  0.00000000000E+00 0.  1.
</event>
<event>
 7    1  0.2641580E-009  0.1042609E+03  0.7561462E-02  0.1271583E+00
         -2   -1    0    0    0  501 -0.00000000000E+00  0.00000000000E+00  0.24252063342E+02  0.24252063342E+02  0.00000000000E+00 0.  1.
          2   -1    0    0  501    0  0.00000000000E+00 -0.00000000000E+00 -0.72682618550E+03  0.72682618550E+03  0.00000000000E+00 0. -1.
         25    2    1    2    0    0 -0.11792500193E+02 -0.45804544963E+02 -0.53022262397E+03  0.54682661748E+03  0.12508476809E+03 0.  0.
          5    1    3    3  502    0 -0.40207375407E+02 -0.74792938903E+02 -0.26018402054E+03  0.27372214688E+03  0.41800000000E+01 0.  1.
         -5    1    3    3    0  502  0.28414875215E+02  0.28988393940E+02 -0.27003860343E+03  0.27310447060E+03  0.41800000000E+01 0.  1.
        -11    1    1    2    0    0  0.40317274807E+02  0.27539716580E+02 -0.16144671147E+03  0.16866819286E+03  0.00000000000E+00 0. -1.
         11    1    1    2    0    0 -0.28524774614E+02  0.18264828383E+02 -0.10904786711E+02  0.35583438505E+02  0.00000000000E+00 0.  1.
</event>
<event>
 7    1  0.2641580E-009  0.1560348E+03  0.7561462E-02  0.1193248E+00
         -2   -1    0    0    0  501 -0.00000000000E+00  0.00000000000E+00  0.27023669930E+02  0.27023669930E+02  0.00000000000E+00 0. -1.
          2   -1    0    0  501    0  0.00000000000E+00 -0.00000000000E+00 -0.10059693036E+04  0.10059693036E+04  0.00000000000E+00 0.  1.
         25    2    1    2    0    0  0.60142049009E+02  0.11256476647E+03 -0.55538525496E+03  0.58342791478E+03  0.12508979819E+03 0.  0.
          5    1    3    3  502    0  0.20745323602E+02 -0.25070310479E+02 -0.69157922528E+02  0.76545277890E+02  0.41800000000E+01 0. -1.
         -5    1    3    3    0  502  0.39396725407E+02  0.13763507695E+03 -0.48622733243E+03  0.50688263689E+03  0.41800000000E+01 0. -1.
        -11    1    1    2    0    0 -0.51175684386E+02 -0.45810712141E+02 -0.11680767560E+03  0.13550500027E+03  0.00000000000E+00 0. -1.
         11    1    1    2    0    0 -0.89663646226E+01 -0.66754054332E+02 -0.30675270314E+03  0.31406005851E+03  0.00000000000E+00 0.  1.
</event>
<event>
 7    1  0.2641580E-009  0.1166915E+03  0.7561462E-02  0.1248657E+00
         -1   -1    0    0    0  501 -0.00000000000E+00  0.00000000000E+00  0.17785215805E+03  0.17785215805E+03  0.00000000000E+00 0.  1.
          1   -1    0    0  501    0  0.00000000000E+00 -0.00000000000E+00 -0.13863548706E+03  0.13863548706E+03  0.00000000000E+00 0. -1.
         25    2    1    2    0    0  0.53049866186E+02  0.17434535146E+02  0.11892703489E+03  0.18140835008E+03  0.12508836290E+03 0.  0.
          5    1    3    3  502    0 -0.26492755778E+02 -0.25020402393E+02  0.69291079385E+02  0.78400336268E+02  0.41800000000E+01 0.  1.
         -5    1    3    3    0  502  0.79542621964E+02  0.42454937540E+02  0.49635955509E+02  0.10300801381E+03  0.41800000000E+01 0.  1.
        -11    1    1    2    0    0 -0.57326295551E+02 -0.48496814217E+02 -0.42000339380E+02  0.86036467029E+02  0.00000000000E+00 0.  1.
         11    1    1    2    0    0  0.42764293651E+01  0.31062279070E+02 -0.37710024517E+02  0.49042828000E+02  0.00000000000E+00 0. -1.
</event>
<event>
 7    1  0.2641580E-009  0.1318703E+03  0.7561462E-02  0.1224707E+00
          1   -1    0    0  501    0  0.00000000000E+00  0.00000000000E+00  0.13715590608E+03  0.13715590608E+03  0.00000000000E+00 0. -1.
         -1   -1    0    0    0  501 -0.00000000000E+00 -0.00000000000E+00 -0.15827010732E+03  0.15827010732E+03  0.00000000000E+00 0.  1.
         25    2    1    2    0    0 -0.11608541468E+02  0.90577850072E+02 -0.53732848419E+02  0.16393494281E+03  0.12509333042E+03 0.  0.
          5    1    3    3  502    0 -0.53110425452E+02  0.18859729547E+01 -0.36019661699E+02  0.64336324224E+02  0.41800000000E+01 0.  1.
         -5    1    3    3    0  502  0.41501883984E+02  0.88691877117E+02 -0.17713186720E+02  0.99598618588E+02  0.41800000000E+01 0.  1.
        -11    1    1    2    0    0  0.80057116519E+01  0.94180308967E+01 -0.16020625928E+02  0.20234900053E+02  0.00000000000E+00 0.  1.
         11    1    1    2    0    0  0.36028298160E+01 -0.99995880968E+02  0.48639273114E+02  0.11125617054E+03  0.00000000000E+00 0. -1.
</event>
<event>
 7    1  0.2641580E-009  0.9023954E+02  0.7561462E-02  0.1302273E+00
          2   -1    0    0  501    0  0.00000000000E+00  0.00000000000E+00  0.39967062145E+03  0.39967062145E+03  0.00000000000E+00 0. -1.
         -2   -1    0    0    0  501 -0.00000000000E+00 -0.00000000000E+00 -0.36878552697E+02  0.36878552697E+02  0.00000000000E+00 0.  1.
         25    2    1    2    0    0 -0.65524199787E+01  0.40613782336E+02  0.13813279526E+03  0.19084320168E+03  0.12509214595E+03 0.  0.
          5    1    3    3  502    0 -0.42712381743E+02  0.17384850511E+02  0.19481262356E+00  0.46304329532E+02  0.41800000000E+01 0.  1.
         -5    1    3    3    0  502  0.36159961764E+02  0.23228931825E+02  0.13793798264E+03  0.14453887215E+03  0.41800000000E+01 0.  1.
        -11    1    1    2    0    0 -0.13214141459E+02  0.21818177868E+02  0.11655673082E+03  0.11931520406E+03  0.00000000000E+00 0. -1.
         11    1    1    2    0    0  0.19766561438E+02 -0.62431960205E+02  0.10810254267E+03  0.12639076840E+03  0.00000000000E+00 0.  1.
</event>
<event>
 7    1  0.2641580E-009  0.1556290E+03  0.7561462E-02  0.1193722E+00
         -2   -1    0    0    0  501 -0.00000000000E+00  0.00000000000E+00  0.61542740356E+02  0.61542740356E+02  0.00000000000E+00 0.  1.
          2   -1    0    0  501    0  0.00000000000E+00 -0.00000000000E+00 -0.62680798846E+03  0.62680798846E+03  0.00000000000E+00 0. -1.
         25    2    1    2    0    0 -0.12546605145E+03 -0.12063985425E+02 -0.45557875189E+03  0.48896518646E+03  0.12509070545E+03 0.  0.
          5    1    3    3  502    0 -0.10026489453E+03  0.22711150210E+02 -0.15982181282E+03  0.19007716768E+03  0.41800000000E+01 0. -1.
         -5    1    3    3    0  502 -0.25201156927E+02 -0.34775135635E+02 -0.29575693906E+03  0.29888801878E+03  0.41800000000E+01 0. -1.
        -11    1    1    2    0    0  0.73988382563E+02 -0.46390106741E+02 -0.45586584812E+02  0.98511214958E+02  0.00000000000E+00 0. -1.
         11    1    1    2    0    0  0.51477668890E+02  0.58454092167E+02 -0.64099911405E+02  0.10087432740E+03  0.00000000000E+00 0.  1.
</event>
<event>
 7    1  0.2641580E-009  0.6571112E+02  0.7561462E-02  0.1375316E+00
         -2   -1    0    0    0  501 -0.00000000000E+00  0.00000000000E+00  0.65592159999E+02  0.65592159999E+02  0.00000000000E+00 0.  1.
          2   -1    0    0  501    0  0.00000000000E+00 -0.00000000000E+00 -0.21385200169E+03  0.21385200169E+03  0.00000000000E+00 0. -1.
         25    2    1    2    0    0  0.57792640226E+01 -0.87826703841E+01 -0.34939130868E+02  0.13030356938E+03  0.12509093547E+03 0.  0.
          5    1    3    3  502    0 -0.10257170316E+02 -0.20263836026E+02 -0.78755499768E+02  0.82071515991E+02  0.41800000000E+01 0.  1.
         -5    1    3    3    0  502  0.16036434339E+02  0.11481165642E+02  0.43816368900E+02  0.48232053392E+02  0.41800000000E+01 0.  1.
        -11    1    1    2    0    0 -0.81335667585E+01  0.48098735264E+02 -0.92535212888E+02  0.10460596955E+03  0.00000000000E+00 0. -1.
         11    1    1    2    0    0  0.23543027358E+01 -0.39316064880E+02 -0.20785497932E+02  0.44534622748E+02  0.00000000000E+00 0.  1.
</event>
<event>
 7    1  0.2641580E-009  0.8450812E+02  0.7561462E-02  0.1316724E+00
          2   -1    0    0  501    0  0.00000000000E+00  0.00000000000E+00  0.19859660378E+03  0.19859660378E+03  0.00000000000E+00 0. -1.
         -2   -1    0    0    0  501 -0.00000000000E+00 -0.00000000000E+00 -0.64364751890E+02  0.64364751890E+02  0.00000000000E+00 0.  1.
         25    2    1    2    0    0  0.48985739096E+01  0.12281699851E+02  0.99846569362E+02  0.16059524574E+03  0.12508660744E+03 0.  0.
          5    1    3    3  502    0  0.23662590456E+02 -0.25161197665E+02  0.11159826509E+03  0.11689589055E+03  0.41800000000E+01 0.  1.
         -5    1    3    3    0  502 -0.18764016547E+02  0.37442897515E+02 -0.11751695732E+02  0.43699355188E+02  0.41800000000E+01 0.  1.
        -11    1    1    2    0    0  0.21541128149E+02  0.33170866211E+02  0.24373469336E-01  0.39551575964E+02  0.00000000000E+00 0.  1.
         11    1    1    2    0    0 -0.26439702058E+02 -0.45452566062E+02  0.34360909059E+02  0.62814533971E+02  0.00000000000E+00 0. -1.
</event>
<event>
 7    1  0.2641580E-009  0.1383982E+03  0.7561462E-02  0.1215501E+00
         -1   -1    0    0    0  501 -0.00000000000E+00  0.00000000000E+00  0.34972535647E+03  0.34972535647E+03  0.00000000000E+00 0.  1.
          1   -1    0    0  501    0  0.00000000000E+00 -0.00000000000E+00 -0.67440617602E+02  0.67440617602E+02  0.00000000000E+00 0. -1.
         25    2    1    2    0    0  0.10513393378E+03 -0.35404221895E+01  0.16599566963E+03  0.23295513814E+03  0.12509138830E+03 0.  0.
          5    1    3    3  502    0  0.12394996563E+03  0.26857457517E+02  0.13696449716E+03  0.18671278180E+03  0.41800000000E+01 0.  1.
         -5    1    3    3    0  502 -0.18816031847E+02 -0.30397879707E+02  0.29031172470E+02  0.46242356343E+02  0.41800000000E+01 0.  1.
        -11    1    1    2    0    0 -0.72860289667E+02 -0.18068984738E+02  0.16124684325E+02  0.76779655277E+02  0.00000000000E+00 0. -1.
         11    1    1    2    0    0 -0.32273644117E+02  0.21609406927E+02  0.10016438491E+03  0.10743118065E+03  0.00000000000E+00 0.  1.
</event>
<event>
 7    1  0.2641580E-009  0.1006991E+03  0.7561462E-02  0.1278833E+00
         -1   -1    0    0    0  501 -0.00000000000E+00  0.00000000000E+00  0.41750514106E+02  0.41750514106E+02  0.00000000000E+00 0.  1.
          1   -1    0    0  501    0  0.00000000000E+00 -0.00000000000E+00 -0.34511640962E+03  0.34511640962E+03  0.00000000000E+00 0. -1.
         25    2    1    2    0    0  0.12469214183E+02  0.41137388683E+02 -0.23156389083E+03  0.26667836761E+03  0.12509096756E+03 0.  0.
          5    1    3    3  502    0  0.48984701350E+02 -0.97130915840E+00 -0.30210159220E+02  0.57711095362E+02  0.41800000000E+01 0.  1.
         -5    1    3    3    0  502 -0.36515487166E+02  0.42108697841E+02 -0.20135373161E+03  0.20896727225E+03  0.41800000000E+01 0.  1.
        -11    1    1    2    0    0 -0.14794951398E+02 -0.67888053684E+02 -0.50029943199E+02  0.85619353165E+02  0.00000000000E+00 0.  1.
         11    1    1    2    0    0  0.23257372145E+01  0.26750665001E+02 -0.21772061488E+02  0.34569202956E+02  0.00000000000E+00 0. -1.
</event>
<event>
 7    1  0.2641580E-009  0.7866920E+02  0.7561462E-02  0.1332871E+00
         -4   -1    0    0    0  501 -0.00000000000E+00  0.00000000000E+00  0.25808152367E+03  0.25808152367E+03  0.00000000000E+00 0.  1.
          4   -1    0    0  501    0  0.00000000000E+00 -0.00000000000E+00 -0.51184256837E+02  0.51184256837E+02  0.00000000000E+00 0. -1.
         25    2    1    2    0    0  0.31132663810E+02 -0.12742487927E+02  0.12608248993E+03  0.18076397718E+03  0.12508879816E+03 0.  0.
          5    1    3    3  502    0  0.24623868020E+02 -0.39674198729E+02 -0.46044910350E+01  0.47106800557E+02  0.41800000000E+01 0. -1.
         -5    1    3    3    0  502  0.65087957896E+01  0.26931710802E+02  0.13068698096E+03  0.13365717662E+03  0.41800000000E+01 0. -1.
        -11    1    1    2    0    0  0.77233372728E+01 -0.26266002396E+02  0.66047773857E+02  0.71497281430E+02  0.00000000000E+00 0.  1.
         11    1    1    2    0    0 -0.38856001083E+02  0.39008490323E+02  0.14767003045E+02  0.57004521894E+02  0.00000000000E+00 0. -1.
</event>
<event>
 7    1  0.2938576E-009  0.1056217E+03  0.7561462E-02  0.1268899E+00
         -1   -1    0    0    0  501 -0.00000000000E+00  0.00000000000E+00  0.12559514125E+02  0.12559514125E+02  0.00000000000E+00 0.  1.
          1   -1    0    0  501    0  0.00000000000E+00 -0.00000000000E+00 -0.10844194045E+04  0.10844194045E+04  0.00000000000E+00 0. -1.
         25    2    1    2    0    0  0.27571647323E+02 -0.21303142461E+02 -0.73647107970E+03  0.74782804300E+03  0.12507242321E+03 0.  0.
          5    1    3    3  502    0  0.74350801356E+02 -0.16440411013E+02 -0.33394002230E+03  0.34253720918E+03  0.41800000000E+01 0. -1.
         -5    1    3    3    0  502 -0.46779154034E+02 -0.48627314483E+01 -0.40253105740E+03  0.40529083382E+03  0.41800000000E+01 0. -1.
        -11    1    1    2    0    0 -0.75570343860E+01  0.51218085132E+02 -0.11878973867E+03  0.12958164618E+03  0.00000000000E+00 0.  1.
         11    1    1    2    0    0 -0.20014612937E+02 -0.29914942671E+02 -0.21659907204E+03  0.21956922948E+03  0.00000000000E+00 0. -1.
</event>
<event>
 7    1  0.2641580E-009  0.1688844E+03  0.7561462E-02  0.1179016E+00
          1   -1    0    0  501    0  0.00000000000E+00  0.00000000000E+00  0.40969320626E+02  0.40969320626E+02  0.00000000000E+00 0. -1.
         -1   -1    0    0    0  501 -0.00000000000E+00 -0.00000000000E+00 -0.88075974249E+03  0.88075974249E+03  0.00000000000E+00 0.  1.
         25    2    1    2    0    0  0.74291861277E+02  0.12587377911E+03 -0.58441965457E+03  0.61526985546E+03  0.12508866244E+03 0.  0.
          5    1    3    3  502    0  0.87071215823E+02  0.29530640848E+02 -0.33907179920E+03  0.35134116295E+03  0.41800000000E+01 0. -1.
         -5    1    3    3    0  502 -0.12779354546E+02  0.96343138265E+02 -0.24534785537E+03  0.26392869251E+03  0.41800000000E+01 0. -1.
        -11    1    1    2    0    0 -0.38200189623E+02 -0.40030664635E+02 -0.17470347985E+03  0.18325669011E+03  0.00000000000E+00 0.  1.
         11    1    1    2    0    0 -0.36091671654E+02 -0.85843114478E+02 -0.80667287449E+02  0.12320251755E+03  0.00000000000E+00 0. -1.
</event>
<event>
 7    1  0.2641580E-009  0.1026117E+03  0.7561462E-02  0.1274898E+00
         -2   -1    0    0    0  501 -0.00000000000E+00  0.00000000000E+00  0.47760607980E+02  0.47760607980E+02  0.00000000000E+00 0.  1.
          2   -1    0    0  501    0  0.00000000000E+00 -0.00000000000E+00 -0.29459837656E+03  0.29459837656E+03  0.00000000000E+00 0. -1.
         25    2    1    2    0    0 -0.43599945433E+02  0.22049895389E+02 -0.13506926491E+03  0.19046874208E+03  0.12508989670E+03 0.  0.
          5    1    3    3  502    0 -0.44657734984E+02  0.57684841801E+02 -0.13619225516E+03  0.15455632317E+03  0.41800000000E+01 0.  1.
         -5    1    3    3    0  502  0.10577895507E+01 -0.35634946413E+02  0.11229902463E+01  0.35912418906E+02  0.41800000000E+01 0.  1.
        -11    1    1    2    0    0 -0.22822980260E+02 -0.19114758032E+02 -0.12221159001E+02  0.32181036806E+02  0.00000000000E+00 0.  1.
         11    1    1    2    0    0  0.66422925693E+02 -0.29351373567E+01 -0.99547344671E+02  0.11970920566E+03  0.00000000000E+00 0. -1.
</event>
<event>
 7    1  0.2641580E-009  0.1121989E+03  0.7561462E-02  0.1256551E+00
          2   -1    0    0  501    0  0.00000000000E+00  0.00000000000E+00  0.37383361682E+02  0.37383361682E+02  0.00000000000E+00 0.  1.
         -2   -1    0    0    0  501 -0.00000000000E+00 -0.00000000000E+00 -0.36922436616E+03  0.36922436616E+03  0.00000000000E+00 0. -1.
         25    2    1    2    0    0  0.46222094614E+02 -0.10446970026E+02 -0.19694319800E+03  0.23807349974E+03  0.12508695706E+03 0.  0.
          5    1    3    3  502    0  0.22433821720E+02  0.56609665464E+02 -0.10846031330E+03  0.12445498199E+03  0.41800000000E+01 0. -1.
         -5    1    3    3    0  502  0.23788272893E+02 -0.67056635491E+02 -0.88482884704E+02  0.11361851775E+03  0.41800000000E+01 0. -1.
        -11    1    1    2    0    0 -0.43003140166E+02  0.42153815255E+02 -0.51437829311E+02  0.79196366640E+02  0.00000000000E+00 0.  1.
         11    1    1    2    0    0 -0.32189544478E+01 -0.31706845229E+02 -0.83459977165E+02  0.89337861461E+02  0.00000000000E+00 0. -1.
</event>
<event>
 7    1  0.2641580E-009  0.7630887E+02  0.7561462E-02  0.1339865E+00
         -1   -1    0    0    0  501 -0.00000000000E+00  0.00000000000E+00  0.20137683074E+02  0.20137683074E+02  0.00000000000E+00 0.  1.
          1   -1    0    0  501    0  0.00000000000E+00 -0.00000000000E+00 -0.47819938739E+03  0.47819938739E+03  0.00000000000E+00 0. -1.
         25    2    1    2    0    0  0.62062359848E+01 -0.77016354366E+01 -0.34636279761E+03  0.36839243386E+03  0.12509182709E+03 0.  0.
          5    1    3    3  502    0  0.29054156600E+02 -0.46390979035E+02 -0.29481643434E+03  0.29988409312E+03  0.41800000000E+01 0. -1.
         -5    1    3    3    0  502 -0.22847920616E+02  0.38689343598E+02 -0.51546363271E+02  0.68508340741E+02  0.41800000000E+01 0. -1.
        -11    1    1    2    0    0  0.12753183247E+02  0.24269108275E+02 -0.96978015455E+02  0.10077881117E+03  0.00000000000E+00 0. -1.
         11    1    1    2    0    0 -0.18959419232E+02 -0.16567472838E+02 -0.14720891253E+02  0.29165825432E+02  0.00000000000E+00 0.  1.
</event>
<event>
 7    1  0.2641580E-009  0.8431474E+02  0.7561462E-02  0.1317234E+00
          1   -1    0    0  501    0  0.00000000000E+00  0.00000000000E+00  0.51051400948E+02  0.51051400948E+02  0.00000000000E+00 0. -1.
         -1   -1    0    0    0  501 -0.00000000000E+00 -0.00000000000E+00 -0.24913954971E+03  0.24913954971E+03  0.00000000000E+00 0.  1.
         25    2    1    2    0    0  0.52050425931E+02 -0.95630390315E+01 -0.10682469013E+03  0.17279269631E+03  0.12508038584E+03 0.  0.
          5    1    3    3  502    0  0.50598113412E+02  0.28644029505E+02 -0.11894857974E+03  0.13246466143E+03  0.41800000000E+01 0. -1.
         -5    1    3    3    0  502  0.14523125185E+01 -0.38207068537E+02  0.12123889609E+02  0.40328034878E+02  0.41800000000E+01 0. -1.
        -11    1    1    2    0    0 -0.53166907400E+02 -0.84428865749E+01 -0.26181382971E+02  0.59862068044E+02  0.00000000000E+00 0. -1.
         11    1    1    2    0    0  0.11164814695E+01  0.18005925606E+02 -0.65082075664E+02  0.67536186304E+02  0.00000000000E+00 0.  1.
</event>
<event>
 7    1  0.2641580E-009  0.1335686E+03  0.7561462E-02  0.1222255E+00
          1   -1    0    0  501    0  0.00000000000E+00  0.00000000000E+00  0.56272794352E+02  0.56272794352E+02  0.00000000000E+00 0. -1.
         -1   -1    0    0    0  501 -0.00000000000E+00 -0.00000000000E+00 -0.41402774653E+03  0.41402774653E+03  0.00000000000E+00 0.  1.
         25    2    1    2    0    0 -0.94176397137E+02 -0.15369125353E+02 -0.20308995939E+03  0.25690209462E+03  0.12509097020E+03 0.  0.
          5    1    3    3  502    0 -0.30039720738E+02 -0.64980293118E+02 -0.65388776955E+02  0.97046318155E+02  0.41800000000E+01 0.  1.
         -5    1    3    3    0  502 -0.64136676398E+02  0.49611167765E+02 -0.13770118243E+03  0.15985577646E+03  0.41800000000E+01 0.  1.
        -11    1    1    2    0    0  0.64506499829E+01  0.25151180996E+02 -0.11271622595E+03  0.11566823412E+03  0.00000000000E+00 0.  1.
         11    1    1    2    0    0  0.87725747154E+02 -0.97820556432E+01 -0.41948766838E+02  0.97730212143E+02  0.00000000000E+00 0. -1.
</event>
<event>
 7    1  0.2882657E-009  0.2038712E+03  0.7561462E-02  0.1146513E+00
         -2   -1    0    0    0  501 -0.00000000000E+00  0.00000000000E+00  0.89731810719E+02  0.89731810719E+02  0.00000000000E+00 0.  1.
          2   -1    0    0  501    0  0.00000000000E+00 -0.00000000000E+00 -0.56612573928E+03  0.56612573928E+03  0.00000000000E+00 0. -1.
         25    2    1    2    0    0 -0.40033561806E+02 -0.19321715243E+03 -0.24334494533E+03  0.33734888172E+03  0.12510775962E+03 0.  0.
          5    1    3    3  502    0  0.11268332497E+02 -0.10579683614E+03 -0.47092390813E+02  0.11642642108E+03  0.41800000000E+01 0. -1.
         -5    1    3    3    0  502 -0.51301894303E+02 -0.87420316289E+02 -0.19625255452E+03  0.22092246064E+03  0.41800000000E+01 0. -1.
        -11    1    1    2    0    0  0.58288166266E+01  0.10559020780E+03 -0.18448692719E+03  0.21264687487E+03  0.00000000000E+00 0. -1.
         11    1    1    2    0    0  0.34204745179E+02  0.87626944626E+02 -0.48562056041E+02  0.10586179341E+03  0.00000000000E+00 0.  1.
</event>
<event>
 7    1  0.2641580E-009  0.8830882E+02  0.7561462E-02  0.1307000E+00
         -1   -1    0    0    0  501 -0.00000000000E+00  0.00000000000E+00  0.13287576945E+03  0.13287576945E+03  0.00000000000E+00 0.  1.
          1   -1    0    0  501    0  0.00000000000E+00 -0.00000000000E+00 -0.10726031938E+03  0.10726031938E+03  0.00000000000E+00 0. -1.
         25    2    1    2    0    0 -0.38496911701E+02  0.30538050338E+02  0.15797269814E+02  0.13532039069E+03  0.12508984641E+03 0.  0.
          5    1    3    3  502    0 -0.50756741023E+01 -0.36772855480E+02 -0.29388887265E+02  0.47530879041E+02  0.41800000000E+01 0. -1.
         -5    1    3    3    0  502 -0.33421237598E+02  0.67310905819E+02  0.45186157079E+02  0.87789511653E+02  0.41800000000E+01 0. -1.
        -11    1    1    2    0    0  0.47086126681E+02 -0.22327154641E+02  0.44266938968E+02  0.68375193205E+02  0.00000000000E+00 0.  1.
         11    1    1    2    0    0 -0.85892149806E+01 -0.82108956977E+01 -0.34448758718E+02  0.36440504927E+02  0.00000000000E+00 0. -1.
</event>
<event>
 7    1  0.2641580E-009  0.1246886E+03  0.7561462E-02  0.1235557E+00
          2   -1    0    0  501    0  0.00000000000E+00  0.00000000000E+00  0.44912249289E+03  0.44912249289E+03  0.00000000000E+00 0. -1.
         -2   -1    0    0    0  501 -0.00000000000E+00 -0.00000000000E+00 -0.40614885809E+02  0.40614885809E+02  0.00000000000E+00 0.  1.
         25    2    1    2    0    0 -0.31731400655E+02 -0.69623362254E+02  0.27408140209E+03  0.31084068759E+03  0.12508806390E+03 0.  0.
          5    1    3    3  502    0 -0.72473593107E+02 -0.53462338862E+02  0.11700496833E+03  0.14771011607E+03  0.41800000000E+01 0.  1.
         -5    1    3    3    0  502  0.40742192452E+02 -0.16161023392E+02  0.15707643376E+03  0.16313057152E+03  0.41800000000E+01 0.  1.
        -11    1    1    2    0    0  0.59041020894E+01 -0.20555945145E+02  0.42398265398E+02  0.47487032030E+02  0.00000000000E+00 0. -1.
         11    1    1    2    0    0  0.25827298565E+02  0.90179307399E+02  0.92027939599E+02  0.13140965909E+03  0.00000000000E+00 0.  1.
</event>
<event>
 7    1  0.2641580E-009  0.1622516E+03  0.7561462E-02  0.1186178E+00
         -2   -1    0    0    0  501 -0.00000000000E+00  0.00000000000E+00  0.48795694090E+02  0.48795694090E+02  0.00000000000E+00 0.  1.
          2   -1    0    0  501    0  0.00000000000E+00 -0.00000000000E+00 -0.84977462352E+03  0.84977462352E+03  0.00000000000E+00 0. -1.
         25    2    1    2    0    0 -0.12965944800E+03  0.50954268054E+02 -0.19872544700E+03  0.27302346849E+03  0.12506838597E+03 0.  0.
          5    1    3    3  502    0 -0.42776628327E+02 -0.31108473607E+02 -0.17441818244E+02  0.55850393775E+02  0.41800000000E+01 0.  1.
         -5    1    3    3    0  502 -0.86882819671E+02  0.82062741660E+02 -0.18128362876E+03  0.21717307471E+03  0.41800000000E+01 0.  1.
        -11    1    1    2    0    0  0.89568767145E+02 -0.33586117443E+01 -0.48075037996E+03  0.48903453063E+03  0.00000000000E+00 0. -1.
         11    1    1    2    0    0  0.40090680853E+02 -0.47595656309E+02 -0.12150310247E+03  0.13651231849E+03  0.00000000000E+00 0.  1.
</event>
<event>
 7    1  0.2641580E-009  0.7913176E+02  0.7561462E-02  0.1331534E+00
          4   -1    0    0  501    0  0.00000000000E+00  0.00000000000E+00  0.11956322741E+03  0.11956322741E+03  0.00000000000E+00 0. -1.
         -4   -1    0    0    0  501 -0.00000000000E+00 -0.00000000000E+00 -0.13543215057E+03  0.13543215057E+03  0.00000000000E+00 0.  1.
         25    2    1    2    0    0 -0.60563772089E+02 -0.27807703776E+02 -0.40841070813E+02  0.14749769686E+03  0.12508532542E+03 0.  0.
          5    1    3    3  502    0 -0.32637478588E+01 -0.27440925750E+01 -0.75592210881E+02  0.75827678588E+02  0.41800000000E+01 0.  1.
         -5    1    3    3    0  502 -0.57300024231E+02 -0.25063611201E+02  0.34751140068E+02  0.71670018273E+02  0.41800000000E+01 0.  1.
        -11    1    1    2    0    0  0.70072876431E+02  0.11897488662E+02  0.41805914450E+02  0.82459036683E+02  0.00000000000E+00 0. -1.
         11    1    1    2    0    0 -0.95091043414E+01  0.15910215114E+02 -0.16833766804E+02  0.25038644435E+02  0.00000000000E+00 0.  1.
</event>
<event>
 7    1  0.2641580E-009  0.1006404E+03  0.7561462E-02  0.1278955E+00
          2   -1    0    0  501    0  0.00000000000E+00  0.00000000000E+00  0.50122130306E+03  0.50122130306E+03  0.00000000000E+00 0. -1.
         -2   -1    0    0    0  501 -0.00000000000E+00 -0.00000000000E+00 -0.23944531578E+02  0.23944531578E+02  0.00000000000E+00 0.  1.
         25    2    1    2    0    0  0.68251544000E+01 -0.90079467571E+01  0.29671519303E+03  0.32220387771E+03  0.12509079583E+03 0.  0.
          5    1    3    3  502    0  0.87851826960E+01 -0.64963887739E+02  0.19833145929E+03  0.20892660503E+03  0.41800000000E+01 0. -1.
         -5    1    3    3    0  502 -0.19600282960E+01  0.55955940982E+02  0.98383733742E+02  0.11327727269E+03  0.41800000000E+01 0. -1.
        -11    1    1    2    0    0 -0.41758159382E+02  0.14249040909E+02  0.45590572086E+02  0.63445088895E+02  0.00000000000E+00 0.  1.
         11    1    1    2    0    0  0.34933004982E+02 -0.52410941520E+01  0.13497100637E+03  0.13951686803E+03  0.00000000000E+00 0. -1.
</event>
<event>
 7    1  0.2641580E-009  0.1027976E+03  0.7561462E-02  0.1274521E+00
          2   -1    0    0  501    0  0.00000000000E+00  0.00000000000E+00  0.87031263159E+02  0.87031263159E+02  0.00000000000E+00 0.  1.
         -2   -1    0    0    0  501 -0.00000000000E+00 -0.00000000000E+00 -0.17366708650E+03  0.17366708650E+03  0.00000000000E+00 0. -1.
         25    2    1    2    0    0  0.10527270494E+02  0.52012283112E+02 -0.73111086664E+02  0.15430238834E+03  0.12509154663E+03 0.  0.
          5    1    3    3  502    0  0.57609057095E+02  0.27588631990E+02 -0.16030669437E+00  0.64011203493E+02  0.41800000000E+01 0.  1.
         -5    1    3    3    0  502 -0.47081786601E+02  0.24423651122E+02 -0.72950779969E+02  0.90291184851E+02  0.41800000000E+01 0.  1.
        -11    1    1    2    0    0  0.19788765732E+02 -0.54481008949E+02  0.19823745669E+02  0.61259745981E+02  0.00000000000E+00 0.  1.
         11    1    1    2    0    0 -0.30316036226E+02  0.24687258371E+01 -0.33348482342E+02  0.45136215329E+02  0.00000000000E+00 0. -1.
</event>
<event>
 7    1  0.2641580E-009  0.8845209E+02  0.7561462E-02  0.1306644E+00
         -2   -1    0    0    0  501 -0.00000000000E+00  0.00000000000E+00  0.21841166436E+02  0.21841166436E+02  0.00000000000E+00 0.  1.
          2   -1    0    0  501    0  0.00000000000E+00 -0.00000000000E+00 -0.54854205108E+03  0.54854205108E+03  0.00000000000E+00 0. -1.
         25    2    1    2    0    0 -0.14602759951E+02  0.31868087563E+02 -0.30991365729E+03  0.33604021804E+03  0.12509091718E+03 0.  0.
          5    1    3    3  502    0  0.78156113495E+01 -0.25167970554E+02 -0.78780884502E+01  0.27821703762E+02  0.41800000000E+01 0.  1.
         -5    1    3    3    0  502 -0.22418371301E+02  0.57036058117E+02 -0.30203556884E+03  0.30821851428E+03  0.41800000000E+01 0.  1.
        -11    1    1    2    0    0 -0.24990371798E+02 -0.41135702447E+02 -0.10966616444E+03  0.11976365192E+03  0.00000000000E+00 0. -1.
         11    1    1    2    0    0  0.39593131749E+02  0.92676148848E+01 -0.10712106291E+03  0.11457934755E+03  0.00000000000E+00 0.  1.
</event>
<event>
 7    1  0.2641580E-009  0.7219127E+02  0.7561462E-02  0.1352796E+00
         -1   -1    0    0    0  501 -0.00000000000E+00  0.00000000000E+00  0.19518525931E+03  0.19518525931E+03  0.00000000000E+00 0.  1.
          1   -1    0    0  501    0  0.00000000000E+00 -0.00000000000E+00 -0.98619808122E+02  0.98619808122E+02  0.00000000000E+00 0. -1.
         25    2    1    2    0    0 -0.53579750469E+02  0.36232389623E+02  0.14749565534E+03  0.20392942408E+03  0.12509462796E+03 0.  0.
          5    1    3    3  502    0 -0.17545981637E+02 -0.82687545365E+01 -0.19207990247E+02  0.27616173929E+02  0.41800000000E+01 0.  1.
         -5    1    3    3    0  502 -0.36033768832E+02  0.44501144160E+02  0.16670364559E+03  0.17631325015E+03  0.41800000000E+01 0.  1.
        -11    1    1    2    0    0  0.26083687767E+02 -0.70235467317E+01 -0.27060099491E+01  0.27147955099E+02  0.00000000000E+00 0.  1.
         11    1    1    2    0    0  0.27496062701E+02 -0.29208842891E+02 -0.48224194201E+02  0.62727688252E+02  0.00000000000E+00 0. -1.
</event>
<event>
 7    1  0.2641580E-009  0.1162697E+03  0.7561462E-02  0.1249381E+00
          1   -1    0    0  501    0  0.00000000000E+00  0.00000000000E+00  0.51330477145E+03  0.51330477145E+03  0.00000000000E+00 0. -1.
         -1   -1    0    0    0  501 -0.00000000000E+00 -0.00000000000E+00 -0.51595301277E+02  0.51595301277E+02  0.00000000000E+00 0.  1.
         25    2    1    2    0    0 -0.29788781013E+02  0.42843155877E+02  0.43676119110E+03  0.45730810433E+03  0.12508979478E+03 0.  0.
          5    1    3    3  502    0  0.44812556639E+02  0.34555620249E+02  0.13748078795E+03  0.14873027795E+03  0.41800000000E+01 0. -1.
         -5    1    3    3    0  502 -0.74601337652E+02  0.82875356281E+01  0.29928040315E+03  0.30857782638E+03  0.41800000000E+01 0. -1.
        -11    1    1    2    0    0  0.26316866682E+02  0.22839625875E+02  0.23070224150E+02  0.41790683464E+02  0.00000000000E+00 0. -1.
         11    1    1    2    0    0  0.34719143313E+01 -0.65682781752E+02  0.18780549191E+01  0.65801284927E+02  0.00000000000E+00 0.  1.
</event>
<event>
 7    1  0.2641580E-009  0.1164235E+03  0.7561462E-02  0.1249117E+00
         -2   -1    0    0    0  501 -0.00000000000E+00  0.00000000000E+00  0.74623532444E+02  0.74623532444E+02  0.00000000000E+00 0.  1.
          2   -1    0    0  501    0  0.00000000000E+00 -0.00000000000E+00 -0.22704053142E+03  0.22704053142E+03  0.00000000000E+00 0. -1.
         25    2    1    2    0    0  0.76829745987E+01  0.62115701620E+02 -0.12309703022E+03  0.18632905648E+03  0.12509296525E+03 0.  0.
          5    1    3    3  502    0  0.37388136870E+02  0.80875194610E+02 -0.12174349288E+03  0.15092256405E+03  0.41800000000E+01 0. -1.
         -5    1    3    3    0  502 -0.29705162271E+02 -0.18759492990E+02 -0.13535373398E+01  0.35406492429E+02  0.41800000000E+01 0. -1.
        -11    1    1    2    0    0  0.79746139697E+01  0.21639941167E+02  0.47896242133E+01  0.23554660299E+02  0.00000000000E+00 0.  1.
         11    1    1    2    0    0 -0.15657588568E+02 -0.83755642788E+02 -0.34109592973E+02  0.91780347087E+02  0.00000000000E+00 0. -1.
</event>
<event>
 7    1  0.2641580E-009  0.9404258E+02  0.7561462E-02  0.1293347E+00
          1   -1    0    0  501    0  0.00000000000E+00  0.00000000000E+00  0.51299040090E+03  0.51299040090E+03  0.00000000000E+00 0. -1.
         -1   -1    0    0    0  501 -0.00000000000E+00 -0.00000000000E+00 -0.35267123582E+02  0.35267123582E+02  0.00000000000E+00 0.  1.
         25    2    1    2    0    0 -0.73232790061E+02 -0.30111345577E+02  0.28636583179E+03  0.32236599271E+03  0.12507881102E+03 0.  0.
          5    1    3    3  502    0  0.81316514529E+01 -0.65549159373E+01  0.20344444236E+03  0.20375525565E+03  0.41800000000E+01 0. -1.
         -5    1    3    3    0  502 -0.81364441514E+02 -0.23556429639E+02  0.82921389430E+02  0.11861073706E+03  0.41800000000E+01 0. -1.
        -11    1    1    2    0    0  0.37512517722E+02  0.40124828883E+02  0.34859322362E+02  0.65056615607E+02  0.00000000000E+00 0.  1.
         11    1    1    2    0    0  0.35720272338E+02 -0.10013483306E+02  0.15649812317E+03  0.16083491617E+03  0.00000000000E+00 0. -1.
</event>
<event>
 7    1  0.2641580E-009  0.1435519E+03  0.7561462E-02  0.1208628E+00
         -2   -1    0    0    0  501 -0.00000000000E+00  0.00000000000E+00  0.39466195955E+03  0.39466195955E+03  0.00000000000E+00 0.  1.
          2   -1    0    0  501    0  0.00000000000E+00 -0.00000000000E+00 -0.65214211775E+02  0.65214211775E+02  0.00000000000E+00 0. -1.
         25    2    1    2    0    0  0.11173143354E+03 -0.57570279391E+02  0.20180444560E+03  0.26864738842E+03  0.12509250469E+03 0.  0.
          5    1    3    3  502    0  0.24175929840E+02 -0.51578606664E+02  0.10419943680E+02  0.58059244529E+02  0.41800000000E+01 0.  1.
         -5    1    3    3    0  502  0.87555503698E+02 -0.59916727266E+01  0.19138450192E+03  0.21058814389E+03  0.41800000000E+01 0.  1.
        -11    1    1    2    0    0 -0.61028446432E+02  0.66920645085E+02  0.86882361975E+02  0.12550453711E+03  0.00000000000E+00 0.  1.
         11    1    1    2    0    0 -0.50702987106E+02 -0.93503656940E+01  0.40760940196E+02  0.65724245798E+02  0.00000000000E+00 0. -1.
</event>
<event>
 7    1  0.2641580E-009  0.2060705E+03  0.7561462E-02  0.1144716E+00
         -1   -1    0    0    0  501 -0.00000000000E+00  0.00000000000E+00  0.77308405462E+03  0.77308405462E+03  0.00000000000E+00 0.  1.
          1   -1    0    0  501    0  0.00000000000E+00 -0.00000000000E+00 -0.70798913629E+02  0.70798913629E+02  0.00000000000E+00 0. -1.
         25    2    1    2    0    0  0.11481904419E+03 -0.16684012054E+03  0.28813214658E+03  0.37374530491E+03  0.12508549204E+03 0.  0.
          5    1    3    3  502    0  0.87772709798E+02 -0.81106533732E+02  0.24776042246E+03  0.27510910152E+03  0.41800000000E+01 0. -1.
         -5    1    3    3    0  502  0.27046334387E+02 -0.85733586813E+02  0.40371724115E+02  0.98636203392E+02  0.41800000000E+01 0. -1.
        -11    1    1    2    0    0 -0.29360858057E+02  0.45476232389E+02  0.21526681201E+03  0.22196834921E+03  0.00000000000E+00 0. -1.
         11    1    1    2    0    0 -0.85458186128E+02  0.12136388816E+03  0.19888618241E+03  0.24816931413E+03  0.00000000000E+00 0.  1.
</event>
<event>
 7    1  0.2641580E-009  0.1028189E+03  0.7561462E-02  0.1274477E+00
          3   -1    0    0  501    0  0.00000000000E+00  0.00000000000E+00  0.10238042229E+03  0.10238042229E+03  0.00000000000E+00 0. -1.
         -3   -1    0    0    0  501 -0.00000000000E+00 -0.00000000000E+00 -0.15721571781E+03  0.15721571781E+03  0.00000000000E+00 0.  1.
         25    2    1    2    0    0 -0.23219007227E+02 -0.33819412448E+02  0.15047698813E+02  0.13248261523E+03  0.12506932136E+03 0.  0.
          5    1    3    3  502    0  0.10430127043E+02 -0.74964573132E+02  0.21461487986E+02  0.78781613601E+02  0.41800000000E+01 0. -1.
         -5    1    3    3    0  502 -0.33649134270E+02  0.41145160685E+02 -0.64137891722E+01  0.53701001633E+02  0.41800000000E+01 0. -1.
        -11    1    1    2    0    0  0.20461522706E+01 -0.19262252765E+02  0.15197869447E+02  0.24621055144E+02  0.00000000000E+00 0. -1.
         11    1    1    2    0    0  0.21172854957E+02  0.53081665213E+02 -0.85080863778E+02  0.10249246972E+03  0.00000000000E+00 0.  1.
</event>
<event>
 7    1  0.2641580E-009  0.1032757E+03  0.7561462E-02  0.1273555E+00
          2   -1    0    0  501    0  0.00000000000E+00  0.00000000000E+00  0.60847896808E+02  0.60847896808E+02  0.00000000000E+00 0. -1.
         -2   -1    0    0    0  501 -0.00000000000E+00 -0.00000000000E+00 -0.23723233933E+03  0.23723233933E+03  0.00000000000E+00 0.  1.
         25    2    1    2    0    0  0.34954214963E+02  0.30272409697E+02 -0.12652438193E+03  0.18383164538E+03  0.12508972255E+03 0.  0.
          5    1    3    3  502    0 -0.31967397663E+02 -0.40935734763E+01  0.43798680925E+01  0.32792186594E+02  0.41800000000E+01 0.  1.
         -5    1    3    3    0  502  0.66921612625E+02  0.34365983174E+02 -0.13090425003E+03  0.15103945879E+03  0.41800000000E+01 0.  1.
        -11    1    1    2    0    0  0.12028993472E+00 -0.55501410679E+02 -0.11959750658E+02  0.56775493770E+02  0.00000000000E+00 0.  1.
         11    1    1    2    0    0 -0.35074504897E+02  0.25229000982E+02 -0.37900309928E+02  0.57473096984E+02  0.00000000000E+00 0. -1.
</event>
<event>
 7    1  0.3543067E-009  0.1678331E+03  0.7561462E-02  0.1180127E+00
         -2   -1    0    0    0  501 -0.00000000000E+00  0.00000000000E+00  0.14154507529E+02  0.14154507529E+02  0.00000000000E+00 0.  1.
          2   -1    0    0  501    0  0.00000000000E+00 -0.00000000000E+00 -0.25712452188E+04  0.25712452188E+04  0.00000000000E+00 0. -1.
         25    2    1    2    0    0 -0.11349984580E+03  0.84725424168E+02 -0.17961637538E+04  0.18060768054E+04  0.12509430158E+03 0.  0.
          5    1    3    3  502    0  0.84292775122E+01 -0.19087533304E+02 -0.43482495173E+03  0.43534537748E+03  0.41800000000E+01 0.  1.
         -5    1    3    3    0  502 -0.12192912331E+03  0.10381295747E+03 -0.13613388021E+04  0.13707314280E+04  0.41800000000E+01 0.  1.
        -11    1    1    2    0    0  0.38889547341E+02  0.30315638426E+01 -0.83364971718E+02  0.92039696768E+02  0.00000000000E+00 0.  1.
         11    1    1    2    0    0  0.74610298455E+02 -0.87756988011E+02 -0.67756198576E+03  0.68728322410E+03  0.00000000000E+00 0. -1.
</event>
<event>
 7    1  0.2641580E-009  0.1862560E+03  0.7561462E-02  0.1161882E+00
         -2   -1    0    0    0  501 -0.00000000000E+00  0.00000000000E+00  0.29914950762E+02  0.29914950762E+02  0.00000000000E+00 0. -1.
          2   -1    0    0  501    0  0.00000000000E+00 -0.00000000000E+00 -0.12494446335E+04  0.12494446335E+04  0.00000000000E+00 0.  1.
         25    2    1    2    0    0 -0.57814867785E+02  0.14944316307E+03 -0.67743331965E+03  0.70727439930E+03  0.12508139513E+03 0.  0.
          5    1    3    3  502    0 -0.39122431095E+02 -0.22782893844E+00 -0.60594291197E+02  0.72247886104E+02  0.41800000000E+01 0.  1.
         -5    1    3    3    0  502 -0.18692436690E+02  0.14967099201E+03 -0.61683902846E+03  0.63502651320E+03  0.41800000000E+01 0.  1.
        -11    1    1    2    0    0 -0.23107436337E+02 -0.39476629862E+02 -0.11813331762E+03  0.12668006414E+03  0.00000000000E+00 0. -1.
         11    1    1    2    0    0  0.80922304123E+02 -0.10996653321E+03 -0.42396304549E+03  0.44540512084E+03  0.00000000000E+00 0.  1.
</event>
<event>
 7    1  0.2641580E-009  0.7740944E+02  0.7561462E-02  0.1336568E+00
         -2   -1    0    0    0  501 -0.00000000000E+00  0.00000000000E+00  0.52444109507E+02  0.52444109507E+02  0.00000000000E+00 0.  1.
          2   -1    0    0  501    0  0.00000000000E+00 -0.00000000000E+00 -0.66196203191E+03  0.66196203191E+03  0.00000000000E+00 0. -1.
         25    2    1    2    0    0  0.23804210769E+02  0.46430565734E+02 -0.59444202614E+03  0.60969786283E+03  0.12509086142E+03 0.  0.
          5    1    3    3  502    0 -0.19046341764E+02  0.42371707200E+01 -0.47943171880E+03  0.47984681112E+03  0.41800000000E+01 0.  1.
         -5    1    3    3    0  502  0.42850552533E+02  0.42193395014E+02 -0.11501030734E+03  0.12985105171E+03  0.41800000000E+01 0.  1.
        -11    1    1    2    0    0 -0.73479528247E+00 -0.51049581126E+02  0.26058702139E+02  0.57320638643E+02  0.00000000000E+00 0.  1.
         11    1    1    2    0    0 -0.23069415487E+02  0.46190153917E+01 -0.41134598407E+02  0.47387639951E+02  0.00000000000E+00 0. -1.
</event>
<event>
 7    1  0.2641580E-009  0.1254590E+03  0.7561462E-02  0.1234354E+00
         -2   -1    0    0    0  501 -0.00000000000E+00  0.00000000000E+00  0.33781502108E+02  0.33781502108E+02  0.00000000000E+00 0.  1.
          2   -1    0    0  501    0  0.00000000000E+00 -0.00000000000E+00 -0.70972872966E+03  0.70972872966E+03  0.00000000000E+00 0. -1.
         25    2    1    2    0    0  0.63265945580E+02  0.86622991545E+02 -0.30476826762E+03  0.34646301021E+03  0.12508716146E+03 0.  0.
          5    1    3    3  502    0  0.67541294023E+02  0.89073114839E+02 -0.12970121372E+03  0.17127674514E+03  0.41800000000E+01 0. -1.
         -5    1    3    3    0  502 -0.42753484432E+01 -0.24501232940E+01 -0.17506705390E+03  0.17518626507E+03  0.41800000000E+01 0. -1.
        -11    1    1    2    0    0  0.78039006308E+00 -0.64986187391E+02 -0.11495126758E+03  0.13205153342E+03  0.00000000000E+00 0.  1.
         11    1    1    2    0    0 -0.64046335643E+02 -0.21636804154E+02 -0.25622769235E+03  0.26499568813E+03  0.00000000000E+00 0. -1.
</event>
<event>
 7    1  0.2641580E-009  0.1295243E+03  0.7561462E-02  0.1228163E+00
         -1   -1    0    0    0  501 -0.00000000000E+00  0.00000000000E+00  0.13757493085E+03  0.13757493085E+03  0.00000000000E+00 0.  1.
          1   -1    0    0  501    0  0.00000000000E+00 -0.00000000000E+00 -0.19185923321E+03  0.19185923321E+03  0.00000000000E+00 0. -1.
         25    2    1    2    0    0 -0.10334431127E+03 -0.38196650231E+02 -0.78391834414E+02  0.18420840036E+03  0.12509366211E+03 0.  0.
          5    1    3    3  502    0 -0.86335904238E+02 -0.15348237537E+02  0.12674958138E+02  0.88699400899E+02  0.41800000000E+01 0.  1.
         -5    1    3    3    0  502 -0.17008407034E+02 -0.22848412694E+02 -0.91066792553E+02  0.95508999462E+02  0.41800000000E+01 0.  1.
        -11    1    1    2    0    0  0.10760341480E+03  0.57982632123E+02  0.15417219581E+02  0.12319972063E+03  0.00000000000E+00 0. -1.
         11    1    1    2    0    0 -0.42591035273E+01 -0.19785981892E+02  0.86903124660E+01  0.22026043064E+02  0.00000000000E+00 0.  1.
</event>
<event>
 7    1  0.2641580E-009  0.1378228E+03  0.7561462E-02  0.1216289E+00
         -1   -1    0    0    0  501 -0.00000000000E+00  0.00000000000E+00  0.30722334093E+02  0.30722334093E+02  0.00000000000E+00 0.  1.
          1   -1    0    0  501    0  0.00000000000E+00 -0.00000000000E+00 -0.62692654580E+03  0.62692654580E+03  0.00000000000E+00 0. -1.
         25    2    1    2    0    0  0.66101159979E+02  0.60603894202E+02 -0.32241434418E+03  0.35726799485E+03  0.12508883031E+03 0.  0.
          5    1    3    3  502    0 -0.37404002770E+02  0.12234109714E+02 -0.80941120631E+02  0.90098114702E+02  0.41800000000E+01 0. -1.
         -5    1    3    3    0  502  0.10350516275E+03  0.48369784487E+02 -0.24147322355E+03  0.26716988015E+03  0.41800000000E+01 0. -1.
        -11    1    1    2    0    0 -0.77259064943E+02 -0.72134160439E+02 -0.21709331246E+03  0.24145767028E+03  0.00000000000E+00 0.  1.
         11    1    1    2    0    0  0.11157904964E+02  0.11530266237E+02 -0.56696555063E+02  0.58923214769E+02  0.00000000000E+00 0. -1.
</event>
<event>
 7    1  0.2641580E-009  0.9476230E+02  0.7561462E-02  0.1291712E+00
         -2   -1    0    0    0  501 -0.00000000000E+00  0.00000000000E+00  0.13355906997E+03  0.13355906997E+03  0.00000000000E+00 0.  1.
          2   -1    0    0  501    0  0.00000000000E+00 -0.00000000000E+00 -0.11931730561E+03  0.11931730561E+03  0.00000000000E+00 0. -1.
         25    2    1    2    0    0 -0.13792939300E+01 -0.42067471377E+01 -0.57220964372E+02  0.13762823567E+03  0.12509074033E+03 0.  0.
          5    1    3    3  502    0 -0.54372328921E+01  0.47859429892E+02  0.12953772865E+02  0.50053582914E+02  0.41800000000E+01 0.  1.
         -5    1    3    3    0  502  0.40579389621E+01 -0.52066177030E+02 -0.70174737237E+02  0.87574652756E+02  0.41800000000E+01 0.  1.
        -11    1    1    2    0    0  0.43640274002E+02  0.13169788128E+02  0.25761948806E+02  0.52360241029E+02  0.00000000000E+00 0. -1.
         11    1    1    2    0    0 -0.42260980072E+02 -0.89630409903E+01  0.45700779919E+02  0.62887898881E+02  0.00000000000E+00 0.  1.
</event>
<event>
 7    1  0.2641580E-009  0.9800715E+02  0.7561462E-02  0.1284543E+00
         -1   -1    0    0    0  501 -0.00000000000E+00  0.00000000000E+00  0.45477649780E+02  0.45477649780E+02  0.00000000000E+00 0.  1.
          1   -1    0    0  501    0  0.00000000000E+00 -0.00000000000E+00 -0.26485350122E+03  0.26485350122E+03  0.00000000000E+00 0. -1.
         25    2    1    2    0    0 -0.26445640492E-01 -0.17714085674E+02 -0.13203836001E+03  0.18273967149E+03  0.12508345011E+03 0.  0.
          5    1    3    3  502    0 -0.52850365824E+02 -0.27971876739E+01 -0.17909927042E+02  0.56028772191E+02  0.41800000000E+01 0.  1.
         -5    1    3    3    0  502  0.52823920184E+02 -0.14916898000E+02 -0.11412843297E+03  0.12671089930E+03  0.41800000000E+01 0.  1.
        -11    1    1    2    0    0 -0.42952190503E+02  0.11375066752E+02 -0.23198582126E+02  0.50124415461E+02  0.00000000000E+00 0.  1.
         11    1    1    2    0    0  0.42978636143E+02  0.63390189220E+01 -0.64138909304E+02  0.77467064048E+02  0.00000000000E+00 0. -1.
</event>
<event>
 7    1  0.2641580E-009  0.1200845E+03  0.7561462E-02  0.1242958E+00
          2   -1    0    0  501    0  0.00000000000E+00  0.00000000000E+00  0.15348447312E+03  0.15348447312E+03  0.00000000000E+00 0. -1.
         -2   -1    0    0    0  501 -0.00000000000E+00 -0.00000000000E+00 -0.10971035570E+03  0.10971035570E+03  0.00000000000E+00 0.  1.
         25    2    1    2    0    0  0.45608593739E+02 -0.25326485515E+02 -0.23771067167E+02  0.13759815870E+03  0.12508642992E+03 0.  0.
          5    1    3    3  502    0  0.21634138527E+02 -0.75777584424E+02 -0.75154022482E+01  0.79273147546E+02  0.41800000000E+01 0. -1.
         -5    1    3    3    0  502  0.23974455212E+02  0.50451098909E+02 -0.16255664919E+02  0.58325011151E+02  0.41800000000E+01 0. -1.
        -11    1    1    2    0    0  0.19770784966E+02  0.33956217380E+02  0.18607493939E+02  0.43475826244E+02  0.00000000000E+00 0.  1.
         11    1    1    2    0    0 -0.65379378705E+02 -0.86297318650E+01  0.48937690649E+02  0.82120843871E+02  0.00000000000E+00 0. -1.
</event>
<event>
 7    1  0.2641580E-009  0.1238980E+03  0.7561462E-02  0.1236802E+00
          1   -1    0    0  501    0  0.00000000000E+00  0.00000000000E+00  0.64379714832E+02  0.64379714832E+02  0.00000000000E+00 0. -1.
         -1   -1    0    0    0  501 -0.00000000000E+00 -0.00000000000E+00 -0.37018208438E+03  0.37018208438E+03  0.00000000000E+00 0.  1.
         25    2    1    2    0    0  0.55017015582E+02 -0.86702850983E+02 -0.21779644730E+03  0.27134188441E+03  0.12508744705E+03 0.  0.
          5    1    3    3  502    0  0.12026378748E+02 -0.79584345206E+02 -0.21247028893E+03  0.22724303701E+03  0.41800000000E+01 0. -1.
         -5    1    3    3    0  502  0.42990636834E+02 -0.71185057765E+01 -0.53261583635E+01  0.44098847408E+02  0.41800000000E+01 0. -1.
        -11    1    1    2    0    0  0.16043482330E+02  0.22644714471E+02 -0.55718069428E+02  0.62246925061E+02  0.00000000000E+00 0.  1.
         11    1    1    2    0    0 -0.71060497912E+02  0.64058136511E+02 -0.32287852825E+02  0.10097298974E+03  0.00000000000E+00 0. -1.
</event>
<event>
 7    1  0.2641580E-009  0.9704634E+02  0.7561462E-02  0.1286633E+00
          1   -1    0    0  501    0  0.00000000000E+00  0.00000000000E+00  0.16024088508E+03  0.16024088508E+03  0.00000000000E+00 0. -1.
         -1   -1    0    0    0  501 -0.00000000000E+00 -0.00000000000E+00 -0.11188491449E+03  0.11188491449E+03  0.00000000000E+00 0.  1.
         25    2    1    2    0    0  0.29651369531E+02 -0.34904961901E+02 -0.37569268298E+02  0.13840540398E+03  0.12508815232E+03 0.  0.
          5    1    3    3  502    0  0.33969059620E+01 -0.77866240525E+02 -0.40237030477E+02  0.87813332731E+02  0.41800000000E+01 0. -1.
         -5    1    3    3    0  502  0.26254463569E+02  0.42961278624E+02  0.26677621789E+01  0.50592071250E+02  0.41800000000E+01 0. -1.
        -11    1    1    2    0    0  0.10022063108E+02  0.21364217051E+02 -0.12525498410E+02  0.26716280234E+02  0.00000000000E+00 0. -1.
         11    1    1    2    0    0 -0.39673432639E+02  0.13540744851E+02  0.98450737298E+02  0.10700411536E+03  0.00000000000E+00 0.  1.
</event>
<event>
 7    1  0.2641580E-009  0.1377776E+03  0.7561462E-02  0.1216351E+00
          1   -1    0    0  501    0  0.00000000000E+00  0.00000000000E+00  0.36226522039E+03  0.36226522039E+03  0.00000000000E+00 0. -1.
         -1   -1    0    0    0  501 -0.00000000000E+00 -0.00000000000E+00 -0.81358222475E+02  0.81358222475E+02  0.00000000000E+00 0.  1.
         25    2    1    2    0    0 -0.98220660090E+02  0.26565719023E+02  0.37225301843E+02  0.16548956862E+03  0.12509212097E+03 0.  0.
          5    1    3    3  502    0  0.22081913994E+02  0.31732990384E+02  0.20161293940E+02  0.43801184660E+02  0.41800000000E+01 0. -1.
         -5    1    3    3    0  502 -0.12030257408E+03 -0.51672713610E+01  0.17064007903E+02  0.12168838396E+03  0.41800000000E+01 0. -1.
        -11    1    1    2    0    0  0.51892856308E+02 -0.42621643894E+02  0.67332722480E+02  0.95095576030E+02  0.00000000000E+00 0.  1.
         11    1    1    2    0    0  0.46327803782E+02  0.16055924871E+02  0.17634897359E+03  0.18303829821E+03  0.00000000000E+00 0. -1.
</event>
<event>
 7    1  0.2641580E-009  0.8265908E+02  0.7561462E-02  0.1321670E+00
          2   -1    0    0  501    0  0.00000000000E+00  0.00000000000E+00  0.81964231922E+03  0.81964231922E+03  0.00000000000E+00 0. -1.
         -2   -1    0    0    0  501 -0.00000000000E+00 -0.00000000000E+00 -0.15252430978E+02  0.15252430978E+02  0.00000000000E+00 0.  1.
         25    2    1    2    0    0  0.33240514525E+01  0.27667948785E+02  0.44921770379E+03  0.46714005510E+03  0.12508685371E+03 0.  0.
          5    1    3    3  502    0 -0.33157474516E+02  0.33029400870E+02  0.60249886136E+02  0.76406024747E+02  0.41800000000E+01 0.  1.
         -5    1    3    3    0  502  0.36481525969E+02 -0.53614520858E+01  0.38896781765E+03  0.39073403035E+03  0.41800000000E+01 0.  1.
        -11    1    1    2    0    0  0.22372651885E+02  0.18070126076E+02  0.46638164414E+02  0.54792183646E+02  0.00000000000E+00 0.  1.
         11    1    1    2    0    0 -0.25696703337E+02 -0.45738074860E+02  0.30853402004E+03  0.31296251145E+03  0.00000000000E+00 0. -1.
</event>
<event>
 7    1  0.2641580E-009  0.2493737E+03  0.7561462E-02  0.1113701E+00
         -1   -1    0    0    0  501 -0.00000000000E+00  0.00000000000E+00  0.68281474645E+02  0.68281474645E+02  0.00000000000E+00 0.  1.
          1   -1    0    0  501    0  0.00000000000E+00 -0.00000000000E+00 -0.10354392119E+04  0.10354392119E+04  0.00000000000E+00 0. -1.
         25    2    1    2    0    0  0.34759938419E+01  0.23722397602E+03 -0.61012334655E+03  0.66647254263E+03  0.12509138556E+03 0.  0.
          5    1    3    3  502    0  0.50964877349E+02  0.16884402182E+03 -0.48533202377E+03  0.51640136341E+03  0.41800000000E+01 0. -1.
         -5    1    3    3    0  502 -0.47488883507E+02  0.68379954195E+02 -0.12479132278E+03  0.15007117922E+03  0.41800000000E+01 0. -1.
        -11    1    1    2    0    0 -0.11919981995E+02 -0.44670118946E+02 -0.23099564182E+02  0.51682640826E+02  0.00000000000E+00 0. -1.
         11    1    1    2    0    0  0.84439881527E+01 -0.19255385707E+03 -0.33393482653E+03  0.38556550310E+03  0.00000000000E+00 0.  1.
</event>
<event>
 7    1  0.2641580E-009  0.1463033E+03  0.7561462E-02  0.1205090E+00
         -1   -1    0    0    0  501 -0.00000000000E+00  0.00000000000E+00  0.38582721399E+02  0.38582721399E+02  0.00000000000E+00 0.  1.
          1   -1    0    0  501    0  0.00000000000E+00 -0.00000000000E+00 -0.64950718550E+03  0.64950718550E+03  0.00000000000E+00 0. -1.
         25    2    1    2    0    0  0.60648858056E+02 -0.95616983536E+02 -0.35737892123E+03  0.39520578655E+03  0.12508808440E+03 0.  0.
          5    1    3    3  502    0 -0.38198550642E+02 -0.15777395086E+02 -0.83820341250E+02  0.93548797288E+02  0.41800000000E+01 0.  1.
         -5    1    3    3    0  502  0.98847408697E+02 -0.79839588450E+02 -0.27355857998E+03  0.30165698926E+03  0.41800000000E+01 0.  1.
        -11    1    1    2    0    0  0.59884676590E+01  0.29357884471E+02 -0.95973112841E+01  0.31461969255E+02  0.00000000000E+00 0.  1.
         11    1    1    2    0    0 -0.66637325715E+02  0.66259099065E+02 -0.24394823159E+03  0.26142215109E+03  0.00000000000E+00 0. -1.
</event>
<event>
 7    1  0.2641580E-009  0.2045069E+03  0.7561462E-02  0.1145991E+00
          2   -1    0    0  501    0  0.00000000000E+00  0.00000000000E+00  0.99158352828E+03  0.99158352828E+03  0.00000000000E+00 0. -1.
         -2   -1    0    0    0  501 -0.00000000000E+00 -0.00000000000E+00 -0.47504901394E+02  0.47504901394E+02  0.00000000000E+00 0.  1.
         25    2    1    2    0    0  0.15645556741E+03  0.97565247048E+02  0.57599791647E+03  0.61759138618E+03  0.12509275956E+03 0.  0.
          5    1    3    3  502    0 -0.87955335046E+01 -0.29923280820E+01  0.23867822151E+00  0.10190427090E+02  0.41800000000E+01 0. -1.
         -5    1    3    3    0  502  0.16525110091E+03  0.10055757513E+03  0.57575923825E+03  0.60740095909E+03  0.41800000000E+01 0. -1.
        -11    1    1    2    0    0 -0.36629389711E+02 -0.74915817472E+02  0.15300924560E+03  0.17425820250E+03  0.00000000000E+00 0. -1.
         11    1    1    2    0    0 -0.11982617770E+03 -0.22649429576E+02  0.21507146481E+03  0.24723884100E+03  0.00000000000E+00 0.  1.
</event>
<event>
 7    1  0.2641580E-009  0.1057823E+03  0.7561462E-02  0.1268586E+00
         -2   -1    0    0    0  501 -0.00000000000E+00  0.00000000000E+00  0.28579915861E+03  0.28579915861E+03  0.00000000000E+00 0.  1.
          2   -1    0    0  501    0  0.00000000000E+00 -0.00000000000E+00 -0.55845857719E+02  0.55845857719E+02  0.00000000000E+00 0. -1.
         25    2    1    2    0    0 -0.76635931895E+01  0.48720392059E+02  0.18655820368E+03  0.22997041505E+03  0.12510004466E+03 0.  0.
          5    1    3    3  502    0  0.43738648915E+01 -0.30623618808E+02  0.52536503894E+01  0.31654540992E+02  0.41800000000E+01 0.  1.
         -5    1    3    3    0  502 -0.12037458081E+02  0.79344010867E+02  0.18130455329E+03  0.19831587405E+03  0.41800000000E+01 0.  1.
        -11    1    1    2    0    0 -0.20338643909E+02  0.18295955253E+02  0.24261388506E+02  0.36565248350E+02  0.00000000000E+00 0.  1.
         11    1    1    2    0    0  0.28002237099E+02 -0.67016347312E+02  0.19133708707E+02  0.75109352936E+02  0.00000000000E+00 0. -1.
</event>
<event>
 7    1  0.2641580E-009  0.1150629E+03  0.7561462E-02  0.1251471E+00
         -2   -1    0    0    0  501 -0.00000000000E+00  0.00000000000E+00  0.16585808170E+03  0.16585808170E+03  0.00000000000E+00 0.  1.
          2   -1    0    0  501    0  0.00000000000E+00 -0.00000000000E+00 -0.87296211531E+02  0.87296211531E+02  0.00000000000E+00 0. -1.
         25    2    1    2    0    0 -0.41086448292E+02  0.34692860771E+02  0.33637668867E+02  0.14025339425E+03  0.12509129070E+03 0.  0.
          5    1    3    3  502    0 -0.44177735029E+02  0.75672339343E+02  0.12006608272E+01  0.87731916657E+02  0.41800000000E+01 0.  1.
         -5    1    3    3    0  502  0.30912867370E+01 -0.40979478572E+02  0.32437008040E+02  0.52521477591E+02  0.41800000000E+01 0.  1.
        -11    1    1    2    0    0  0.37769418998E+02 -0.62534565738E+02  0.43057889970E+02  0.84800252430E+02  0.00000000000E+00 0.  1.
         11    1    1    2    0    0  0.33170292931E+01  0.27841704967E+02  0.18663113318E+01  0.28100646554E+02  0.00000000000E+00 0. -1.
</event>
<event>
 7    1  0.2641580E-009  0.1836498E+03  0.7561462E-02  0.1164317E+00
         -2   -1    0    0    0  501 -0.00000000000E+00  0.00000000000E+00  0.13173535408E+03  0.13173535408E+03  0.00000000000E+00 0. -1.
          2   -1    0    0  501    0  0.00000000000E+00 -0.00000000000E+00 -0.39426843107E+03  0.39426843107E+03  0.00000000000E+00 0.  1.
         25    2    1    2    0    0 -0.13594468921E+03  0.86067325611E+02 -0.27352944913E+03  0.34111410204E+03  0.12510766567E+03 0.  0.
          5    1    3    3  502    0 -0.65669646278E+02  0.93176887608E+02 -0.92876598082E+02  0.14709850338E+03  0.41800000000E+01 0.  1.
         -5    1    3    3    0  502 -0.70275042934E+02 -0.71095619964E+01 -0.18065285105E+03  0.19401559866E+03  0.41800000000E+01 0.  1.
        -11    1    1    2    0    0  0.71055080619E+02 -0.93194955862E+02  0.20339369186E+02  0.11894458466E+03  0.00000000000E+00 0. -1.
         11    1    1    2    0    0  0.64889608593E+02  0.71276302511E+01 -0.93429970470E+01  0.65945098455E+02  0.00000000000E+00 0.  1.
</event>
<event>
 7    1  0.2641580E-009  0.1114713E+03  0.7561462E-02  0.1257869E+00
         -3   -1    0    0    0  501 -0.00000000000E+00  0.00000000000E+00  0.21834533951E+02  0.21834533951E+02  0.00000000000E+00 0.  1.
          3   -1    0    0  501    0  0.00000000000E+00 -0.00000000000E+00 -0.58127678402E+03  0.58127678402E+03  0.00000000000E+00 0. -1.
         25    2    1    2    0    0 -0.18467220235E+02  0.23921350481E+02 -0.34155356524E+03  0.36499362105E+03  0.12509291043E+03 0.  0.
          5    1    3    3  502    0 -0.29704519604E+02 -0.46586142570E+02 -0.17956084254E+03  0.18791539516E+03  0.41800000000E+01 0. -1.
         -5    1    3    3    0  502  0.11237299369E+02  0.70507493051E+02 -0.16199272270E+03  0.17707822588E+03  0.41800000000E+01 0. -1.
        -11    1    1    2    0    0  0.20472549783E+02  0.33120731011E+02 -0.91296919998E+02  0.99253391471E+02  0.00000000000E+00 0.  1.
         11    1    1    2    0    0 -0.20053295481E+01 -0.57042081491E+02 -0.12659176483E+03  0.13886430546E+03  0.00000000000E+00 0. -1.
</event>
<event>
 7    1  0.2641580E-009  0.9402941E+02  0.7561462E-02  0.1293377E+00
          2   -1    0    0  501    0  0.00000000000E+00  0.00000000000E+00  0.15730879159E+04  0.15730879159E+04  0.00000000000E+00 0. -1.
         -2   -1    0    0    0  501 -0.00000000000E+00 -0.00000000000E+00 -0.96087566592E+01  0.96087566592E+01  0.00000000000E+00 0.  1.
         25    2    1    2    0    0  0.11594384890E+02  0.16005186313E+02  0.12255526631E+04  0.12320782143E+04  0.12508717102E+03 0.  0.
          5    1    3    3  502    0  0.32748004497E+02 -0.29598345900E+02  0.18259320719E+03  0.18789956250E+03  0.41800000000E+01 0. -1.
         -5    1    3    3    0  502 -0.21153619608E+02  0.45603532213E+02  0.10429594559E+04  0.10441786518E+04  0.41800000000E+01 0. -1.
        -11    1    1    2    0    0  0.12645595844E+02 -0.49971411708E+02  0.19827238654E+03  0.20486335042E+03  0.00000000000E+00 0.  1.
         11    1    1    2    0    0 -0.24239980733E+02  0.33966225395E+02  0.13965410958E+03  0.14575510782E+03  0.00000000000E+00 0. -1.
</event>
<event>
 7    1  0.2641580E-009  0.1208020E+03  0.7561462E-02  0.1241780E+00
          1   -1    0    0  501    0  0.00000000000E+00  0.00000000000E+00  0.39178398027E+02  0.39178398027E+02  0.00000000000E+00 0. -1.
         -1   -1    0    0    0  501 -0.00000000000E+00 -0.00000000000E+00 -0.41330324337E+03  0.41330324337E+03  0.00000000000E+00 0.  1.
         25    2    1    2    0    0  0.16470408289E+02  0.59244384173E+02 -0.26246578504E+03  0.29718274406E+03  0.12509246040E+03 0.  0.
          5    1    3    3  502    0 -0.49992248941E+01  0.96204200163E+02 -0.17941015612E+03  0.20368042836E+03  0.41800000000E+01 0. -1.
         -5    1    3    3    0  502  0.21469633183E+02 -0.36959815990E+02 -0.83055628914E+02  0.93502315701E+02  0.41800000000E+01 0. -1.
        -11    1    1    2    0    0 -0.45619919519E+02 -0.12771008641E+02 -0.27316680206E+02  0.54685251542E+02  0.00000000000E+00 0. -1.
         11    1    1    2    0    0  0.29149511230E+02 -0.46473375532E+02 -0.84342380101E+02  0.10061364579E+03  0.00000000000E+00 0.  1.
</event>
<event>
 7    1  0.2641580E-009  0.1057611E+03  0.7561462E-02  0.1268627E+00
         -2   -1    0    0    0  501 -0.00000000000E+00  0.00000000000E+00  0.16679199409E+03  0.16679199409E+03  0.00000000000E+00 0.  1.
          2   -1    0    0  501    0  0.00000000000E+00 -0.00000000000E+00 -0.11061374874E+03  0.11061374874E+03  0.00000000000E+00 0. -1.
         25    2    1    2    0    0  0.16600614549E+02  0.76085354212E+02  0.68811265437E+01  0.14751089605E+03  0.12509017956E+03 0.  0.
          5    1    3    3  502    0  0.47347173784E+02 -0.38067073299E+01  0.32911794368E+02  0.57938799560E+02  0.41800000000E+01 0. -1.
         -5    1    3    3    0  502 -0.30746559235E+02  0.79892061542E+02 -0.26030667824E+02  0.89572096490E+02  0.41800000000E+01 0. -1.
        -11    1    1    2    0    0 -0.10558098066E+02 -0.60542692867E+02  0.76413732675E+02  0.98060948577E+02  0.00000000000E+00 0.  1.
         11    1    1    2    0    0 -0.60425164830E+01 -0.15542661345E+02 -0.27116613868E+02  0.31833898203E+02  0.00000000000E+00 0. -1.
</event>
<event>
 7    1  0.2641580E-009  0.9579794E+02  0.7561462E-02  0.1289389E+00
         -1   -1    0    0    0  501 -0.00000000000E+00  0.00000000000E+00  0.42764291996E+03  0.42764291996E+03  0.00000000000E+00 0.  1.
          1   -1    0    0  501    0  0.00000000000E+00 -0.00000000000E+00 -0.27881799410E+02  0.27881799410E+02  0.00000000000E+00 0. -1.
         25    2    1    2    0    0 -0.17498100764E+02  0.49281219111E+01  0.22536209934E+03  0.25838971095E+03  0.12508675785E+03 0.  0.
          5    1    3    3  502    0 -0.34036602568E+02  0.56993542354E+02  0.86550809309E+02  0.10915708487E+03  0.41800000000E+01 0. -1.
         -5    1    3    3    0  502  0.16538501804E+02 -0.52065420442E+02  0.13881129003E+03  0.14923262609E+03  0.41800000000E+01 0. -1.
        -11    1    1    2    0    0 -0.13830876587E+02 -0.28103862869E+02  0.14493388916E+03  0.14827998004E+03  0.00000000000E+00 0.  1.
         11    1    1    2    0    0  0.31328977351E+02  0.23175740958E+02  0.29465132048E+02  0.48855028374E+02  0.00000000000E+00 0. -1.
</event>
<event>
 7    1  0.2641580E-009  0.1501199E+03  0.7561462E-02  0.1200326E+00
          1   -1    0    0  501    0  0.00000000000E+00  0.00000000000E+00  0.15897185184E+03  0.15897185184E+03  0.00000000000E+00 0. -1.
         -1   -1    0    0    0  501 -0.00000000000E+00 -0.00000000000E+00 -0.18373622191E+03  0.18373622191E+03  0.00000000000E+00 0.  1.
         25    2    1    2    0    0  0.15987626113E+02 -0.12904460835E+03  0.99094480349E+01  0.18070536428E+03  0.12509243137E+03 0.  0.
          5    1    3    3  502    0  0.61854837928E+02 -0.92745153791E+02  0.35002077691E+02  0.11692006829E+03  0.41800000000E+01 0. -1.
         -5    1    3    3    0  502 -0.45867211815E+02 -0.36299454561E+02 -0.25092629656E+02  0.63785295987E+02  0.41800000000E+01 0. -1.
        -11    1    1    2    0    0 -0.12717187757E+02  0.10714630283E+03  0.13736603052E+02  0.10876925732E+03  0.00000000000E+00 0. -1.
         11    1    1    2    0    0 -0.32704383558E+01  0.21898305518E+02 -0.48410421148E+02  0.53233452146E+02  0.00000000000E+00 0.  1.
</event>
<event>
 7    1  0.2641580E-009  0.1032167E+03  0.7561462E-02  0.1273674E+00
         -2   -1    0    0    0  501 -0.00000000000E+00  0.00000000000E+00  0.15405019550E+03  0.15405019550E+03  0.00000000000E+00 0.  1.
          2   -1    0    0  501    0  0.00000000000E+00 -0.00000000000E+00 -0.83811748887E+02  0.83811748887E+02  0.00000000000E+00 0. -1.
         25    2    1    2    0    0 -0.12122248779E+02 -0.19927222279E+02  0.28824078492E+02  0.13046956322E+03  0.12508971310E+03 0.  0.
          5    1    3    3  502    0  0.36484859252E+02 -0.44154584996E+02  0.45754263323E+02  0.73428178127E+02  0.41800000000E+01 0.  1.
         -5    1    3    3    0  502 -0.48607108031E+02  0.24227362717E+02 -0.16930184830E+02  0.57041385097E+02  0.41800000000E+01 0.  1.
        -11    1    1    2    0    0  0.51221899507E+02  0.21141730069E+02  0.39828094520E+02  0.68241723693E+02  0.00000000000E+00 0.  1.
         11    1    1    2    0    0 -0.39099650728E+02 -0.12145077895E+01  0.15862735969E+01  0.39150657468E+02  0.00000000000E+00 0. -1.
</event>
<event>
 7    1  0.2641580E-009  0.7654037E+02  0.7561462E-02  0.1339166E+00
         -2   -1    0    0    0  501 -0.00000000000E+00  0.00000000000E+00  0.43890115347E+02  0.43890115347E+02  0.00000000000E+00 0.  1.
          2   -1    0    0  501    0  0.00000000000E+00 -0.00000000000E+00 -0.45061511210E+03  0.45061511210E+03  0.00000000000E+00 0. -1.
         25    2    1    2    0    0  0.39613468839E+02  0.29641118443E+02 -0.32991567273E+03  0.35628584673E+03  0.12508969043E+03 0.  0.
          5    1    3    3  502    0  0.40645820847E+02  0.38145936997E+02 -0.46503574809E+02  0.72713479711E+02  0.41800000000E+01 0. -1.
         -5    1    3    3    0  502 -0.10323520083E+01 -0.85048185538E+01 -0.28341209792E+03  0.28357236702E+03  0.41800000000E+01 0. -1.
        -11    1    1    2    0    0 -0.28608665285E+02  0.21214875361E+02  0.10014717972E+02  0.36997584273E+02  0.00000000000E+00 0.  1.
         11    1    1    2    0    0 -0.11004803554E+02 -0.50855993804E+02 -0.86824042002E+02  0.10122179645E+03  0.00000000000E+00 0. -1.
</event>
<event>
 7    1  0.2641580E-009  0.7671105E+02  0.7561462E-02  0.1338653E+00
          1   -1    0    0  501    0  0.00000000000E+00  0.00000000000E+00  0.15495509153E+03  0.15495509153E+03  0.00000000000E+00 0. -1.
         -1   -1    0    0    0  501 -0.00000000000E+00 -0.00000000000E+00 -0.99137676603E+02  0.99137676603E+02  0.00000000000E+00 0.  1.
         25    2    1    2    0    0 -0.21955609828E+02  0.27099123995E+02  0.77505551891E+02  0.15123133753E+03  0.12508955013E+03 0.  0.
          5    1    3    3  502    0  0.99470210330E+01  0.20078813305E+02 -0.30636533106E+02  0.38186012255E+02  0.41800000000E+01 0. -1.
         -5    1    3    3    0  502 -0.31902630861E+02  0.70203106901E+01  0.10814208500E+03  0.11304532527E+03  0.41800000000E+01 0. -1.
        -11    1    1    2    0    0 -0.27011566605E+02 -0.38869657371E+02 -0.22686507949E+02  0.52489547889E+02  0.00000000000E+00 0.  1.
         11    1    1    2    0    0  0.48967176433E+02  0.11770533376E+02  0.99837098235E+00  0.50371882717E+02  0.00000000000E+00 0. -1.
</event>
<event>
 7    1  0.2641580E-009  0.1395641E+03  0.7561462E-02  0.1213917E+00
          2   -1    0    0  501    0  0.00000000000E+00  0.00000000000E+00  0.74889890517E+03  0.74889890517E+03  0.00000000000E+00 0. -1.
         -2   -1    0    0    0  501 -0.00000000000E+00 -0.00000000000E+00 -0.38547717143E+02  0.38547717143E+02  0.00000000000E+00 0.  1.
         25    2    1    2    0    0 -0.16399169237E+01  0.11951243910E+03  0.25848202594E+03  0.31103992647E+03  0.12508783193E+03 0.  0.
          5    1    3    3  502    0  0.46296972708E+01 -0.16122446585E+02 -0.18610449279E+01  0.17386870591E+02  0.41800000000E+01 0. -1.
         -5    1    3    3    0  502 -0.62696141945E+01  0.13563488569E+03  0.26034307087E+03  0.29365305588E+03  0.41800000000E+01 0. -1.
        -11    1    1    2    0    0  0.15134908492E+02 -0.17675098616E+02  0.15147029326E+02  0.27765213191E+02  0.00000000000E+00 0.  1.
         11    1    1    2    0    0 -0.13494991569E+02 -0.10183734049E+03  0.43672213276E+03  0.44864148265E+03  0.00000000000E+00 0. -1.
</event>
<event>
 7    1  0.2641580E-009  0.1813772E+03  0.7561462E-02  0.1166477E+00
          2   -1    0    0  501    0  0.00000000000E+00  0.00000000000E+00  0.18657660968E+03  0.18657660968E+03  0.00000000000E+00 0. -1.
         -2   -1    0    0    0  501 -0.00000000000E+00 -0.00000000000E+00 -0.35113826524E+03  0.35113826524E+03  0.00000000000E+00 0.  1.
         25    2    1    2    0    0  0.15027325192E+03  0.14893006385E+01 -0.26922254535E+03  0.33273283839E+03  0.12508434976E+03 0.  0.
          5    1    3    3  502    0 -0.10529822866E+02 -0.28122047933E+02 -0.59424785649E+02  0.66712100094E+02  0.41800000000E+01 0.  1.
         -5    1    3    3    0  502  0.16080307478E+03  0.29611348572E+02 -0.20979775971E+03  0.26602073829E+03  0.41800000000E+01 0.  1.
        -11    1    1    2    0    0 -0.18406252472E+02  0.28230948251E+02  0.47446662203E+02  0.58197614413E+02  0.00000000000E+00 0.  1.
         11    1    1    2    0    0 -0.13186699945E+03 -0.29720248889E+02  0.57214227596E+02  0.14678442212E+03  0.00000000000E+00 0. -1.
</event>
<event>
 7    1  0.2641580E-009  0.9671123E+02  0.7561462E-02  0.1287368E+00
          3   -1    0    0  501    0  0.00000000000E+00  0.00000000000E+00  0.18640975709E+02  0.18640975709E+02  0.00000000000E+00 0. -1.
         -3   -1    0    0    0  501 -0.00000000000E+00 -0.00000000000E+00 -0.68681678567E+03  0.68681678567E+03  0.00000000000E+00 0.  1.
         25    2    1    2    0    0 -0.22522475116E+02  0.16366200067E+02 -0.32929645109E+03  0.35335547415E+03  0.12509525981E+03 0.  0.
          5    1    3    3  502    0 -0.10021765863E+02  0.56217167496E+02 -0.68842122850E+02  0.89540582926E+02  0.41800000000E+01 0.  1.
         -5    1    3    3    0  502 -0.12500709253E+02 -0.39850967428E+02 -0.26045432824E+03  0.26381489123E+03  0.41800000000E+01 0.  1.
        -11    1    1    2    0    0  0.51574358820E+02  0.12680166610E+02 -0.22017677168E+03  0.22649174798E+03  0.00000000000E+00 0. -1.
         11    1    1    2    0    0 -0.29051883703E+02 -0.29046366678E+02 -0.11870258719E+03  0.12561053925E+03  0.00000000000E+00 0.  1.
</event>
<event>
 7    1  0.2641580E-009  0.9809586E+02  0.7561462E-02  0.1284352E+00
         -1   -1    0    0    0  501 -0.00000000000E+00  0.00000000000E+00  0.23325346548E+02  0.23325346548E+02  0.00000000000E+00 0.  1.
          1   -1    0    0  501    0  0.00000000000E+00 -0.00000000000E+00 -0.71034792077E+03  0.71034792077E+03  0.00000000000E+00 0. -1.
         25    2    1    2    0    0 -0.69408953518E+01  0.22765968026E+02 -0.56948233590E+03  0.58354158307E+03  0.12507670825E+03 0.  0.
          5    1    3    3  502    0  0.53429016679E+02 -0.45568816209E+01 -0.35396992804E+03  0.35803296964E+03  0.41800000000E+01 0. -1.
         -5    1    3    3    0  502 -0.60369912031E+02  0.27322849647E+02 -0.21551240786E+03  0.22550861343E+03  0.41800000000E+01 0. -1.
        -11    1    1    2    0    0  0.13458841798E+02  0.24683432259E+02 -0.60058377596E+01  0.28748605842E+02  0.00000000000E+00 0.  1.
         11    1    1    2    0    0 -0.65179464461E+01 -0.47449400285E+02 -0.11153440057E+03  0.12138307840E+03  0.00000000000E+00 0. -1.
</event>
<event>
 7    1  0.2641580E-009  0.1148070E+03  0.7561462E-02  0.1251918E+00
          2   -1    0    0  501    0  0.00000000000E+00  0.00000000000E+00  0.41241067821E+03  0.41241067821E+03  0.00000000000E+00 0. -1.
         -2   -1    0    0    0  501 -0.00000000000E+00 -0.00000000000E+00 -0.37640823079E+02  0.37640823079E+02  0.00000000000E+00 0.  1.
         25    2    1    2    0    0  0.49850199637E+02 -0.44480723180E+01  0.21162307346E+03  0.25087119620E+03  0.12508878490E+03 0.  0.
          5    1    3    3  502    0 -0.31756842649E+02 -0.11916832473E+02  0.13266745099E+03  0.13699866022E+03  0.41800000000E+01 0.  1.
         -5    1    3    3    0  502  0.81607042287E+02  0.74687601546E+01  0.78955622474E+02  0.11387253597E+03  0.41800000000E+01 0.  1.
        -11    1    1    2    0    0 -0.34728927175E+02  0.52534392875E+02  0.78223611499E+02  0.10042357399E+03  0.00000000000E+00 0.  1.
         11    1    1    2    0    0 -0.15121272462E+02 -0.48086320557E+02  0.84923170174E+02  0.98756731102E+02  0.00000000000E+00 0. -1.
</event>
<event>
 7    1  0.2641580E-009  0.1154469E+03  0.7561462E-02  0.1250803E+00
         -1   -1    0    0    0  501 -0.00000000000E+00  0.00000000000E+00  0.37869281014E+02  0.37869281014E+02  0.00000000000E+00 0.  1.
          1   -1    0    0  501    0  0.00000000000E+00 -0.00000000000E+00 -0.38737785559E+03  0.38737785559E+03  0.00000000000E+00 0. -1.
         25    2    1    2    0    0 -0.66201754765E+02 -0.29059453400E+02 -0.18135837821E+03  0.23187385237E+03  0.12508995923E+03 0.  0.
          5    1    3    3  502    0 -0.80278930755E+02  0.25539899049E+02 -0.82481368201E+02  0.11797305483E+03  0.41800000000E+01 0.  1.
         -5    1    3    3    0  502  0.14077175990E+02 -0.54599352449E+02 -0.98877010008E+02  0.11390079754E+03  0.41800000000E+01 0.  1.
        -11    1    1    2    0    0  0.53953895807E+02  0.44753579858E+02 -0.98251424169E+02  0.12069485546E+03  0.00000000000E+00 0.  1.
         11    1    1    2    0    0  0.12247858958E+02 -0.15694126458E+02 -0.69898772196E+02  0.72678428772E+02  0.00000000000E+00 0. -1.
</event>
<event>
 7    1  0.2641580E-009  0.8816920E+02  0.7561462E-02  0.1307347E+00
         -1   -1    0    0    0  501 -0.00000000000E+00  0.00000000000E+00  0.54108533704E+02  0.54108533704E+02  0.00000000000E+00 0.  1.
          1   -1    0    0  501    0  0.00000000000E+00 -0.00000000000E+00 -0.30520463398E+03  0.30520463398E+03  0.00000000000E+00 0. -1.
         25    2    1    2    0    0  0.35034461899E+02  0.31305174167E+02 -0.21289393199E+03  0.25135145607E+03  0.12508517395E+03 0.  0.
          5    1    3    3  502    0  0.14082706032E+01  0.54437189425E+02 -0.20150058219E+03  0.20877104167E+03  0.41800000000E+01 0. -1.
         -5    1    3    3    0  502  0.33626191295E+02 -0.23132015258E+02 -0.11393349804E+02  0.42580414402E+02  0.41800000000E+01 0. -1.
        -11    1    1    2    0    0 -0.51397294230E+02 -0.76967147448E+01  0.89634020723E+01  0.52737689073E+02  0.00000000000E+00 0.  1.
         11    1    1    2    0    0  0.16362832331E+02 -0.23608459423E+02 -0.47165570355E+02  0.55224022537E+02  0.00000000000E+00 0. -1.
</event>
<event>
 7    1  0.2641580E-009  0.1272831E+03  0.7561462E-02  0.1231544E+00
          1   -1    0    0  501    0  0.00000000000E+00  0.00000000000E+00  0.20115701611E+03  0.20115701611E+03  0.00000000000E+00 0. -1.
         -1   -1    0    0    0  501 -0.00000000000E+00 -0.00000000000E+00 -0.11294945618E+03  0.11294945618E+03  0.00000000000E+00 0.  1.
         25    2    1    2    0    0 -0.56869274652E+02 -0.86783684914E+02  0.62161939455E+02  0.17400320421E+03  0.12508991163E+03 0.  0.
          5    1    3    3  502    0 -0.17818368012E+02  0.33728592024E+01  0.72752554014E+02  0.75095119238E+02  0.41800000000E+01 0.  1.
         -5    1    3    3    0  502 -0.39050906640E+02 -0.90156544117E+02 -0.10590614559E+02  0.98908084974E+02  0.41800000000E+01 0.  1.
        -11    1    1    2    0    0  0.25520631795E+02  0.10028691828E+03  0.18040457996E+02  0.10504392772E+03  0.00000000000E+00 0. -1.
         11    1    1    2    0    0  0.31348642857E+02 -0.13503233366E+02  0.80051624785E+01  0.35059340362E+02  0.00000000000E+00 0.  1.
</event>
<event>
 7    1  0.2641580E-009  0.1030838E+03  0.7561462E-02  0.1273942E+00
          1   -1    0    0  501    0  0.00000000000E+00  0.00000000000E+00  0.19454522879E+03  0.19454522879E+03  0.00000000000E+00 0. -1.
         -1   -1    0    0    0  501 -0.00000000000E+00 -0.00000000000E+00 -0.97791652096E+02  0.97791652096E+02  0.00000000000E+00 0.  1.
         25    2    1    2    0    0 -0.65833111477E+01 -0.53789151156E+01 -0.36741334250E+02  0.13064307138E+03  0.12508162832E+03 0.  0.
          5    1    3    3  502    0 -0.33654847710E+02 -0.53522192228E+02 -0.40376622481E+02  0.75133334002E+02  0.41800000000E+01 0. -1.
         -5    1    3    3    0  502  0.27071536562E+02  0.48143277113E+02  0.36352882310E+01  0.55509737376E+02  0.41800000000E+01 0. -1.
        -11    1    1    2    0    0 -0.35637781088E+02 -0.17160726859E+02  0.83980383240E+02  0.92829126659E+02  0.00000000000E+00 0. -1.
         11    1    1    2    0    0  0.42221092235E+02  0.22539641974E+02  0.49514527700E+02  0.68864682844E+02  0.00000000000E+00 0.  1.
</event>
<event>
 7    1  0.2641580E-009  0.1205110E+03  0.7561462E-02  0.1242256E+00
         -2   -1    0    0    0  501 -0.00000000000E+00  0.00000000000E+00  0.23099966290E+02  0.23099966290E+02  0.00000000000E+00 0.  1.
          2   -1    0    0  501    0  0.00000000000E+00 -0.00000000000E+00 -0.14016182847E+04  0.14016182847E+04  0.00000000000E+00 0. -1.
         25    2    1    2    0    0 -0.74854902013E+02 -0.44274373329E+01 -0.12111141019E+04  0.12198613956E+04  0.12506637480E+03 0.  0.
          5    1    3    3  502    0  0.21386495207E+02 -0.21164520161E+02 -0.10151261368E+03  0.10596038045E+03  0.41800000000E+01 0. -1.
         -5    1    3    3    0  502 -0.96241397219E+02  0.16737082828E+02 -0.11096014882E+04  0.11139010151E+04  0.41800000000E+01 0. -1.
        -11    1    1    2    0    0  0.80872684978E+01  0.37498128936E+02 -0.87846498333E+02  0.95856772608E+02  0.00000000000E+00 0. -1.
         11    1    1    2    0    0  0.66767633515E+02 -0.33070691603E+02 -0.79557718251E+02  0.10900008285E+03  0.00000000000E+00 0.  1.
</event>
<event>
 7    1  0.2641580E-009  0.1363973E+03  0.7561462E-02  0.1218261E+00
          1   -1    0    0  501    0  0.00000000000E+00  0.00000000000E+00  0.26854540170E+03  0.26854540170E+03  0.00000000000E+00 0. -1.
         -1   -1    0    0    0  501 -0.00000000000E+00 -0.00000000000E+00 -0.96478332596E+02  0.96478332596E+02  0.00000000000E+00 0.  1.
         25    2    1    2    0    0  0.74513581476E+02  0.70866982193E+02  0.16562973636E+03  0.23165164823E+03  0.12511943722E+03 0.  0.
          5    1    3    3  502    0 -0.14738112776E+02 -0.12685266710E+02  0.79735548313E+02  0.82178817371E+02  0.41800000000E+01 0.  1.
         -5    1    3    3    0  502  0.89251694252E+02  0.83552248903E+02  0.85894188045E+02  0.14947283085E+03  0.41800000000E+01 0.  1.
        -11    1    1    2    0    0 -0.90540889864E+02 -0.47509911604E+02 -0.60216787492E+01  0.10242609557E+03  0.00000000000E+00 0.  1.
         11    1    1    2    0    0  0.16027308389E+02 -0.23357070589E+02  0.12459011491E+02  0.30945990500E+02  0.00000000000E+00 0. -1.
</event>
<event>
 7    1  0.2641580E-009  0.1039762E+03  0.7561462E-02  0.1272150E+00
         -1   -1    0    0    0  501 -0.00000000000E+00  0.00000000000E+00  0.50429457150E+02  0.50429457150E+02  0.00000000000E+00 0.  1.
          1   -1    0    0  501    0  0.00000000000E+00 -0.00000000000E+00 -0.37045739958E+03  0.37045739958E+03  0.00000000000E+00 0. -1.
         25    2    1    2    0    0 -0.13581242312E+02 -0.76004792981E+02 -0.13438954225E+03  0.19917004267E+03  0.12508788164E+03 0.  0.
          5    1    3    3  502    0  0.36136642331E+02 -0.31578065152E+01  0.21404832104E+01  0.36577079289E+02  0.41800000000E+01 0. -1.
         -5    1    3    3    0  502 -0.49717884642E+02 -0.72846986465E+02 -0.13653002546E+03  0.16259296339E+03  0.41800000000E+01 0. -1.
        -11    1    1    2    0    0 -0.88888009726E+01  0.98086437793E+01  0.82592697877E+01  0.15602429713E+02  0.00000000000E+00 0.  1.
         11    1    1    2    0    0  0.22470043284E+02  0.66196149201E+02 -0.19389766997E+03  0.20611438435E+03  0.00000000000E+00 0. -1.
</event>
<event>
 7    1  0.2641580E-009  0.2567582E+03  0.7561462E-02  0.1109107E+00
         -2   -1    0    0    0  501 -0.00000000000E+00  0.00000000000E+00  0.33212413730E+02  0.33212413730E+02  0.00000000000E+00 0.  1.
          2   -1    0    0  501    0  0.00000000000E+00 -0.00000000000E+00 -0.19982967564E+04  0.19982967564E+04  0.00000000000E+00 0. -1.
         25    2    1    2    0    0  0.17743844110E+03 -0.14977068364E+03 -0.10839437077E+04  0.11155705962E+04  0.12509250783E+03 0.  0.
          5    1    3    3  502    0  0.12933639273E+03 -0.16798899863E+03 -0.85983977054E+03  0.88560155236E+03  0.41800000000E+01 0.  1.
         -5    1    3    3    0  502  0.48102048372E+02  0.18218314988E+02 -0.22410393716E+03  0.22996904381E+03  0.41800000000E+01 0.  1.
        -11    1    1    2    0    0 -0.32423741482E+02 -0.10154316847E+02 -0.10747795579E+03  0.11272054002E+03  0.00000000000E+00 0.  1.
         11    1    1    2    0    0 -0.14501469962E+03  0.15992500049E+03 -0.77366267917E+03  0.80321803393E+03  0.00000000000E+00 0. -1.
</event>
<event>
 7    1  0.2641580E-009  0.1072548E+03  0.7561462E-02  0.1265740E+00
          2   -1    0    0  501    0  0.00000000000E+00  0.00000000000E+00  0.17174585765E+02  0.17174585765E+02  0.00000000000E+00 0. -1.
         -2   -1    0    0    0  501 -0.00000000000E+00 -0.00000000000E+00 -0.77610580428E+03  0.77610580428E+03  0.00000000000E+00 0.  1.
         25    2    1    2    0    0  0.20894322125E+02 -0.22094589787E+02 -0.48965142155E+03  0.50629134249E+03  0.12509062815E+03 0.  0.
          5    1    3    3  502    0 -0.39571083185E+02 -0.48008220182E+02 -0.25949377786E+03  0.26688040951E+03  0.41800000000E+01 0. -1.
         -5    1    3    3    0  502  0.60465405310E+02  0.25913630395E+02 -0.23015764369E+03  0.23941093298E+03  0.41800000000E+01 0. -1.
        -11    1    1    2    0    0  0.12813789950E+02  0.44138930832E+02 -0.21225940704E+03  0.21717848490E+03  0.00000000000E+00 0.  1.
         11    1    1    2    0    0 -0.33708112075E+02 -0.22044341045E+02 -0.57020389926E+02  0.69810562662E+02  0.00000000000E+00 0. -1.
</event>
<event>
 7    1  0.2641580E-009  0.8989734E+02  0.7561462E-02  0.1303100E+00
          1   -1    0    0  501    0  0.00000000000E+00  0.00000000000E+00  0.37078659591E+03  0.37078659591E+03  0.00000000000E+00 0. -1.
         -1   -1    0    0    0  501 -0.00000000000E+00 -0.00000000000E+00 -0.58791811361E+02  0.58791811361E+02  0.00000000000E+00 0.  1.
         25    2    1    2    0    0 -0.70244716619E+02 -0.24719532858E+02  0.75506603553E+02  0.16399438971E+03  0.12509011615E+03 0.  0.
          5    1    3    3  502    0 -0.32265232001E+02 -0.64444159430E+01  0.10647809956E+03  0.11152413990E+03  0.41800000000E+01 0. -1.
         -5    1    3    3    0  502 -0.37979484617E+02 -0.18275116915E+02 -0.30971496010E+02  0.52470249810E+02  0.41800000000E+01 0. -1.
        -11    1    1    2    0    0 -0.15213725225E+01  0.32093372560E+02  0.14783240968E+03  0.15128357640E+03  0.00000000000E+00 0. -1.
         11    1    1    2    0    0  0.71766089141E+02 -0.73738397024E+01  0.88655771313E+02  0.11430044116E+03  0.00000000000E+00 0.  1.
</event>
<event>
 7    1  0.2641580E-009  0.1003334E+03  0.7561462E-02  0.1279596E+00
         -2   -1    0    0    0  501 -0.00000000000E+00  0.00000000000E+00  0.84873604875E+02  0.84873604875E+02  0.00000000000E+00 0. -1.
          2   -1    0    0  501    0  0.00000000000E+00 -0.00000000000E+00 -0.24612969352E+03  0.24612969352E+03  0.00000000000E+00 0.  1.
         25    2    1    2    0    0  0.57920219173E+02 -0.51603239573E+02 -0.32778513023E+02  0.15079586963E+03  0.12508923718E+03 0.  0.
          5    1    3    3  502    0  0.26506164581E+02 -0.44614256155E+02 -0.78822809648E+02  0.94464365418E+02  0.41800000000E+01 0.  1.
         -5    1    3    3    0  502  0.31414054592E+02 -0.69889834176E+01  0.46044296625E+02  0.56331504212E+02  0.41800000000E+01 0.  1.
        -11    1    1    2    0    0 -0.87220426337E+01  0.64664174931E+02 -0.35685276017E+02  0.74370481185E+02  0.00000000000E+00 0. -1.
         11    1    1    2    0    0 -0.49198176539E+02 -0.13060935358E+02 -0.92792299607E+02  0.10583694758E+03  0.00000000000E+00 0.  1.
</event>
<event>
 7    1  0.2641580E-009  0.1238075E+03  0.7561462E-02  0.1236945E+00
         -4   -1    0    0    0  501 -0.00000000000E+00  0.00000000000E+00  0.49935513551E+02  0.49935513551E+02  0.00000000000E+00 0.  1.
          4   -1    0    0  501    0  0.00000000000E+00 -0.00000000000E+00 -0.41062919422E+03  0.41062919422E+03  0.00000000000E+00 0. -1.
         25    2    1    2    0    0 -0.69391427479E+02  0.62786654570E+02 -0.17399184011E+03  0.23383692727E+03  0.12509681824E+03 0.  0.
          5    1    3    3  502    0 -0.11252399262E+02  0.72046972580E+02 -0.15580914954E+03  0.17207947649E+03  0.41800000000E+01 0.  1.
         -5    1    3    3    0  502 -0.58139028217E+02 -0.92603180102E+01 -0.18182690566E+02  0.61757450788E+02  0.41800000000E+01 0.  1.
        -11    1    1    2    0    0  0.28813521657E+02 -0.68747433352E+02 -0.16329776253E+03  0.17950651206E+03  0.00000000000E+00 0. -1.
         11    1    1    2    0    0  0.40577905821E+02  0.59607787819E+01 -0.23404078028E+02  0.47221268438E+02  0.00000000000E+00 0.  1.
</event>
<event>
 7    1  0.2641580E-009  0.1371496E+03  0.7561462E-02  0.1217217E+00
         -2   -1    0    0    0  501 -0.00000000000E+00  0.00000000000E+00  0.26000946835E+02  0.26000946835E+02  0.00000000000E+00 0.  1.
          2   -1    0    0  501    0  0.00000000000E+00 -0.00000000000E+00 -0.75860253529E+03  0.75860253529E+03  0.00000000000E+00 0. -1.
         25    2    1    2    0    0 -0.21978584819E+02 -0.87228825338E+02 -0.37840354297E+03  0.40856884441E+03  0.12508930061E+03 0.  0.
          5    1    3    3  502    0  0.47524662824E+02 -0.62019374288E+02 -0.22522090376E+03  0.23842593033E+03  0.41800000000E+01 0. -1.
         -5    1    3    3    0  502 -0.69503247644E+02 -0.25209451050E+02 -0.15318263921E+03  0.17014291407E+03  0.41800000000E+01 0. -1.
        -11    1    1    2    0    0 -0.21358525272E+02  0.73501323100E+02 -0.17219617665E+03  0.18844138174E+03  0.00000000000E+00 0.  1.
         11    1    1    2    0    0  0.43337110092E+02  0.13727502239E+02 -0.18200186884E+03  0.18759325598E+03  0.00000000000E+00 0. -1.
</event>
<event>
 7    1  0.2641580E-009  0.9958006E+02  0.7561462E-02  0.1281182E+00
          1   -1    0    0  501    0  0.00000000000E+00  0.00000000000E+00  0.24643810522E+03  0.24643810522E+03  0.00000000000E+00 0. -1.
         -1   -1    0    0    0  501 -0.00000000000E+00 -0.00000000000E+00 -0.53357741930E+02  0.53357741930E+02  0.00000000000E+00 0.  1.
         25    2    1    2    0    0 -0.26663834323E+02 -0.17546404988E+02  0.12195642206E+03  0.17758712826E+03  0.12507990587E+03 0.  0.
          5    1    3    3  502    0 -0.49080884161E+02  0.37567784444E+02  0.91811299540E+02  0.11075675483E+03  0.41800000000E+01 0.  1.
         -5    1    3    3    0  502  0.22417049838E+02 -0.55114189432E+02  0.30145122517E+02  0.66830373422E+02  0.41800000000E+01 0.  1.
        -11    1    1    2    0    0  0.47945105732E+01 -0.27274961564E+02 -0.78692590068E+01  0.28789513668E+02  0.00000000000E+00 0.  1.
         11    1    1    2    0    0  0.21869323750E+02  0.44821366551E+02  0.78993200242E+02  0.93419205227E+02  0.00000000000E+00 0. -1.
</event>
<event>
 7    1  0.2641580E-009  0.1248654E+03  0.7561462E-02  0.1235280E+00
          1   -1    0    0  501    0  0.00000000000E+00  0.00000000000E+00  0.12921123402E+03  0.12921123402E+03  0.00000000000E+00 0. -1.
         -1   -1    0    0    0  501 -0.00000000000E+00 -0.00000000000E+00 -0.15487685326E+03  0.15487685326E+03  0.00000000000E+00 0.  1.
         25    2    1    2    0    0  0.56665575083E+02  0.71947592017E+02  0.36163722191E+00  0.15503240269E+03  0.12508985453E+03 0.  0.
          5    1    3    3  502    0  0.47430549371E+02 -0.64478883776E+01  0.43643056180E+02  0.64910869898E+02  0.41800000000E+01 0.  1.
         -5    1    3    3    0  502  0.92350257122E+01  0.78395480395E+02 -0.43281418958E+02  0.90121532795E+02  0.41800000000E+01 0.  1.
        -11    1    1    2    0    0 -0.77971403118E+02 -0.57796305717E+02 -0.72519327266E+01  0.97326991051E+02  0.00000000000E+00 0.  1.
         11    1    1    2    0    0  0.21305828034E+02 -0.14151286299E+02 -0.18775323737E+02  0.31728693537E+02  0.00000000000E+00 0. -1.
</event>
<event>
 6    1  0.2641580E-009  0.3245616E+03  0.7561462E-02  0.1073569E+00
         -2   -1    0    0    0  501 -0.00000000000E+00  0.00000000000E+00  0.11111149842E+03  0.11111149842E+03  0.00000000000E+00 0.  1.
          2   -1    0    0  501    0  0.00000000000E+00 -0.00000000000E+00 -0.97400260977E+03  0.97400260977E+03  0.00000000000E+00 0. -1.
          5    1    1    2  502    0 -0.22633377013E+03  0.22309830748E+03 -0.49977807090E+03  0.59227985181E+03  0.41800000000E+01 0.  1.
         -5    1    1    2    0  502  0.12387540598E+02 -0.23410863587E+01 -0.13192058502E+02  0.18719899971E+02  0.41800000000E+01 0.  1.
        -11    1    1    2    0    0  0.16506074859E+03 -0.21144887182E+03 -0.27491555926E+03  0.38410186259E+03  0.00000000000E+00 0.  1.
         11    1    1    2    0    0  0.48885480942E+02 -0.93083492952E+01 -0.75005422679E+02  0.90012493826E+02  0.00000000000E+00 0. -1.
</event>
<event>
 7    1  0.2641580E-009  0.1097799E+03  0.7561462E-02  0.1260978E+00
         -1   -1    0    0    0  501 -0.00000000000E+00  0.00000000000E+00  0.11056268762E+03  0.11056268762E+03  0.00000000000E+00 0.  1.
          1   -1    0    0  501    0  0.00000000000E+00 -0.00000000000E+00 -0.14839068163E+03  0.14839068163E+03  0.00000000000E+00 0. -1.
         25    2    1    2    0    0 -0.10633099788E+02  0.49966227404E+02 -0.64453412197E+02  0.14970693245E+03  0.12509291181E+03 0.  0.
          5    1    3    3  502    0 -0.61271531476E+02  0.23032683556E+02 -0.31715448501E+01  0.65667618945E+02  0.41800000000E+01 0. -1.
         -5    1    3    3    0  502  0.50638431688E+02  0.26933543849E+02 -0.61281867347E+02  0.84039313500E+02  0.41800000000E+01 0. -1.
        -11    1    1    2    0    0  0.44790917455E+02 -0.41966006445E+02  0.38210524340E+02  0.72300872427E+02  0.00000000000E+00 0.  1.
         11    1    1    2    0    0 -0.34157817667E+02 -0.80002209594E+01 -0.11585106152E+02  0.36945564385E+02  0.00000000000E+00 0. -1.
</event>
<event>
 7    1  0.2641580E-009  0.1723281E+03  0.7561462E-02  0.1175442E+00
          2   -1    0    0  501    0  0.00000000000E+00  0.00000000000E+00  0.15611374715E+03  0.15611374715E+03  0.00000000000E+00 0. -1.
         -2   -1    0    0    0  501 -0.00000000000E+00 -0.00000000000E+00 -0.27264898235E+03  0.27264898235E+03  0.00000000000E+00 0.  1.
         25    2    1    2    0    0  0.11620195430E+03  0.10475985555E+03  0.21123737451E+02  0.20142445256E+03  0.12509227108E+03 0.  0.
          5    1    3    3  502    0  0.80087337785E+02  0.11382812510E+03 -0.25554826250E+02  0.14156745841E+03  0.41800000000E+01 0.  1.
         -5    1    3    3    0  502  0.36114616517E+02 -0.90682695426E+01  0.46678563701E+02  0.59856994143E+02  0.41800000000E+01 0.  1.
        -11    1    1    2    0    0  0.70048381380E+01 -0.11324452678E+02 -0.45322214734E+02  0.47237846418E+02  0.00000000000E+00 0.  1.
         11    1    1    2    0    0 -0.12320679244E+03 -0.93435402876E+02 -0.92336757922E+02  0.18010043053E+03  0.00000000000E+00 0. -1.
</event>
<event>
 7    1  0.2641580E-009  0.9047857E+02  0.7561462E-02  0.1301697E+00
          4   -1    0    0  501    0  0.00000000000E+00  0.00000000000E+00  0.58763370009E+02  0.58763370009E+02  0.00000000000E+00 0. -1.
         -4   -1    0    0    0  501 -0.00000000000E+00 -0.00000000000E+00 -0.35704392001E+03  0.35704392001E+03  0.00000000000E+00 0.  1.
         25    2    1    2    0    0 -0.40256874980E+02  0.38177034045E+02 -0.27572283709E+03  0.30780305968E+03  0.12506613748E+03 0.  0.
          5    1    3    3  502    0  0.60023791602E+00 -0.23051725207E+02 -0.11059481211E+01  0.23461411761E+02  0.41800000000E+01 0.  1.
         -5    1    3    3    0  502 -0.40857112896E+02  0.61228759252E+02 -0.27461688897E+03  0.28434164792E+03  0.41800000000E+01 0.  1.
        -11    1    1    2    0    0  0.43786876447E+02  0.16434557256E+01  0.21249349455E+02  0.48698319765E+02  0.00000000000E+00 0. -1.
         11    1    1    2    0    0 -0.35300014666E+01 -0.39820489771E+02 -0.43807062365E+02  0.59305910574E+02  0.00000000000E+00 0.  1.
</event>
<event>
 7    1  0.2641580E-009  0.8686577E+02  0.7561462E-02  0.1310624E+00
          1   -1    0    0  501    0  0.00000000000E+00  0.00000000000E+00  0.34983000592E+03  0.34983000592E+03  0.00000000000E+00 0. -1.
         -1   -1    0    0    0  501 -0.00000000000E+00 -0.00000000000E+00 -0.38574840466E+02  0.38574840466E+02  0.00000000000E+00 0.  1.
         25    2    1    2    0    0  0.32947669833E+02 -0.57869619615E+02  0.22623021997E+03  0.26694894239E+03  0.12508870290E+03 0.  0.
          5    1    3    3  502    0  0.38898825048E+02  0.52768820490E+01  0.18943221153E+03  0.19350193601E+03  0.41800000000E+01 0.  1.
         -5    1    3    3    0  502 -0.59511552147E+01 -0.63146501664E+02  0.36798008439E+02  0.73447006378E+02  0.41800000000E+01 0.  1.
        -11    1    1    2    0    0 -0.34084231370E+02  0.39033990100E+02  0.88223330206E+02  0.10231687644E+03  0.00000000000E+00 0. -1.
         11    1    1    2    0    0  0.11365615363E+01  0.18835629515E+02 -0.31983847168E+01  0.19139027566E+02  0.00000000000E+00 0.  1.
</event>
<event>
 7    1  0.2641580E-009  0.1127870E+03  0.7561462E-02  0.1255494E+00
          2   -1    0    0  501    0  0.00000000000E+00  0.00000000000E+00  0.76857793559E+03  0.76857793559E+03  0.00000000000E+00 0. -1.
         -2   -1    0    0    0  501 -0.00000000000E+00 -0.00000000000E+00 -0.29618361885E+02  0.29618361885E+02  0.00000000000E+00 0.  1.
         25    2    1    2    0    0  0.75921730025E+02  0.19132883534E+02  0.59328921847E+03  0.61136847294E+03  0.12509650926E+03 0.  0.
          5    1    3    3  502    0  0.34653737019E+02 -0.53357232726E+02  0.23771633664E+03  0.24611868048E+03  0.41800000000E+01 0.  1.
         -5    1    3    3    0  502  0.41267993006E+02  0.72490116260E+02  0.35557288183E+03  0.36524979246E+03  0.41800000000E+01 0.  1.
        -11    1    1    2    0    0 -0.46214649603E+02 -0.11705045751E+02  0.11276308387E+02  0.48989356648E+02  0.00000000000E+00 0.  1.
         11    1    1    2    0    0 -0.29707080422E+02 -0.74278377832E+01  0.13439404685E+03  0.13783846789E+03  0.00000000000E+00 0. -1.
</event>
<event>
 7    1  0.2641580E-009  0.1021044E+03  0.7561462E-02  0.1275932E+00
         -3   -1    0    0    0  501 -0.00000000000E+00  0.00000000000E+00  0.16661535473E+03  0.16661535473E+03  0.00000000000E+00 0.  1.
          3   -1    0    0  501    0  0.00000000000E+00 -0.00000000000E+00 -0.81757636743E+02  0.81757636743E+02  0.00000000000E+00 0. -1.
         25    2    1    2    0    0  0.29853353926E+02 -0.35395342235E+02  0.47487084727E+02  0.14158454117E+03  0.12508839311E+03 0.  0.
          5    1    3    3  502    0  0.65978854819E+02 -0.23568121711E+02 -0.11663297034E+02  0.71148932121E+02  0.41800000000E+01 0. -1.
         -5    1    3    3    0  502 -0.36125500893E+02 -0.11827220524E+02  0.59150381762E+02  0.70435609053E+02  0.41800000000E+01 0. -1.
        -11    1    1    2    0    0 -0.26498704855E+02  0.62805204164E+02  0.40022046543E+02  0.79047069766E+02  0.00000000000E+00 0.  1.
         11    1    1    2    0    0 -0.33546490702E+01 -0.27409861929E+02 -0.26514132850E+01  0.27741380531E+02  0.00000000000E+00 0. -1.
</event>
<event>
 7    1  0.2888822E-009  0.1537262E+03  0.7561462E-02  0.1195968E+00
          1   -1    0    0  501    0  0.00000000000E+00  0.00000000000E+00  0.33497618367E+03  0.33497618367E+03  0.00000000000E+00 0. -1.
         -1   -1    0    0    0  501 -0.00000000000E+00 -0.00000000000E+00 -0.75054317227E+02  0.75054317227E+02  0.00000000000E+00 0.  1.
         25    2    1    2    0    0 -0.11467703791E+03 -0.13860108792E+02  0.15018598850E+03  0.22703544884E+03  0.12508532388E+03 0.  0.
          5    1    3    3  502    0 -0.25392942166E+02 -0.56421506761E+02  0.23639747961E+02  0.66366392253E+02  0.41800000000E+01 0. -1.
         -5    1    3    3    0  502 -0.89284095747E+02  0.42561397969E+02  0.12654624054E+03  0.16066905659E+03  0.41800000000E+01 0. -1.
        -11    1    1    2    0    0  0.58917795071E+02 -0.38149884908E+02  0.52290211073E+02  0.87527061350E+02  0.00000000000E+00 0. -1.
         11    1    1    2    0    0  0.55759242842E+02  0.52009993700E+02  0.57445666866E+02  0.95467990701E+02  0.00000000000E+00 0.  1.
</event>
<event>
 7    1  0.2641580E-009  0.1358480E+03  0.7561462E-02  0.1219028E+00
          1   -1    0    0  501    0  0.00000000000E+00  0.00000000000E+00  0.60222258632E+03  0.60222258632E+03  0.00000000000E+00 0. -1.
         -1   -1    0    0    0  501 -0.00000000000E+00 -0.00000000000E+00 -0.47101665056E+02  0.47101665056E+02  0.00000000000E+00 0.  1.
         25    2    1    2    0    0  0.10341722761E+03  0.72062216500E+02  0.24886450658E+03  0.30572716401E+03  0.12508984836E+03 0.  0.
          5    1    3    3  502    0  0.82985733762E+02  0.39978559782E+02  0.25100054514E+03  0.26740168906E+03  0.41800000000E+01 0. -1.
         -5    1    3    3    0  502  0.20431493849E+02  0.32083656718E+02 -0.21360385608E+01  0.38325474949E+02  0.41800000000E+01 0. -1.
        -11    1    1    2    0    0 -0.58099506511E+02 -0.24411991253E+01  0.59346504003E+02  0.83087421716E+02  0.00000000000E+00 0.  1.
         11    1    1    2    0    0 -0.45317721100E+02 -0.69621017375E+02  0.24690991069E+03  0.26050966566E+03  0.00000000000E+00 0. -1.
</event>
<event>
 7    1  0.2641580E-009  0.1865072E+03  0.7561462E-02  0.1161650E+00
          1   -1    0    0  501    0  0.00000000000E+00  0.00000000000E+00  0.67731283674E+03  0.67731283674E+03  0.00000000000E+00 0. -1.
         -1   -1    0    0    0  501 -0.00000000000E+00 -0.00000000000E+00 -0.70743881643E+02  0.70743881643E+02  0.00000000000E+00 0.  1.
         25    2    1    2    0    0 -0.10579204081E+03 -0.13534389668E+03  0.17615738574E+03  0.27602413263E+03  0.12509185016E+03 0.  0.
          5    1    3    3  502    0 -0.59889929130E+02 -0.14172814408E+03  0.90526497179E+02  0.17856704491E+03  0.41800000000E+01 0. -1.
         -5    1    3    3    0  502 -0.45902111678E+02  0.63842473996E+01  0.85630888562E+02  0.97457087722E+02  0.41800000000E+01 0. -1.
        -11    1    1    2    0    0  0.40142937964E+02  0.64553763728E+02  0.88080265177E+02  0.11634765573E+03  0.00000000000E+00 0.  1.
         11    1    1    2    0    0  0.65649102845E+02  0.70790132950E+02  0.34233130418E+03  0.35568493003E+03  0.00000000000E+00 0. -1.
</event>
<event>
 7    1  0.2641580E-009  0.3005976E+03  0.7561462E-02  0.1084942E+00
          2   -1    0    0  501    0  0.00000000000E+00  0.00000000000E+00  0.19512238204E+04  0.19512238204E+04  0.00000000000E+00 0. -1.
         -2   -1    0    0    0  501 -0.00000000000E+00 -0.00000000000E+00 -0.12288597071E+03  0.12288597071E+03  0.00000000000E+00 0.  1.
         25    2    1    2    0    0 -0.17221803089E+03  0.23519759913E+03  0.17210790497E+04  0.17500651377E+04  0.12505171029E+03 0.  0.
          5    1    3    3  502    0 -0.16463091299E+03  0.19866917560E+03  0.16461943633E+04  0.16662971323E+04  0.41800000000E+01 0.  1.
         -5    1    3    3    0  502 -0.75871178994E+01  0.36528423528E+02  0.74884686308E+02  0.83768005389E+02  0.41800000000E+01 0.  1.
        -11    1    1    2    0    0  0.10313384683E+03 -0.64973187162E+02  0.48172825455E+02  0.13106764103E+03  0.00000000000E+00 0. -1.
         11    1    1    2    0    0  0.69084184064E+02 -0.17022441197E+03  0.59085974594E+02  0.19297701239E+03  0.00000000000E+00 0.  1.
</event>
<event>
 7    1  0.2641580E-009  0.1044751E+03  0.7561462E-02  0.1271157E+00
          1   -1    0    0  501    0  0.00000000000E+00  0.00000000000E+00  0.78112857096E+03  0.78112857096E+03  0.00000000000E+00 0. -1.
         -1   -1    0    0    0  501 -0.00000000000E+00 -0.00000000000E+00 -0.24469223554E+02  0.24469223554E+02  0.00000000000E+00 0.  1.
         25    2    1    2    0    0 -0.78588121205E+02 -0.32456576425E+02  0.45308951414E+03  0.47767008015E+03  0.12509626492E+03 0.  0.
          5    1    3    3  502    0 -0.56979754637E+02  0.15880385663E+02  0.39310106486E+03  0.39754848595E+03  0.41800000000E+01 0. -1.
         -5    1    3    3    0  502 -0.21608366567E+02 -0.48336962088E+02  0.59988449276E+02  0.80121594193E+02  0.41800000000E+01 0. -1.
        -11    1    1    2    0    0  0.75540038516E+02  0.12761777200E+02  0.29733484997E+03  0.30704588156E+03  0.00000000000E+00 0. -1.
         11    1    1    2    0    0  0.30480826888E+01  0.19694799225E+02  0.62349832942E+01  0.20881832804E+02  0.00000000000E+00 0.  1.
</event>
<event>
 7    1  0.2641580E-009  0.9143030E+02  0.7561462E-02  0.1299425E+00
          2   -1    0    0  501    0  0.00000000000E+00  0.00000000000E+00  0.26511541342E+03  0.26511541342E+03  0.00000000000E+00 0. -1.
         -2   -1    0    0    0  501 -0.00000000000E+00 -0.00000000000E+00 -0.60437374264E+02  0.60437374264E+02  0.00000000000E+00 0.  1.
         25    2    1    2    0    0 -0.28135132962E+02  0.24207861049E+02  0.43809964904E+02  0.13764034355E+03  0.12509174595E+03 0.  0.
          5    1    3    3  502    0 -0.43123841007E+02 -0.40962801132E+02  0.37280916694E+02  0.70320380327E+02  0.41800000000E+01 0.  1.
         -5    1    3    3    0  502  0.14988708045E+02  0.65170662180E+02  0.65290482097E+01  0.67319963223E+02  0.41800000000E+01 0.  1.
        -11    1    1    2    0    0  0.28256188761E+02  0.35473229504E+01  0.41776655343E+01  0.28782782922E+02  0.00000000000E+00 0.  1.
         11    1    1    2    0    0 -0.12105579910E+00 -0.27755183999E+02  0.15669040872E+03  0.15912966121E+03  0.00000000000E+00 0. -1.
</event>
<event>
 7    1  0.2641580E-009  0.1034716E+03  0.7561462E-02  0.1273160E+00
         -3   -1    0    0    0  501 -0.00000000000E+00  0.00000000000E+00  0.52340142183E+02  0.52340142183E+02  0.00000000000E+00 0.  1.
          3   -1    0    0  501    0  0.00000000000E+00 -0.00000000000E+00 -0.25015971390E+03  0.25015971390E+03  0.00000000000E+00 0. -1.
         25    2    1    2    0    0  0.46121416430E+02 -0.13100013189E+02 -0.12878801896E+03  0.18582946543E+03  0.12508973177E+03 0.  0.
          5    1    3    3  502    0  0.79148059224E+02 -0.55297516307E+01 -0.36509414679E+02  0.87437996273E+02  0.41800000000E+01 0. -1.
         -5    1    3    3    0  502 -0.33026642794E+02 -0.75702615584E+01 -0.92278604282E+02  0.98391469155E+02  0.41800000000E+01 0. -1.
        -11    1    1    2    0    0  0.23152554811E+02  0.30156943747E+01 -0.11335852345E+02  0.25954513195E+02  0.00000000000E+00 0. -1.
         11    1    1    2    0    0 -0.69273971241E+02  0.10084318814E+02 -0.57695700415E+02  0.90715877463E+02  0.00000000000E+00 0.  1.
</event>
<event>
 6    1  0.2641580E-009  0.1092683E+03  0.7561462E-02  0.1261931E+00
         -2   -1    0    0    0  501 -0.00000000000E+00  0.00000000000E+00  0.86130075091E+03  0.86130075091E+03  0.00000000000E+00 0. -1.
          2   -1    0    0  501    0  0.00000000000E+00 -0.00000000000E+00 -0.25009819931E+02  0.25009819931E+02  0.00000000000E+00 0.  1.
          5    1    1    2  502    0  0.20844931685E+02  0.29449609183E+02  0.91500727658E+02  0.98446158990E+02  0.41800000000E+01 0. -1.
         -5    1    1    2    0  502 -0.46720099609E+02 -0.67494338840E+02  0.62249709355E+03  0.62789995808E+03  0.41800000000E+01 0. -1.
        -11    1    1    2    0    0  0.11587946615E+02  0.66861165308E+02  0.99923173228E+02  0.12078632572E+03  0.00000000000E+00 0. -1.
         11    1    1    2    0    0  0.14287221308E+02 -0.28816435651E+02  0.22369936540E+02  0.39178128045E+02  0.00000000000E+00 0.  1.
</event>
<event>
 7    1  0.2641580E-009  0.1001874E+03  0.7561462E-02  0.1279902E+00
          1   -1    0    0  501    0  0.00000000000E+00  0.00000000000E+00  0.26493408990E+03  0.26493408990E+03  0.00000000000E+00 0. -1.
         -1   -1    0    0    0  501 -0.00000000000E+00 -0.00000000000E+00 -0.67421399586E+02  0.67421399586E+02  0.00000000000E+00 0.  1.
         25    2    1    2    0    0  0.14454607468E+02  0.71581243875E+02  0.13944583475E+03  0.20106041639E+03  0.12508932832E+03 0.  0.
          5    1    3    3  502    0 -0.34448240512E+02 -0.26062501220E+01  0.95903368585E+02  0.10202157772E+03  0.41800000000E+01 0.  1.
         -5    1    3    3    0  502  0.48902847979E+02  0.74187493997E+02  0.43542466163E+02  0.99038838673E+02  0.41800000000E+01 0.  1.
        -11    1    1    2    0    0 -0.40623511857E+01 -0.63039898806E+02  0.82197918861E+02  0.10366788029E+03  0.00000000000E+00 0. -1.
         11    1    1    2    0    0 -0.10392256282E+02 -0.85413450697E+01 -0.24131063299E+02  0.27627192803E+02  0.00000000000E+00 0.  1.
</event>
<event>
 7    1  0.2641580E-009  0.1542919E+03  0.7561462E-02  0.1195296E+00
          2   -1    0    0  501    0  0.00000000000E+00  0.00000000000E+00  0.57389107676E+03  0.57389107676E+03  0.00000000000E+00 0. -1.
         -2   -1    0    0    0  501 -0.00000000000E+00 -0.00000000000E+00 -0.49141144448E+02  0.49141144448E+02  0.00000000000E+00 0.  1.
         25    2    1    2    0    0  0.56062093121E+02  0.11523387723E+03  0.25024340497E+03  0.30772146115E+03  0.12509568809E+03 0.  0.
          5    1    3    3  502    0 -0.84053742352E+01 -0.10657529363E+02 -0.56713288975E+01  0.15292796331E+02  0.41800000000E+01 0.  1.
         -5    1    3    3    0  502  0.64467467356E+02  0.12589140659E+03  0.25591473387E+03  0.29242866482E+03  0.41800000000E+01 0.  1.
        -11    1    1    2    0    0  0.21203957953E+02 -0.13515586083E+02  0.27721152316E+02  0.37426477069E+02  0.00000000000E+00 0. -1.
         11    1    1    2    0    0 -0.77266051074E+02 -0.10171829115E+03  0.24678537503E+03  0.27788428298E+03  0.00000000000E+00 0.  1.
</event>
<event>
 7    1  0.2641580E-009  0.1013398E+03  0.7561462E-02  0.1277503E+00
          3   -1    0    0  501    0  0.00000000000E+00  0.00000000000E+00  0.77056638857E+03  0.77056638857E+03  0.00000000000E+00 0. -1.
         -3   -1    0    0    0  501 -0.00000000000E+00 -0.00000000000E+00 -0.21586819861E+02  0.21586819861E+02  0.00000000000E+00 0.  1.
         25    2    1    2    0    0 -0.43733366222E+02 -0.53720947782E+02  0.44945299379E+03  0.47165004566E+03  0.12508886596E+03 0.  0.
          5    1    3    3  502    0 -0.77452985085E+01 -0.73782545906E+02  0.40137357039E+03  0.40819366622E+03  0.41800000000E+01 0.  1.
         -5    1    3    3    0  502 -0.35988067713E+02  0.20061598124E+02  0.48079423398E+02  0.63456379437E+02  0.41800000000E+01 0.  1.
        -11    1    1    2    0    0  0.17488752252E+02  0.57811626557E+02  0.28265536438E+03  0.28903649533E+03  0.00000000000E+00 0. -1.
         11    1    1    2    0    0  0.26244613969E+02 -0.40906787748E+01  0.16871210543E+02  0.31466667450E+02  0.00000000000E+00 0.  1.
</event>
<event>
 7    1  0.2641580E-009  0.9983171E+02  0.7561462E-02  0.1280650E+00
         -1   -1    0    0    0  501 -0.00000000000E+00  0.00000000000E+00  0.49452768626E+02  0.49452768626E+02  0.00000000000E+00 0.  1.
          1   -1    0    0  501    0  0.00000000000E+00 -0.00000000000E+00 -0.40262556139E+03  0.40262556139E+03  0.00000000000E+00 0. -1.
         25    2    1    2    0    0  0.34129009842E+01  0.31178266734E+02 -0.32830446858E+03  0.35272503920E+03  0.12508955584E+03 0.  0.
          5    1    3    3  502    0  0.61054879124E+02 -0.16348959289E+01 -0.18234747465E+03  0.19234979870E+03  0.41800000000E+01 0. -1.
         -5    1    3    3    0  502 -0.57641978139E+02  0.32813162663E+02 -0.14595699393E+03  0.16037524049E+03  0.41800000000E+01 0. -1.
        -11    1    1    2    0    0 -0.53975080840E+01 -0.51391687212E+02 -0.46617773215E+02  0.69594937945E+02  0.00000000000E+00 0. -1.
         11    1    1    2    0    0  0.19846070998E+01  0.20213420479E+02  0.21749449027E+02  0.29758352874E+02  0.00000000000E+00 0.  1.
</event>
<event>
 7    1  0.2641580E-009  0.1846998E+03  0.7561462E-02  0.1163331E+00
          1   -1    0    0  501    0  0.00000000000E+00  0.00000000000E+00  0.46152082070E+03  0.46152082070E+03  0.00000000000E+00 0. -1.
         -1   -1    0    0    0  501 -0.00000000000E+00 -0.00000000000E+00 -0.10806501600E+03  0.10806501600E+03  0.00000000000E+00 0.  1.
         25    2    1    2    0    0  0.15881546761E+03 -0.10533161794E+02  0.40182042141E+02  0.20638787526E+03  0.12509219918E+03 0.  0.
          5    1    3    3  502    0  0.23912386706E+02 -0.51599596291E+02  0.31255825280E+02  0.65028605931E+02  0.41800000000E+01 0.  1.
         -5    1    3    3    0  502  0.13490308090E+03  0.41066434497E+02  0.89262168613E+01  0.14135926933E+03  0.41800000000E+01 0.  1.
        -11    1    1    2    0    0 -0.48386060979E+02  0.33050130743E+02  0.17650211773E+03  0.18597451331E+03  0.00000000000E+00 0. -1.
         11    1    1    2    0    0 -0.11042940663E+03 -0.22516968949E+02  0.13677164482E+03  0.17722344813E+03  0.00000000000E+00 0.  1.
</event>
<event>
 7    1  0.2702374E-009  0.1205319E+03  0.7561462E-02  0.1242222E+00
          1   -1    0    0  501    0  0.00000000000E+00  0.00000000000E+00  0.15755473006E+03  0.15755473006E+03  0.00000000000E+00 0. -1.
         -1   -1    0    0    0  501 -0.00000000000E+00 -0.00000000000E+00 -0.12888802216E+03  0.12888802216E+03  0.00000000000E+00 0.  1.
         25    2    1    2    0    0 -0.69705765043E+02  0.45365237864E+02  0.54733691161E+02  0.15987622734E+03  0.12509089749E+03 0.  0.
          5    1    3    3  502    0 -0.68071173287E+02 -0.10316585507E+02 -0.14938444133E+02  0.70574401041E+02  0.41800000000E+01 0.  1.
         -5    1    3    3    0  502 -0.16345917559E+01  0.55681823371E+02  0.69672135294E+02  0.89301826300E+02  0.41800000000E+01 0.  1.
        -11    1    1    2    0    0  0.22310857374E+02 -0.62082213355E+02  0.71023894523E+01  0.66350731026E+02  0.00000000000E+00 0. -1.
         11    1    1    2    0    0  0.47394907669E+02  0.16716975491E+02 -0.33169372712E+02  0.60215793847E+02  0.00000000000E+00 0.  1.
</event>
<event>
 7    1  0.2641580E-009  0.1003926E+03  0.7561462E-02  0.1279473E+00
         -1   -1    0    0    0  501 -0.00000000000E+00  0.00000000000E+00  0.90969856822E+02  0.90969856822E+02  0.00000000000E+00 0.  1.
          1   -1    0    0  501    0  0.00000000000E+00 -0.00000000000E+00 -0.14417977315E+03  0.14417977315E+03  0.00000000000E+00 0. -1.
         25    2    1    2    0    0  0.81180457647E+01 -0.38137766209E+02 -0.38645058910E+02  0.13661147525E+03  0.12509541444E+03 0.  0.
          5    1    3    3  502    0  0.48916257999E+02  0.20362896922E+02 -0.37696339100E+02  0.65160833705E+02  0.41800000000E+01 0.  1.
         -5    1    3    3    0  502 -0.40798212234E+02 -0.58500663131E+02 -0.94871980993E+00  0.71450641547E+02  0.41800000000E+01 0.  1.
        -11    1    1    2    0    0 -0.29659271385E+02  0.44724372004E+02  0.20008772132E+02  0.57273840385E+02  0.00000000000E+00 0.  1.
         11    1    1    2    0    0  0.21541225620E+02 -0.65866057953E+01 -0.34573629551E+02  0.41264314334E+02  0.00000000000E+00 0. -1.
</event>
<event>
 7    1  0.2641580E-009  0.1169775E+03  0.7561462E-02  0.1248168E+00
          1   -1    0    0  501    0  0.00000000000E+00  0.00000000000E+00  0.25651669397E+02  0.25651669397E+02  0.00000000000E+00 0. -1.
         -1   -1    0    0    0  501 -0.00000000000E+00 -0.00000000000E+00 -0.57753876948E+03  0.57753876948E+03  0.00000000000E+00 0.  1.
         25    2    1    2    0    0  0.48636103109E+02 -0.21719507574E+02 -0.30798923562E+03  0.33665736352E+03  0.12507439236E+03 0.  0.
          5    1    3    3  502    0  0.83201205591E+02  0.15559340322E+02 -0.18357933043E+03  0.20219638138E+03  0.41800000000E+01 0.  1.
         -5    1    3    3    0  502 -0.34565102483E+02 -0.37278847896E+02 -0.12440990519E+03  0.13446098214E+03  0.41800000000E+01 0.  1.
        -11    1    1    2    0    0 -0.66519359378E+02  0.35705386645E+02 -0.12946211124E+03  0.14986706794E+03  0.00000000000E+00 0. -1.
         11    1    1    2    0    0  0.17883256269E+02 -0.13985879070E+02 -0.11443575323E+03  0.11666600741E+03  0.00000000000E+00 0.  1.
</event>
<event>
 7    1  0.2641580E-009  0.2321791E+03  0.7561462E-02  0.1125115E+00
         -2   -1    0    0    0  501 -0.00000000000E+00  0.00000000000E+00  0.56890890192E+02  0.56890890192E+02  0.00000000000E+00 0.  1.
          2   -1    0    0  501    0  0.00000000000E+00 -0.00000000000E+00 -0.10865592860E+04  0.10865592860E+04  0.00000000000E+00 0. -1.
         25    2    1    2    0    0  0.18336452262E+03 -0.12633205148E+03 -0.49470646733E+03  0.55674400553E+03  0.12508822280E+03 0.  0.
          5    1    3    3  502    0  0.10449636934E+03 -0.28134422618E+02 -0.12112185329E+03  0.16247772982E+03  0.41800000000E+01 0.  1.
         -5    1    3    3    0  502  0.78868153281E+02 -0.98197628867E+02 -0.37358461404E+03  0.39426627571E+03  0.41800000000E+01 0.  1.
        -11    1    1    2    0    0 -0.17734221542E+03  0.10117190886E+03 -0.39791337210E+03  0.44723714985E+03  0.00000000000E+00 0.  1.
         11    1    1    2    0    0 -0.60223071997E+01  0.25160142629E+02 -0.13704855638E+03  0.13946902081E+03  0.00000000000E+00 0. -1.
</event>
<event>
 7    1  0.2763208E-009  0.9958615E+02  0.7561462E-02  0.1281169E+00
          1   -1    0    0  501    0  0.00000000000E+00  0.00000000000E+00  0.76909607826E+03  0.76909607826E+03  0.00000000000E+00 0. -1.
         -1   -1    0    0    0  501 -0.00000000000E+00 -0.00000000000E+00 -0.21502777563E+02  0.21502777563E+02  0.00000000000E+00 0.  1.
         25    2    1    2    0    0 -0.95022876330E+01 -0.58470763192E+02  0.52566461760E+03  0.54358043874E+03  0.12508908652E+03 0.  0.
          5    1    3    3  502    0  0.12310944596E+02 -0.71277977589E+02  0.50628187542E+03  0.51144004460E+03  0.41800000000E+01 0.  1.
         -5    1    3    3    0  502 -0.21813232229E+02  0.12807214397E+02  0.19382742180E+02  0.32140394138E+02  0.41800000000E+01 0.  1.
        -11    1    1    2    0    0 -0.36474834335E+02  0.25993089076E+02  0.14455446436E+03  0.15133422410E+03  0.00000000000E+00 0. -1.
         11    1    1    2    0    0  0.45977121968E+02  0.32477674115E+02  0.77374218740E+02  0.95684192979E+02  0.00000000000E+00 0.  1.
</event>
<event>
 7    1  0.3811226E-009  0.8833786E+02  0.7561462E-02  0.1306927E+00
          1   -1    0    0  501    0  0.00000000000E+00  0.00000000000E+00  0.23448679078E+03  0.23448679078E+03  0.00000000000E+00 0. -1.
         -1   -1    0    0    0  501 -0.00000000000E+00 -0.00000000000E+00 -0.57835619564E+02  0.57835619564E+02  0.00000000000E+00 0.  1.
         25    2    1    2    0    0 -0.42831934781E+02 -0.26822734764E+01  0.10098768548E+03  0.16639559152E+03  0.12508881257E+03 0.  0.
          5    1    3    3  502    0  0.39845415612E+02  0.22025334030E+02  0.31400713702E+02  0.55463949601E+02  0.41800000000E+01 0.  1.
         -5    1    3    3    0  502 -0.82677350393E+02 -0.24707607506E+02  0.69586971777E+02  0.11093164191E+03  0.41800000000E+01 0.  1.
        -11    1    1    2    0    0  0.19821408555E+02  0.72497609401E+01  0.93881251215E+02  0.96224407509E+02  0.00000000000E+00 0. -1.
         11    1    1    2    0    0  0.23010526226E+02 -0.45674874637E+01 -0.18217765481E+02  0.29702411317E+02  0.00000000000E+00 0.  1.
</event>
<event>
 7    1  0.2641580E-009  0.9135337E+02  0.7561462E-02  0.1299607E+00
         -1   -1    0    0    0  501 -0.00000000000E+00  0.00000000000E+00  0.43791448085E+02  0.43791448085E+02  0.00000000000E+00 0.  1.
          1   -1    0    0  501    0  0.00000000000E+00 -0.00000000000E+00 -0.36407874364E+03  0.36407874364E+03  0.00000000000E+00 0. -1.
         25    2    1    2    0    0  0.28051545177E+02 -0.58964197948E+02 -0.20223336908E+03  0.24659779043E+03  0.12509384019E+03 0.  0.
          5    1    3    3  502    0 -0.34006726260E+02 -0.58309864837E+01 -0.13878955490E+03  0.14307505297E+03  0.41800000000E+01 0. -1.
         -5    1    3    3    0  502  0.62058271437E+02 -0.53133211464E+02 -0.63443814176E+02  0.10352273746E+03  0.41800000000E+01 0. -1.
        -11    1    1    2    0    0 -0.75523219229E+01  0.28092647527E+02  0.77658196227E+01  0.30108841989E+02  0.00000000000E+00 0.  1.
         11    1    1    2    0    0 -0.20499223254E+02  0.30871550421E+02 -0.12581974611E+03  0.13116355930E+03  0.00000000000E+00 0. -1.
</event>
<event>
 7    1  0.2641580E-009  0.1218013E+03  0.7561462E-02  0.1240155E+00
          1   -1    0    0  501    0  0.00000000000E+00  0.00000000000E+00  0.63084761825E+03  0.63084761825E+03  0.00000000000E+00 0. -1.
         -1   -1    0    0    0  501 -0.00000000000E+00 -0.00000000000E+00 -0.61463969207E+02  0.61463969207E+02  0.00000000000E+00 0.  1.
         25    2    1    2    0    0  0.53383192356E+02 -0.10843307897E+03  0.49900014907E+03  0.52844735155E+03  0.12509179328E+03 0.  0.
          5    1    3    3  502    0  0.37249080077E+02 -0.91545735351E+02  0.49450015336E+03  0.50429752101E+03  0.41800000000E+01 0.  1.
         -5    1    3    3    0  502  0.16134112279E+02 -0.16887343618E+02  0.44999957105E+01  0.24149830535E+02  0.41800000000E+01 0.  1.
        -11    1    1    2    0    0 -0.12570268836E+02  0.30279676486E+02 -0.19345266458E+02  0.38067174849E+02  0.00000000000E+00 0.  1.
         11    1    1    2    0    0 -0.40812923519E+02  0.78153402484E+02  0.89728766434E+02  0.12579706106E+03  0.00000000000E+00 0. -1.
</event>
<event>
 6    1  0.2641580E-009  0.9828941E+02  0.7561462E-02  0.1283935E+00
          2   -1    0    0  501    0  0.00000000000E+00  0.00000000000E+00  0.82679658646E+03  0.82679658646E+03  0.00000000000E+00 0. -1.
         -2   -1    0    0    0  501 -0.00000000000E+00 -0.00000000000E+00 -0.48913377091E+02  0.48913377091E+02  0.00000000000E+00 0.  1.
          5    1    1    2  502    0 -0.45179326696E+01 -0.47239344303E+02  0.54856863121E+03  0.55063325627E+03  0.41800000000E+01 0.  1.
         -5    1    1    2    0  502  0.25325220417E+02  0.63802876806E+02  0.22061828898E+03  0.23108889136E+03  0.41800000000E+01 0.  1.
        -11    1    1    2    0    0 -0.36734797268E+02  0.18885415818E+02  0.28682416534E+02  0.50287028936E+02  0.00000000000E+00 0. -1.
         11    1    1    2    0    0  0.15927509520E+02 -0.35448948320E+02 -0.19986127352E+02  0.43700786985E+02  0.00000000000E+00 0.  1.
</event>
<event>
 7    1  0.2641580E-009  0.3199079E+03  0.7561462E-02  0.1075692E+00
         -1   -1    0    0    0  501 -0.00000000000E+00  0.00000000000E+00  0.14265349213E+03  0.14265349213E+03  0.00000000000E+00 0.  1.
          1   -1    0    0  501    0  0.00000000000E+00 -0.00000000000E+00 -0.92236132005E+03  0.92236132005E+03  0.00000000000E+00 0. -1.
         25    2    1    2    0    0 -0.30780841694E+03 -0.85529461790E+02 -0.58169424350E+03  0.67533479736E+03  0.12509030834E+03 0.  0.
          5    1    3    3  502    0 -0.25205235034E+03 -0.71089471117E+02 -0.35357065146E+03  0.44001565675E+03  0.41800000000E+01 0. -1.
         -5    1    3    3    0  502 -0.55756066602E+02 -0.14439990672E+02 -0.22812359204E+03  0.23531914061E+03  0.41800000000E+01 0. -1.
        -11    1    1    2    0    0  0.17346585488E+03  0.37446956967E+02 -0.16695125392E+03  0.24365015613E+03  0.00000000000E+00 0.  1.
         11    1    1    2    0    0  0.13434256206E+03  0.48082504822E+02 -0.31062330507E+02  0.14602985868E+03  0.00000000000E+00 0. -1.
</event>
<event>
 7    1  0.2641580E-009  0.1172846E+03  0.7561462E-02  0.1247645E+00
          1   -1    0    0  501    0  0.00000000000E+00  0.00000000000E+00  0.53898249896E+03  0.53898249896E+03  0.00000000000E+00 0. -1.
         -1   -1    0    0    0  501 -0.00000000000E+00 -0.00000000000E+00 -0.25812419854E+02  0.25812419854E+02  0.00000000000E+00 0.  1.
         25    2    1    2    0    0  0.23838600096E+02 -0.39074335057E+02  0.26483077391E+03  0.29644118009E+03  0.12508777692E+03 0.  0.
          5    1    3    3  502    0  0.75303122362E+02 -0.21847605358E+02  0.16520137050E+03  0.18291211909E+03  0.41800000000E+01 0.  1.
         -5    1    3    3    0  502 -0.51464522266E+02 -0.17226729699E+02  0.99629403409E+02  0.11352906100E+03  0.41800000000E+01 0.  1.
        -11    1    1    2    0    0  0.34880788880E+02  0.11340178881E+02  0.94628494098E+02  0.10148803370E+03  0.00000000000E+00 0.  1.
         11    1    1    2    0    0 -0.58719388976E+02  0.27734156176E+02  0.15371081110E+03  0.16686570501E+03  0.00000000000E+00 0. -1.
</event>
<event>
 7    1  0.2641580E-009  0.2090017E+03  0.7561462E-02  0.1142359E+00
         -4   -1    0    0    0  501 -0.00000000000E+00  0.00000000000E+00  0.52432214420E+03  0.52432214420E+03  0.00000000000E+00 0.  1.
          4   -1    0    0  501    0  0.00000000000E+00 -0.00000000000E+00 -0.10631581616E+03  0.10631581616E+03  0.00000000000E+00 0. -1.
         25    2    1    2    0    0 -0.19607149977E+03  0.39054063987E+02  0.30155897650E+03  0.38282841045E+03  0.12510204877E+03 0.  0.
          5    1    3    3  502    0 -0.10041379995E+03  0.63814179704E+02  0.89821456752E+02  0.14913264983E+03  0.41800000000E+01 0.  1.
         -5    1    3    3    0  502 -0.95657699820E+02 -0.24760115717E+02  0.21173751975E+03  0.23369576063E+03  0.41800000000E+01 0.  1.
        -11    1    1    2    0    0  0.16842391348E+02 -0.54619222653E+01  0.51138795468E+02  0.54117235175E+02  0.00000000000E+00 0.  1.
         11    1    1    2    0    0  0.17922910842E+03 -0.33592141721E+02  0.65308556076E+02  0.19369231473E+03  0.00000000000E+00 0. -1.
</event>
<event>
 7    1  0.2641580E-009  0.1270158E+03  0.7561462E-02  0.1231952E+00
         -1   -1    0    0    0  501 -0.00000000000E+00  0.00000000000E+00  0.25632569433E+02  0.25632569433E+02  0.00000000000E+00 0.  1.
          1   -1    0    0  501    0  0.00000000000E+00 -0.00000000000E+00 -0.66875094294E+03  0.66875094294E+03  0.00000000000E+00 0. -1.
         25    2    1    2    0    0 -0.77527848740E+01  0.68063119051E+02 -0.28760914696E+03  0.32102823914E+03  0.12508962810E+03 0.  0.
          5    1    3    3  502    0 -0.43751079233E+02 -0.19269419457E+02 -0.10184763788E+03  0.11258721598E+03  0.41800000000E+01 0.  1.
         -5    1    3    3    0  502  0.35998294359E+02  0.87332538508E+02 -0.18576150909E+03  0.20844102316E+03  0.41800000000E+01 0.  1.
        -11    1    1    2    0    0  0.56563719674E+01  0.21332282671E+02 -0.10688276379E+03  0.10913746388E+03  0.00000000000E+00 0.  1.
         11    1    1    2    0    0  0.20964129067E+01 -0.89395401722E+02 -0.24862646276E+03  0.26421780935E+03  0.00000000000E+00 0. -1.
</event>
<event>
 7    1  0.2641580E-009  0.1615700E+03  0.7561462E-02  0.1186936E+00
          1   -1    0    0  501    0  0.00000000000E+00  0.00000000000E+00  0.13686807751E+03  0.13686807751E+03  0.00000000000E+00 0. -1.
         -1   -1    0    0    0  501 -0.00000000000E+00 -0.00000000000E+00 -0.22325811107E+03  0.22325811107E+03  0.00000000000E+00 0.  1.
         25    2    1    2    0    0  0.17906670106E+02 -0.13779668303E+03 -0.84952999203E+02  0.20537003085E+03  0.12510500714E+03 0.  0.
          5    1    3    3  502    0  0.62666627406E+02 -0.10278976006E+03 -0.86619089970E+02  0.14836839323E+03  0.41800000000E+01 0. -1.
         -5    1    3    3    0  502 -0.44759957299E+02 -0.35006922965E+02  0.16660907672E+01  0.57001637620E+02  0.41800000000E+01 0. -1.
        -11    1    1    2    0    0 -0.30433889282E+02  0.64195441664E+02  0.25357437904E+02  0.75433918129E+02  0.00000000000E+00 0. -1.
         11    1    1    2    0    0  0.12527219176E+02  0.73601241361E+02 -0.26794472269E+02  0.79322239595E+02  0.00000000000E+00 0.  1.
</event>
<event>
 7    1  0.2641580E-009  0.9867174E+02  0.7561462E-02  0.1283114E+00
         -4   -1    0    0    0  501 -0.00000000000E+00  0.00000000000E+00  0.33221087262E+02  0.33221087262E+02  0.00000000000E+00 0.  1.
          4   -1    0    0  501    0  0.00000000000E+00 -0.00000000000E+00 -0.46982608912E+03  0.46982608912E+03  0.00000000000E+00 0. -1.
         25    2    1    2    0    0 -0.75959917515E+01 -0.24821368213E+02 -0.36008558400E+03  0.38207704720E+03  0.12508973889E+03 0.  0.
          5    1    3    3  502    0 -0.13048558457E+02  0.49331357962E+02 -0.18158388454E+03  0.18866379430E+03  0.41800000000E+01 0.  1.
         -5    1    3    3    0  502  0.54525667052E+01 -0.74152726175E+02 -0.17850169946E+03  0.19341325289E+03  0.41800000000E+01 0.  1.
        -11    1    1    2    0    0  0.19076094465E+02 -0.18670750041E+02 -0.70752555760E+02  0.75620225031E+02  0.00000000000E+00 0. -1.
         11    1    1    2    0    0 -0.11480102714E+02  0.43492118254E+02 -0.57668620948E+01  0.45349904156E+02  0.00000000000E+00 0.  1.
</event>
<event>
 7    1  0.2641580E-009  0.1069585E+03  0.7561462E-02  0.1266308E+00
          1   -1    0    0  501    0  0.00000000000E+00  0.00000000000E+00  0.10131067681E+03  0.10131067681E+03  0.00000000000E+00 0. -1.
         -1   -1    0    0    0  501 -0.00000000000E+00 -0.00000000000E+00 -0.12848981051E+03  0.12848981051E+03  0.00000000000E+00 0.  1.
         25    2    1    2    0    0 -0.21755156650E+02  0.46642154213E+02 -0.29005832784E+02  0.13833667852E+03  0.12508765286E+03 0.  0.
          5    1    3    3  502    0 -0.65276548567E+02 -0.33157264538E+01  0.95472087571E+00  0.65501188743E+02  0.41800000000E+01 0.  1.
         -5    1    3    3    0  502  0.43521391917E+02  0.49957880667E+02 -0.29960553660E+02  0.72835489775E+02  0.41800000000E+01 0.  1.
        -11    1    1    2    0    0 -0.11250010078E+02  0.10922122230E+02 -0.16360969760E+02  0.22661350627E+02  0.00000000000E+00 0.  1.
         11    1    1    2    0    0  0.33005166728E+02 -0.57564276443E+02  0.18187668839E+02  0.68802458175E+02  0.00000000000E+00 0. -1.
</event>
<event>
 7    1  0.2641580E-009  0.1809050E+03  0.7561462E-02  0.1166930E+00
          4   -1    0    0  501    0  0.00000000000E+00  0.00000000000E+00  0.12724169164E+04  0.12724169164E+04  0.00000000000E+00 0. -1.
         -4   -1    0    0    0  501 -0.00000000000E+00 -0.00000000000E+00 -0.30754243682E+02  0.30754243682E+02  0.00000000000E+00 0.  1.
         25    2    1    2    0    0  0.12517912078E+03 -0.81709889765E+02  0.87493056939E+03  0.89638047021E+03  0.12509247676E+03 0.  0.
          5    1    3    3  502    0  0.93509228099E+02  0.93606838664E+01  0.52616785342E+03  0.53451069261E+03  0.41800000000E+01 0.  1.
         -5    1    3    3    0  502  0.31669892685E+02 -0.91070573631E+02  0.34876271597E+03  0.36186977760E+03  0.41800000000E+01 0.  1.
        -11    1    1    2    0    0 -0.96752294525E+01  0.50728768181E+02  0.15803497946E+03  0.16625905305E+03  0.00000000000E+00 0.  1.
         11    1    1    2    0    0 -0.11550389133E+03  0.30981121584E+02  0.20869712385E+03  0.24053163682E+03  0.00000000000E+00 0. -1.
</event>
<event>
 7    1  0.2641580E-009  0.9585314E+02  0.7561462E-02  0.1289266E+00
          1   -1    0    0  501    0  0.00000000000E+00  0.00000000000E+00  0.75731192988E+03  0.75731192988E+03  0.00000000000E+00 0. -1.
         -1   -1    0    0    0  501 -0.00000000000E+00 -0.00000000000E+00 -0.18443223628E+02  0.18443223628E+02  0.00000000000E+00 0.  1.
         25    2    1    2    0    0 -0.64228340979E+01  0.33640082511E+02  0.52620465064E+03  0.54195203933E+03  0.12509104935E+03 0.  0.
          5    1    3    3  502    0 -0.46869062721E+02  0.58709496114E+02  0.23202275856E+03  0.24391709014E+03  0.41800000000E+01 0. -1.
         -5    1    3    3    0  502  0.40446228623E+02 -0.25069413603E+02  0.29418189208E+03  0.29803494919E+03  0.41800000000E+01 0. -1.
        -11    1    1    2    0    0  0.33145638916E+02 -0.19695951173E+02  0.30497169974E+02  0.49159345482E+02  0.00000000000E+00 0.  1.
         11    1    1    2    0    0 -0.26722804818E+02 -0.13944131338E+02  0.18216688564E+03  0.18464376870E+03  0.00000000000E+00 0. -1.
</event>
<event>
 7    1  0.2641580E-009  0.1139743E+03  0.7561462E-02  0.1253382E+00
          2   -1    0    0  501    0  0.00000000000E+00  0.00000000000E+00  0.54510578003E+02  0.54510578003E+02  0.00000000000E+00 0. -1.
         -2   -1    0    0    0  501 -0.00000000000E+00 -0.00000000000E+00 -0.26900389644E+03  0.26900389644E+03  0.00000000000E+00 0.  1.
         25    2    1    2    0    0 -0.16002988907E+01 -0.52941119348E+02 -0.82198506908E+02  0.15877548259E+03  0.12509091198E+03 0.  0.
          5    1    3    3  502    0 -0.36542510113E+02 -0.79860026400E+02 -0.36720723211E+02  0.95283066571E+02  0.41800000000E+01 0.  1.
         -5    1    3    3    0  502  0.34942211222E+02  0.26918907052E+02 -0.45477783697E+02  0.63492416019E+02  0.41800000000E+01 0.  1.
        -11    1    1    2    0    0 -0.18192616777E+02  0.68290298285E+02 -0.79933553160E+02  0.10669540321E+03  0.00000000000E+00 0.  1.
         11    1    1    2    0    0  0.19792915668E+02 -0.15349178938E+02 -0.52361258373E+02  0.58043588648E+02  0.00000000000E+00 0. -1.
</event>
<event>
 7    1  0.2641580E-009  0.1747349E+03  0.7561462E-02  0.1172998E+00
         -2   -1    0    0    0  501 -0.00000000000E+00  0.00000000000E+00  0.29063203606E+03  0.29063203606E+03  0.00000000000E+00 0.  1.
          2   -1    0    0  501    0  0.00000000000E+00 -0.00000000000E+00 -0.11988364959E+03  0.11988364959E+03  0.00000000000E+00 0. -1.
         25    2    1    2    0    0  0.81238981359E+02 -0.12349555285E+03  0.52842915271E+02  0.20072751766E+03  0.12509292140E+03 0.  0.
          5    1    3    3  502    0 -0.32297724029E+02 -0.44859160945E+02  0.13293621946E+02  0.57005965325E+02  0.41800000000E+01 0. -1.
         -5    1    3    3    0  502  0.11353670539E+03 -0.78636391902E+02  0.39549293326E+02  0.14372155233E+03  0.41800000000E+01 0. -1.
        -11    1    1    2    0    0 -0.46253487828E+02  0.27782718489E+02  0.88626533333E+02  0.10375898512E+03  0.00000000000E+00 0.  1.
         11    1    1    2    0    0 -0.34985493531E+02  0.95712834358E+02  0.29278937858E+02  0.10602918287E+03  0.00000000000E+00 0. -1.
</event>
<event>
 7    1  0.2641580E-009  0.2192264E+03  0.7561462E-02  0.1134461E+00
         -2   -1    0    0    0  501 -0.00000000000E+00  0.00000000000E+00  0.38668708412E+02  0.38668708412E+02  0.00000000000E+00 0.  1.
          2   -1    0    0  501    0  0.00000000000E+00 -0.00000000000E+00 -0.15095220025E+04  0.15095220025E+04  0.00000000000E+00 0. -1.
         25    2    1    2    0    0  0.36958965673E+02 -0.19332586853E+03 -0.47599194039E+03  0.53005490476E+03  0.12509603574E+03 0.  0.
          5    1    3    3  502    0  0.85993632751E+01  0.11626816786E+02 -0.97731751462E+02  0.98884273578E+02  0.41800000000E+01 0.  1.
         -5    1    3    3    0  502  0.28359602398E+02 -0.20495268531E+03 -0.37826018893E+03  0.43117063118E+03  0.41800000000E+01 0.  1.
        -11    1    1    2    0    0 -0.60127889691E+02  0.76248918014E+02 -0.44661321623E+03  0.45704772785E+03  0.00000000000E+00 0.  1.
         11    1    1    2    0    0  0.23168924018E+02  0.11707695051E+03 -0.54824813750E+03  0.56108807834E+03  0.00000000000E+00 0. -1.
</event>
<event>
 7    1  0.2641580E-009  0.1094453E+03  0.7561462E-02  0.1261601E+00
          2   -1    0    0  501    0  0.00000000000E+00  0.00000000000E+00  0.75258820513E+03  0.75258820513E+03  0.00000000000E+00 0. -1.
         -2   -1    0    0    0  501 -0.00000000000E+00 -0.00000000000E+00 -0.29983184072E+02  0.29983184072E+02  0.00000000000E+00 0.  1.
         25    2    1    2    0    0  0.72262183512E+02  0.65306073200E+02  0.30164382384E+03  0.34076867925E+03  0.12509032709E+03 0.  0.
          5    1    3    3  502    0  0.64875549980E+02  0.71329445932E+02  0.31169846861E+03  0.32629761656E+03  0.41800000000E+01 0. -1.
         -5    1    3    3    0  502  0.73866335319E+01 -0.60233727317E+01 -0.10054644763E+02  0.14471062688E+02  0.41800000000E+01 0. -1.
        -11    1    1    2    0    0 -0.55059587243E+02 -0.12534574779E+02  0.90206277102E+02  0.10642295871E+03  0.00000000000E+00 0.  1.
         11    1    1    2    0    0 -0.17202596270E+02 -0.52771498422E+02  0.33075492011E+03  0.33537975124E+03  0.00000000000E+00 0. -1.
</event>
<event>
 7    1  0.2641580E-009  0.1496865E+03  0.7561462E-02  0.1200859E+00
         -1   -1    0    0    0  501 -0.00000000000E+00  0.00000000000E+00  0.13958632844E+03  0.13958632844E+03  0.00000000000E+00 0.  1.
          1   -1    0    0  501    0  0.00000000000E+00 -0.00000000000E+00 -0.18491149538E+03  0.18491149538E+03  0.00000000000E+00 0. -1.
         25    2    1    2    0    0  0.39377326336E+02  0.98660134092E+02  0.28362887586E+02  0.16654347733E+03  0.12509148877E+03 0.  0.
          5    1    3    3  502    0  0.68395157241E+02  0.10902590866E+03  0.72850034556E+01  0.12897709087E+03  0.41800000000E+01 0. -1.
         -5    1    3    3    0  502 -0.29017830905E+02 -0.10365774567E+02  0.21077884130E+02  0.37566386467E+02  0.41800000000E+01 0. -1.
        -11    1    1    2    0    0  0.47053770548E+01 -0.95168843085E+02 -0.46291209911E+02  0.10593453347E+03  0.00000000000E+00 0.  1.
         11    1    1    2    0    0 -0.44082703391E+02 -0.34912910068E+01 -0.27396844618E+02  0.52019813015E+02  0.00000000000E+00 0. -1.
</event>
<event>
 7    1  0.2641580E-009  0.2912185E+03  0.7561462E-02  0.1089715E+00
         -2   -1    0    0    0  501 -0.00000000000E+00  0.00000000000E+00  0.10526988648E+03  0.10526988648E+03  0.00000000000E+00 0.  1.
          2   -1    0    0  501    0  0.00000000000E+00 -0.00000000000E+00 -0.83069320169E+03  0.83069320169E+03  0.00000000000E+00 0. -1.
         25    2    1    2    0    0  0.13302688760E+03  0.24025066671E+03 -0.34081293335E+03  0.45521280967E+03  0.12509480752E+03 0.  0.
          5    1    3    3  502    0  0.65644745856E+02  0.21027190338E+03 -0.20670063432E+03  0.30210284779E+03  0.41800000000E+01 0. -1.
         -5    1    3    3    0  502  0.67382141742E+02  0.29978763321E+02 -0.13411229903E+03  0.15310996188E+03  0.41800000000E+01 0. -1.
        -11    1    1    2    0    0 -0.25642560775E+02 -0.61224444979E+00 -0.29479522469E+02  0.39076310104E+02  0.00000000000E+00 0.  1.
         11    1    1    2    0    0 -0.10738432682E+03 -0.23963842226E+03 -0.35513085940E+03  0.44167396840E+03  0.00000000000E+00 0. -1.
</event>
<event>
 7    1  0.2648064E-009  0.1105200E+03  0.7561462E-02  0.1259610E+00
          1   -1    0    0  501    0  0.00000000000E+00  0.00000000000E+00  0.10446573076E+03  0.10446573076E+03  0.00000000000E+00 0. -1.
         -1   -1    0    0    0  501 -0.00000000000E+00 -0.00000000000E+00 -0.14921032318E+03  0.14921032318E+03  0.00000000000E+00 0.  1.
         25    2    1    2    0    0 -0.40737363206E+02  0.11122989345E+02 -0.70269859582E+02  0.14955445856E+03  0.12508169033E+03 0.  0.
          5    1    3    3  502    0  0.35074858676E+02 -0.22393355345E+02 -0.16343321186E+01  0.41855125328E+02  0.41800000000E+01 0.  1.
         -5    1    3    3    0  502 -0.75812221882E+02  0.33516344690E+02 -0.68635527463E+02  0.10769933323E+03  0.41800000000E+01 0.  1.
        -11    1    1    2    0    0  0.39021955729E+02  0.33582280498E+02 -0.21280953267E+01  0.51526802560E+02  0.00000000000E+00 0.  1.
         11    1    1    2    0    0  0.17154074764E+01 -0.44705269843E+02  0.27653362498E+02  0.52594792822E+02  0.00000000000E+00 0. -1.
</event>
<event>
 7    1  0.2641580E-009  0.9057447E+02  0.7561462E-02  0.1301466E+00
         -3   -1    0    0    0  501 -0.00000000000E+00  0.00000000000E+00  0.25271033460E+03  0.25271033460E+03  0.00000000000E+00 0.  1.
          3   -1    0    0  501    0  0.00000000000E+00 -0.00000000000E+00 -0.78089420353E+02  0.78089420353E+02  0.00000000000E+00 0. -1.
         25    2    1    2    0    0  0.23491594230E+02 -0.34253589926E+02  0.11128384313E+02  0.13226575876E+03  0.12508088015E+03 0.  0.
          5    1    3    3  502    0  0.56870500644E+02 -0.39633373351E+02  0.46171441018E+02  0.83392640517E+02  0.41800000000E+01 0.  1.
         -5    1    3    3    0  502 -0.33378906414E+02  0.53797834256E+01 -0.35043056705E+02  0.48873118238E+02  0.41800000000E+01 0.  1.
        -11    1    1    2    0    0 -0.46360129921E+02  0.26983284604E+02  0.27196313333E+02  0.60141489450E+02  0.00000000000E+00 0. -1.
         11    1    1    2    0    0  0.22868535690E+02  0.72703053215E+01  0.13629621661E+03  0.13839250675E+03  0.00000000000E+00 0.  1.
</event>
<event>
 6    1  0.2641580E-009  0.2246723E+03  0.7561462E-02  0.1130447E+00
         -1   -1    0    0    0  501 -0.00000000000E+00  0.00000000000E+00  0.33760119927E+03  0.33760119927E+03  0.00000000000E+00 0.  1.
          1   -1    0    0  501    0  0.00000000000E+00 -0.00000000000E+00 -0.19896854194E+03  0.19896854194E+03  0.00000000000E+00 0. -1.
          5    1    1    2  502    0  0.18985522616E+03 -0.95552310325E+02  0.18801793861E+03  0.28380181209E+03  0.41800000000E+01 0. -1.
         -5    1    1    2    0  502 -0.18765781494E+02 -0.37187771381E+01  0.69589928622E+01  0.20781815131E+02  0.41800000000E+01 0. -1.
        -11    1    1    2    0    0 -0.56889789924E+02 -0.11544063671E+02  0.11194846309E+02  0.59118847988E+02  0.00000000000E+00 0.  1.
         11    1    1    2    0    0 -0.11419965474E+03  0.11081515113E+03 -0.67539120444E+02  0.17286726600E+03  0.00000000000E+00 0. -1.
</event>
<event>
 7    1  0.2641580E-009  0.9140466E+02  0.7561462E-02  0.1299485E+00
         -2   -1    0    0    0  501 -0.00000000000E+00  0.00000000000E+00  0.47096675134E+02  0.47096675134E+02  0.00000000000E+00 0.  1.
          2   -1    0    0  501    0  0.00000000000E+00 -0.00000000000E+00 -0.40450821303E+03  0.40450821303E+03  0.00000000000E+00 0. -1.
         25    2    1    2    0    0  0.57791292788E+02 -0.57139506019E+02 -0.23500144507E+03  0.27834700680E+03  0.12508645146E+03 0.  0.
          5    1    3    3  502    0  0.47250491753E+02 -0.65733233207E+02 -0.55402603005E+02  0.98185476209E+02  0.41800000000E+01 0.  1.
         -5    1    3    3    0  502  0.10540801034E+02  0.85937271878E+01 -0.17959884206E+03  0.18016153059E+03  0.41800000000E+01 0.  1.
        -11    1    1    2    0    0 -0.25776807266E+02  0.48809853556E+01  0.94232825502E+01  0.27875904736E+02  0.00000000000E+00 0.  1.
         11    1    1    2    0    0 -0.32014485522E+02  0.52258520663E+02 -0.13183337538E+03  0.14538197663E+03  0.00000000000E+00 0. -1.
</event>
<event>
 7    1  0.2641580E-009  0.1002848E+03  0.7561462E-02  0.1279698E+00
          1   -1    0    0  501    0  0.00000000000E+00  0.00000000000E+00  0.16379723865E+03  0.16379723865E+03  0.00000000000E+00 0. -1.
         -1   -1    0    0    0  501 -0.00000000000E+00 -0.00000000000E+00 -0.14560447016E+03  0.14560447016E+03  0.00000000000E+00 0.  1.
         25    2    1    2    0    0 -0.74607903035E+02 -0.16698244005E+01  0.88995878382E+02  0.17069640453E+03  0.12509144113E+03 0.  0.
          5    1    3    3  502    0 -0.50298022667E+02  0.14210317089E+02  0.11819630696E+03  0.12930453811E+03  0.41800000000E+01 0. -1.
         -5    1    3    3    0  502 -0.24309880368E+02 -0.15880141490E+02 -0.29200428578E+02  0.41391866428E+02  0.41800000000E+01 0. -1.
        -11    1    1    2    0    0  0.15496299762E+02  0.43635916393E+02 -0.21635808715E+02  0.51111023513E+02  0.00000000000E+00 0. -1.
         11    1    1    2    0    0  0.59111603273E+02 -0.41966091992E+02 -0.49167301170E+02  0.87594280766E+02  0.00000000000E+00 0.  1.
</event>
<event>
 7    1  0.2641580E-009  0.1142788E+03  0.7561462E-02  0.1252845E+00
          2   -1    0    0  501    0  0.00000000000E+00  0.00000000000E+00  0.37078775591E+03  0.37078775591E+03  0.00000000000E+00 0. -1.
         -2   -1    0    0    0  501 -0.00000000000E+00 -0.00000000000E+00 -0.35584621838E+02  0.35584621838E+02  0.00000000000E+00 0.  1.
         25    2    1    2    0    0 -0.11422270877E+02 -0.29105676280E+02  0.16924695331E+03  0.21276776183E+03  0.12509188866E+03 0.  0.
          5    1    3    3  502    0 -0.27820903214E+02 -0.74929748449E+02  0.10807183256E+03  0.13448220422E+03  0.41800000000E+01 0. -1.
         -5    1    3    3    0  502  0.16398632337E+02  0.45824072169E+02  0.61175120748E+02  0.78285557615E+02  0.41800000000E+01 0. -1.
        -11    1    1    2    0    0  0.20378831356E+02  0.62165079468E+02  0.10648266695E+03  0.12497340611E+03  0.00000000000E+00 0.  1.
         11    1    1    2    0    0 -0.89565604791E+01 -0.33059403188E+02  0.59473513816E+02  0.68631209813E+02  0.00000000000E+00 0. -1.
</event>
<event>
 7    1  0.2641580E-009  0.8570515E+02  0.7561462E-02  0.1313599E+00
         -1   -1    0    0    0  501 -0.00000000000E+00  0.00000000000E+00  0.22162978247E+03  0.22162978247E+03  0.00000000000E+00 0.  1.
          1   -1    0    0  501    0  0.00000000000E+00 -0.00000000000E+00 -0.14303353247E+03  0.14303353247E+03  0.00000000000E+00 0. -1.
         25    2    1    2    0    0  0.21914945687E+02 -0.28806213335E+02 -0.98438277532E+02  0.16324064372E+03  0.12508937008E+03 0.  0.
          5    1    3    3  502    0  0.27279751210E+02  0.26578355082E+02 -0.10034108968E+03  0.10740763689E+03  0.41800000000E+01 0. -1.
         -5    1    3    3    0  502 -0.53648055233E+01 -0.55384568417E+02  0.19028121449E+01  0.55833006825E+02  0.41800000000E+01 0. -1.
        -11    1    1    2    0    0  0.16836629733E+02 -0.12262715484E+02  0.11764548039E+03  0.11947512439E+03  0.00000000000E+00 0.  1.
         11    1    1    2    0    0 -0.38751575420E+02  0.41068928818E+02  0.59389047136E+02  0.81947546830E+02  0.00000000000E+00 0. -1.
</event>
<event>
 7    1  0.2641580E-009  0.1213528E+03  0.7561462E-02  0.1240882E+00
         -2   -1    0    0    0  501 -0.00000000000E+00  0.00000000000E+00  0.69865355703E+02  0.69865355703E+02  0.00000000000E+00 0.  1.
          2   -1    0    0  501    0  0.00000000000E+00 -0.00000000000E+00 -0.42658104818E+03  0.42658104818E+03  0.00000000000E+00 0. -1.
         25    2    1    2    0    0 -0.33571726913E+02  0.19743769559E+01 -0.15211185692E+02  0.13042559803E+03  0.12509395445E+03 0.  0.
          5    1    3    3  502    0  0.38572348746E+02 -0.72134187874E+01  0.25490067704E+02  0.46979521602E+02  0.41800000000E+01 0. -1.
         -5    1    3    3    0  502 -0.72144075658E+02  0.91877957433E+01 -0.40701253396E+02  0.83446076428E+02  0.41800000000E+01 0. -1.
        -11    1    1    2    0    0 -0.41948163390E+02 -0.28093672822E+02 -0.10790662815E+03  0.11913330039E+03  0.00000000000E+00 0. -1.
         11    1    1    2    0    0  0.75519890302E+02  0.26119295866E+02 -0.23359787863E+03  0.24688750546E+03  0.00000000000E+00 0.  1.
</event>
<event>
 7    1  0.2641580E-009  0.8000153E+02  0.7561462E-02  0.1329047E+00
          2   -1    0    0  501    0  0.00000000000E+00  0.00000000000E+00  0.11867794574E+03  0.11867794574E+03  0.00000000000E+00 0. -1.
         -2   -1    0    0    0  501 -0.00000000000E+00 -0.00000000000E+00 -0.14154942484E+03  0.14154942484E+03  0.00000000000E+00 0.  1.
         25    2    1    2    0    0  0.11991473575E+02  0.42947961923E+02  0.21596191420E+02  0.13454000768E+03  0.12508515224E+03 0.  0.
          5    1    3    3  502    0  0.35049079564E+01 -0.24179897537E+02 -0.37268272779E+02  0.44758779928E+02  0.41800000000E+01 0. -1.
         -5    1    3    3    0  502  0.84865656182E+01  0.67127859459E+02  0.58864464199E+02  0.89781227754E+02  0.41800000000E+01 0. -1.
        -11    1    1    2    0    0 -0.23776495411E+02 -0.94057514041E+00 -0.70824515235E+02  0.74714913999E+02  0.00000000000E+00 0.  1.
         11    1    1    2    0    0  0.11785021837E+02 -0.42007386782E+02  0.26356844707E+02  0.50972448900E+02  0.00000000000E+00 0. -1.
</event>
<event>
 7    1  0.2641580E-009  0.1075796E+03  0.7561462E-02  0.1265119E+00
          1   -1    0    0  501    0  0.00000000000E+00  0.00000000000E+00  0.35222186916E+03  0.35222186916E+03  0.00000000000E+00 0. -1.
         -1   -1    0    0    0  501 -0.00000000000E+00 -0.00000000000E+00 -0.64406597004E+02  0.64406597004E+02  0.00000000000E+00 0.  1.
         25    2    1    2    0    0  0.88211172194E+02  0.25383867979E+02  0.88816488966E+02  0.17877637694E+03  0.12508825919E+03 0.  0.
          5    1    3    3  502    0  0.45556816424E+02 -0.24761965884E+02 -0.16441320401E+02  0.54556098593E+02  0.41800000000E+01 0.  1.
         -5    1    3    3    0  502  0.42654355770E+02  0.50145833863E+02  0.10525780937E+03  0.12422027835E+03  0.41800000000E+01 0.  1.
        -11    1    1    2    0    0 -0.51535690690E+02 -0.30894707188E+02  0.34630929680E+02  0.69352084594E+02  0.00000000000E+00 0.  1.
         11    1    1    2    0    0 -0.36675481504E+02  0.55108392091E+01  0.16436785351E+03  0.16850000463E+03  0.00000000000E+00 0. -1.
</event>
<event>
 7    1  0.2641580E-009  0.2152801E+03  0.7561462E-02  0.1137452E+00
         -1   -1    0    0    0  501 -0.00000000000E+00  0.00000000000E+00  0.49410670827E+02  0.49410670827E+02  0.00000000000E+00 0.  1.
          1   -1    0    0  501    0  0.00000000000E+00 -0.00000000000E+00 -0.95608010129E+03  0.95608010129E+03  0.00000000000E+00 0. -1.
         25    2    1    2    0    0  0.18323893475E+03  0.37989622355E+02 -0.52929445630E+03  0.57516910790E+03  0.12508861897E+03 0.  0.
          5    1    3    3  502    0  0.18802574301E+03  0.62772761042E+02 -0.48587308258E+03  0.52477063975E+03  0.41800000000E+01 0. -1.
         -5    1    3    3    0  502 -0.47868082579E+01 -0.24783138687E+02 -0.43421373721E+02  0.50398468154E+02  0.41800000000E+01 0. -1.
        -11    1    1    2    0    0 -0.71210855539E+02  0.28190762444E+02 -0.13363897819E+03  0.15402948265E+03  0.00000000000E+00 0.  1.
         11    1    1    2    0    0 -0.11202807921E+03 -0.66180384799E+02 -0.24373599597E+03  0.27629218157E+03  0.00000000000E+00 0. -1.
</event>
<event>
 7    1  0.2641580E-009  0.1875662E+03  0.7561462E-02  0.1160675E+00
          1   -1    0    0  501    0  0.00000000000E+00  0.00000000000E+00  0.44897292090E+03  0.44897292090E+03  0.00000000000E+00 0. -1.
         -1   -1    0    0    0  501 -0.00000000000E+00 -0.00000000000E+00 -0.10698359918E+03  0.10698359918E+03  0.00000000000E+00 0.  1.
         25    2    1    2    0    0 -0.16585576961E+03 -0.33524450381E+02  0.67866878377E+02  0.22109792301E+03  0.12508538401E+03 0.  0.
          5    1    3    3  502    0 -0.91573847238E+02  0.21744921668E+02  0.84947644207E+02  0.12685497930E+03  0.41800000000E+01 0.  1.
         -5    1    3    3    0  502 -0.74281922375E+02 -0.55269372049E+02 -0.17080765830E+02  0.94242943713E+02  0.41800000000E+01 0.  1.
        -11    1    1    2    0    0  0.16421612900E+03  0.50016344222E+02  0.26553676905E+03  0.31619352845E+03  0.00000000000E+00 0. -1.
         11    1    1    2    0    0  0.16396406117E+01 -0.16491893841E+02  0.85856742900E+01  0.18665068626E+02  0.00000000000E+00 0.  1.
</event>
<event>
 7    1  0.2641580E-009  0.1234677E+03  0.7561462E-02  0.1237484E+00
         -1   -1    0    0    0  501 -0.00000000000E+00  0.00000000000E+00  0.85725679973E+02  0.85725679973E+02  0.00000000000E+00 0.  1.
          1   -1    0    0  501    0  0.00000000000E+00 -0.00000000000E+00 -0.22082843018E+03  0.22082843018E+03  0.00000000000E+00 0. -1.
         25    2    1    2    0    0 -0.22596068098E+02 -0.76239215029E+02 -0.56079968573E+02  0.15846343704E+03  0.12507077117E+03 0.  0.
          5    1    3    3  502    0  0.43272392055E+02 -0.46193474416E+02  0.50269584242E+01  0.63632379366E+02  0.41800000000E+01 0.  1.
         -5    1    3    3    0  502 -0.65868460153E+02 -0.30045740613E+02 -0.61106926997E+02  0.94831057671E+02  0.41800000000E+01 0.  1.
        -11    1    1    2    0    0 -0.26283937520E+02  0.88500890749E+01 -0.54751083022E+02  0.61374673444E+02  0.00000000000E+00 0. -1.
         11    1    1    2    0    0  0.48880005618E+02  0.67389125954E+02 -0.24271698616E+02  0.86715999676E+02  0.00000000000E+00 0.  1.
</event>
<event>
 7    1  0.2641580E-009  0.1164564E+03  0.7561462E-02  0.1249060E+00
          3   -1    0    0  501    0  0.00000000000E+00  0.00000000000E+00  0.31844262028E+03  0.31844262028E+03  0.00000000000E+00 0. -1.
         -3   -1    0    0    0  501 -0.00000000000E+00 -0.00000000000E+00 -0.47492597821E+02  0.47492597821E+02  0.00000000000E+00 0.  1.
         25    2    1    2    0    0  0.31412964405E+02  0.35061659153E+02  0.10006796590E+03  0.16696435752E+03  0.12508958632E+03 0.  0.
          5    1    3    3  502    0 -0.12683632682E+02  0.73545927550E+02  0.60884734894E+02  0.96406956908E+02  0.41800000000E+01 0. -1.
         -5    1    3    3    0  502  0.44096597087E+02 -0.38484268397E+02  0.39183231003E+02  0.70557400608E+02  0.41800000000E+01 0. -1.
        -11    1    1    2    0    0 -0.10635770061E+02  0.29661477339E+02  0.75802107270E+02  0.82090695632E+02  0.00000000000E+00 0. -1.
         11    1    1    2    0    0 -0.20777194344E+02 -0.64723136492E+02  0.95079949290E+02  0.11688016495E+03  0.00000000000E+00 0.  1.
</event>
<event>
 7    1  0.2641580E-009  0.1266653E+03  0.7561462E-02  0.1232489E+00
         -2   -1    0    0    0  501 -0.00000000000E+00  0.00000000000E+00  0.36075325596E+02  0.36075325596E+02  0.00000000000E+00 0.  1.
          2   -1    0    0  501    0  0.00000000000E+00 -0.00000000000E+00 -0.59471273807E+03  0.59471273807E+03  0.00000000000E+00 0. -1.
         25    2    1    2    0    0 -0.41473335316E+02 -0.86502312867E+02 -0.28528772234E+03  0.32594103521E+03  0.12508311732E+03 0.  0.
          5    1    3    3  502    0  0.19179088276E+02 -0.35396465965E+02 -0.21835857514E+03  0.22207811006E+03  0.41800000000E+01 0. -1.
         -5    1    3    3    0  502 -0.60652423592E+02 -0.51105846902E+02 -0.66929147200E+02  0.10386292515E+03  0.41800000000E+01 0. -1.
        -11    1    1    2    0    0  0.15652298799E+02  0.10208241029E+03 -0.19073406002E+03  0.21689927294E+03  0.00000000000E+00 0.  1.
         11    1    1    2    0    0  0.25821036516E+02 -0.15580097425E+02 -0.82615630112E+02  0.87947755522E+02  0.00000000000E+00 0. -1.
</event>
<event>
 7    1  0.2641580E-009  0.8139472E+02  0.7561462E-02  0.1325139E+00
          1   -1    0    0  501    0  0.00000000000E+00  0.00000000000E+00  0.61742122078E+03  0.61742122078E+03  0.00000000000E+00 0. -1.
         -1   -1    0    0    0  501 -0.00000000000E+00 -0.00000000000E+00 -0.44154155222E+02  0.44154155222E+02  0.00000000000E+00 0.  1.
         25    2    1    2    0    0 -0.27689378790E+00  0.54711379576E+02  0.53528088891E+03  0.55241201950E+03  0.12505997574E+03 0.  0.
          5    1    3    3  502    0 -0.81317427633E+01  0.69460437718E+02  0.13807063917E+03  0.15482845813E+03  0.41800000000E+01 0. -1.
         -5    1    3    3    0  502  0.78548489754E+01 -0.14749058142E+02  0.39721024974E+03  0.39758356136E+03  0.41800000000E+01 0. -1.
        -11    1    1    2    0    0 -0.25153431517E+02 -0.18361021951E+02 -0.19353544908E+02  0.36665814387E+02  0.00000000000E+00 0.  1.
         11    1    1    2    0    0  0.25430325305E+02 -0.36350357625E+02  0.57339721560E+02  0.72497542118E+02  0.00000000000E+00 0. -1.
</event>
<event>
 7    1  0.2641580E-009  0.1511383E+03  0.7561462E-02  0.1199081E+00
          1   -1    0    0  501    0  0.00000000000E+00  0.00000000000E+00  0.67745850729E+03  0.67745850729E+03  0.00000000000E+00 0. -1.
         -1   -1    0    0    0  501 -0.00000000000E+00 -0.00000000000E+00 -0.44147851318E+02  0.44147851318E+02  0.00000000000E+00 0.  1.
         25    2    1    2    0    0 -0.30431968729E+02 -0.13107354352E+03  0.33204280160E+03  0.37948074805E+03  0.12508731956E+03 0.  0.
          5    1    3    3  502    0  0.72871168854E+01 -0.49649453450E+02  0.19028439607E+02  0.53830513784E+02  0.41800000000E+01 0.  1.
         -5    1    3    3    0  502 -0.37719085615E+02 -0.81424090070E+02  0.31301436199E+03  0.32565023426E+03  0.41800000000E+01 0.  1.
        -11    1    1    2    0    0 -0.29651950861E+02  0.19880673303E+02  0.63000278976E+02  0.72412115781E+02  0.00000000000E+00 0. -1.
         11    1    1    2    0    0  0.60083919590E+02  0.11119287022E+03  0.23826757540E+03  0.26971349478E+03  0.00000000000E+00 0.  1.
</event>
<event>
 7    1  0.2641580E-009  0.1471674E+03  0.7561462E-02  0.1203998E+00
          2   -1    0    0  501    0  0.00000000000E+00  0.00000000000E+00  0.20913866713E+03  0.20913866713E+03  0.00000000000E+00 0. -1.
         -2   -1    0    0    0  501 -0.00000000000E+00 -0.00000000000E+00 -0.13388516007E+03  0.13388516007E+03  0.00000000000E+00 0.  1.
         25    2    1    2    0    0  0.98352533381E+02  0.47166678632E+02 -0.27653333817E+02  0.16826037788E+03  0.12509568936E+03 0.  0.
          5    1    3    3  502    0  0.88849615252E+02 -0.25392058710E+02 -0.11604807925E+02  0.93226362918E+02  0.41800000000E+01 0. -1.
         -5    1    3    3    0  502  0.95029181281E+01  0.72558737342E+02 -0.16048525892E+02  0.75034014959E+02  0.41800000000E+01 0. -1.
        -11    1    1    2    0    0 -0.24384097599E+02 -0.48796138303E+02  0.91201419312E+01  0.55306639004E+02  0.00000000000E+00 0.  1.
         11    1    1    2    0    0 -0.73968435781E+02  0.16294596705E+01  0.93786698949E+02  0.11945681031E+03  0.00000000000E+00 0. -1.
</event>
<event>
 7    1  0.2641580E-009  0.2010047E+03  0.7561462E-02  0.1148894E+00
          1   -1    0    0  501    0  0.00000000000E+00  0.00000000000E+00  0.36578376499E+03  0.36578376499E+03  0.00000000000E+00 0. -1.
         -1   -1    0    0    0  501 -0.00000000000E+00 -0.00000000000E+00 -0.19580421136E+03  0.19580421136E+03  0.00000000000E+00 0.  1.
         25    2    1    2    0    0  0.13014819947E+03 -0.12594204073E+03 -0.84443017804E+02  0.23574994183E+03  0.12508980920E+03 0.  0.
          5    1    3    3  502    0  0.32014726885E+02  0.23962132676E+02 -0.84434114098E+01  0.41083940124E+02  0.41800000000E+01 0. -1.
         -5    1    3    3    0  502  0.98133472589E+02 -0.14990417341E+03 -0.75999606394E+02  0.19466600170E+03  0.41800000000E+01 0. -1.
        -11    1    1    2    0    0 -0.16147045530E+02  0.27843786322E+02  0.23056030583E+01  0.32269479722E+02  0.00000000000E+00 0.  1.
         11    1    1    2    0    0 -0.11400115395E+03  0.98098254410E+02  0.25211696838E+03  0.29356855479E+03  0.00000000000E+00 0. -1.
</event>
<event>
 7    1  0.2653317E-009  0.9105978E+02  0.7561462E-02  0.1300305E+00
         -1   -1    0    0    0  501 -0.00000000000E+00  0.00000000000E+00  0.49647471255E+02  0.49647471255E+02  0.00000000000E+00 0.  1.
          1   -1    0    0  501    0  0.00000000000E+00 -0.00000000000E+00 -0.31525435682E+03  0.31525435682E+03  0.00000000000E+00 0. -1.
         25    2    1    2    0    0 -0.57307237202E+02 -0.10404205241E+02 -0.17760506833E+03  0.22490983862E+03  0.12509399781E+03 0.  0.
          5    1    3    3  502    0 -0.59390467295E+02  0.73683875626E+01 -0.19226213474E+03  0.20140437333E+03  0.41800000000E+01 0.  1.
         -5    1    3    3    0  502  0.20832300932E+01 -0.17772592803E+02  0.14657066412E+02  0.23505465288E+02  0.41800000000E+01 0.  1.
        -11    1    1    2    0    0  0.28166031480E+02 -0.37971215312E+02 -0.19318698246E+02  0.51072014093E+02  0.00000000000E+00 0.  1.
         11    1    1    2    0    0  0.29141205722E+02  0.48375420553E+02 -0.68683118992E+02  0.88919975366E+02  0.00000000000E+00 0. -1.
</event>
<event>
 7    1  0.2641580E-009  0.9144791E+02  0.7561462E-02  0.1299383E+00
         -2   -1    0    0    0  501 -0.00000000000E+00  0.00000000000E+00  0.43506446138E+02  0.43506446138E+02  0.00000000000E+00 0.  1.
          2   -1    0    0  501    0  0.00000000000E+00 -0.00000000000E+00 -0.33468728969E+03  0.33468728969E+03  0.00000000000E+00 0. -1.
         25    2    1    2    0    0  0.26136101372E+02 -0.28054640147E+02 -0.22301653090E+03  0.25856385730E+03  0.12509491044E+03 0.  0.
          5    1    3    3  502    0 -0.65450613100E+01 -0.69182778904E+02 -0.79473419052E+02  0.10565316588E+03  0.41800000000E+01 0. -1.
         -5    1    3    3    0  502  0.32681162682E+02  0.41128138757E+02 -0.14354311185E+03  0.15291069142E+03  0.41800000000E+01 0. -1.
        -11    1    1    2    0    0 -0.36852746431E+02  0.78049883979E+01 -0.83810043830E+02  0.91886703119E+02  0.00000000000E+00 0. -1.
         11    1    1    2    0    0  0.10716645059E+02  0.20249651749E+02  0.15645731182E+02  0.27743175404E+02  0.00000000000E+00 0.  1.
</event>
<event>
 7    1  0.2641580E-009  0.1275885E+03  0.7561462E-02  0.1231079E+00
         -4   -1    0    0    0  501 -0.00000000000E+00  0.00000000000E+00  0.13463690590E+03  0.13463690590E+03  0.00000000000E+00 0. -1.
          4   -1    0    0  501    0  0.00000000000E+00 -0.00000000000E+00 -0.16053167503E+03  0.16053167503E+03  0.00000000000E+00 0.  1.
         25    2    1    2    0    0  0.58431927879E+02 -0.75742794901E+02 -0.39424054361E+02  0.16234457132E+03  0.12510092965E+03 0.  0.
          5    1    3    3  502    0 -0.29697970236E+02  0.12690841097E+02 -0.82603330338E+01  0.33596612712E+02  0.41800000000E+01 0. -1.
         -5    1    3    3    0  502  0.88129898115E+02 -0.88433635998E+02 -0.31163721327E+02  0.12874795860E+03  0.41800000000E+01 0. -1.
        -11    1    1    2    0    0 -0.50703347565E+02  0.51598547119E+02 -0.33250376156E+02  0.79616750962E+02  0.00000000000E+00 0.  1.
         11    1    1    2    0    0 -0.77285803132E+01  0.24144247781E+02  0.46779661383E+02  0.53207258656E+02  0.00000000000E+00 0. -1.
</event>
<event>
 7    1  0.2641580E-009  0.1261180E+03  0.7561462E-02  0.1233332E+00
         -1   -1    0    0    0  501 -0.00000000000E+00  0.00000000000E+00  0.12089202583E+03  0.12089202583E+03  0.00000000000E+00 0.  1.
          1   -1    0    0  501    0  0.00000000000E+00 -0.00000000000E+00 -0.16569343947E+03  0.16569343947E+03  0.00000000000E+00 0. -1.
         25    2    1    2    0    0  0.27153129132E+02 -0.62496142317E+02  0.36411338447E+02  0.14702256153E+03  0.12508712086E+03 0.  0.
          5    1    3    3  502    0 -0.45729860801E+02 -0.49804467468E+02  0.10656900660E+02  0.68576578220E+02  0.41800000000E+01 0. -1.
         -5    1    3    3    0  502  0.72882989933E+02 -0.12691674849E+02  0.25754437787E+02  0.78445983312E+02  0.41800000000E+01 0. -1.
        -11    1    1    2    0    0 -0.37823702863E+02 -0.83626102219E+01 -0.13636242596E+02  0.41067174972E+02  0.00000000000E+00 0.  1.
         11    1    1    2    0    0  0.10670573731E+02  0.70858752539E+02 -0.67576509490E+02  0.98495728791E+02  0.00000000000E+00 0. -1.
</event>
<event>
 7    1  0.2641580E-009  0.1880401E+03  0.7561462E-02  0.1160241E+00
         -1   -1    0    0    0  501 -0.00000000000E+00  0.00000000000E+00  0.80756408885E+02  0.80756408885E+02  0.00000000000E+00 0.  1.
          1   -1    0    0  501    0  0.00000000000E+00 -0.00000000000E+00 -0.54009059759E+03  0.54009059759E+03  0.00000000000E+00 0. -1.
         25    2    1    2    0    0 -0.13486178598E+03 -0.90682737936E+02 -0.35166353873E+03  0.40709322032E+03  0.12508631134E+03 0.  0.
          5    1    3    3  502    0 -0.12110256360E+03 -0.17201877005E+02 -0.26915941087E+03  0.29567887368E+03  0.41800000000E+01 0.  1.
         -5    1    3    3    0  502 -0.13759222377E+02 -0.73480860931E+02 -0.82504127863E+02  0.11141434664E+03  0.41800000000E+01 0.  1.
        -11    1    1    2    0    0  0.49421054875E+02  0.78143380538E+02 -0.28907307094E+02  0.96873427679E+02  0.00000000000E+00 0.  1.
         11    1    1    2    0    0  0.85440731101E+02  0.12539357398E+02 -0.78763342883E+02  0.11688035847E+03  0.00000000000E+00 0. -1.
</event>
<event>
 7    1  0.2641580E-009  0.9852790E+02  0.7561462E-02  0.1283422E+00
          2   -1    0    0  501    0  0.00000000000E+00  0.00000000000E+00  0.69430688329E+03  0.69430688329E+03  0.00000000000E+00 0. -1.
         -2   -1    0    0    0  501 -0.00000000000E+00 -0.00000000000E+00 -0.18868631794E+02  0.18868631794E+02  0.00000000000E+00 0.  1.
         25    2    1    2    0    0 -0.16132992066E+02 -0.28738627411E+02  0.33289460881E+03  0.35714493485E+03  0.12508997471E+03 0.  0.
          5    1    3    3  502    0 -0.14618674554E+02  0.35891985876E+02  0.35324352136E+02  0.52604396676E+02  0.41800000000E+01 0. -1.
         -5    1    3    3    0  502 -0.15143175127E+01 -0.64630613287E+02  0.29757025667E+03  0.30454053817E+03  0.41800000000E+01 0. -1.
        -11    1    1    2    0    0 -0.85709037093E+01  0.55913963689E+02  0.15681391190E+03  0.16670463308E+03  0.00000000000E+00 0. -1.
         11    1    1    2    0    0  0.24703895776E+02 -0.27175336278E+02  0.18572973079E+03  0.18932594716E+03  0.00000000000E+00 0.  1.
</event>
<event>
 7    1  0.2641580E-009  0.1233646E+03  0.7561462E-02  0.1237648E+00
         -2   -1    0    0    0  501 -0.00000000000E+00  0.00000000000E+00  0.38089294206E+02  0.38089294206E+02  0.00000000000E+00 0.  1.
          2   -1    0    0  501    0  0.00000000000E+00 -0.00000000000E+00 -0.47508712801E+03  0.47508712801E+03  0.00000000000E+00 0. -1.
         25    2    1    2    0    0 -0.39194027204E+02 -0.60057541293E+02 -0.18649080322E+03  0.23573219793E+03  0.12509104452E+03 0.  0.
          5    1    3    3  502    0 -0.53359729569E+01 -0.87724237155E+02 -0.16463524248E+03  0.18667150253E+03  0.41800000000E+01 0.  1.
         -5    1    3    3    0  502 -0.33858054247E+02  0.27666695863E+02 -0.21855560744E+02  0.49060695397E+02  0.41800000000E+01 0.  1.
        -11    1    1    2    0    0 -0.16864696090E+02  0.56146689015E+02 -0.90241976964E+02  0.10761265292E+03  0.00000000000E+00 0.  1.
         11    1    1    2    0    0  0.56058723295E+02  0.39108522777E+01 -0.16026505362E+03  0.16983157137E+03  0.00000000000E+00 0. -1.
</event>
<event>
 7    1  0.2641580E-009  0.1872370E+03  0.7561462E-02  0.1160977E+00
         -2   -1    0    0    0  501 -0.00000000000E+00  0.00000000000E+00  0.10259786857E+03  0.10259786857E+03  0.00000000000E+00 0. -1.
          2   -1    0    0  501    0  0.00000000000E+00 -0.00000000000E+00 -0.41141340008E+03  0.41141340008E+03  0.00000000000E+00 0.  1.
         25    2    1    2    0    0  0.39619232741E+01 -0.16547298426E+03 -0.22717998021E+03  0.30766031087E+03  0.12508844119E+03 0.  0.
          5    1    3    3  502    0 -0.46245496886E+02 -0.15027365460E+02 -0.52278049739E+02  0.71518770819E+02  0.41800000000E+01 0. -1.
         -5    1    3    3    0  502  0.50207420160E+02 -0.15044561880E+03 -0.17490193047E+03  0.23614154005E+03  0.41800000000E+01 0. -1.
        -11    1    1    2    0    0  0.52076562563E+01  0.10056265952E+02  0.18176805416E+02  0.21415985238E+02  0.00000000000E+00 0. -1.
         11    1    1    2    0    0 -0.91695795304E+01  0.15541671830E+03 -0.99812356724E+02  0.18493497255E+03  0.00000000000E+00 0.  1.
</event>
<event>
 7    1  0.2641580E-009  0.1682900E+03  0.7561462E-02  0.1179643E+00
          1   -1    0    0  501    0  0.00000000000E+00  0.00000000000E+00  0.30140429843E+03  0.30140429843E+03  0.00000000000E+00 0. -1.
         -1   -1    0    0    0  501 -0.00000000000E+00 -0.00000000000E+00 -0.12698541517E+03  0.12698541517E+03  0.00000000000E+00 0.  1.
         25    2    1    2    0    0  0.15222440971E+03 -0.36450323551E+02  0.43064005214E+02  0.20494842349E+03  0.12509376781E+03 0.  0.
          5    1    3    3  502    0  0.56133594086E+02 -0.47842840614E+02 -0.33859019387E+02  0.81263911898E+02  0.41800000000E+01 0. -1.
         -5    1    3    3    0  502  0.96090815628E+02  0.11392517063E+02  0.76923024601E+02  0.12368451159E+03  0.41800000000E+01 0. -1.
        -11    1    1    2    0    0 -0.10250240418E+03  0.50381793281E+02  0.12821436671E+03  0.17170903234E+03  0.00000000000E+00 0. -1.
         11    1    1    2    0    0 -0.49722005534E+02 -0.13931469730E+02  0.31405113339E+01  0.51732257776E+02  0.00000000000E+00 0.  1.
</event>
<event>
 7    1  0.2641580E-009  0.1388652E+03  0.7561462E-02  0.1214864E+00
          1   -1    0    0  501    0  0.00000000000E+00  0.00000000000E+00  0.43400560527E+03  0.43400560527E+03  0.00000000000E+00 0. -1.
         -1   -1    0    0    0  501 -0.00000000000E+00 -0.00000000000E+00 -0.50428625434E+02  0.50428625434E+02  0.00000000000E+00 0.  1.
         25    2    1    2    0    0 -0.35255107006E+01  0.99470947516E+02  0.19180566951E+03  0.24968471817E+03  0.12508455142E+03 0.  0.
          5    1    3    3  502    0 -0.33466979085E+02  0.10639358938E+03  0.90359115363E+02  0.14360319175E+03  0.41800000000E+01 0. -1.
         -5    1    3    3    0  502  0.29941468385E+02 -0.69226418646E+01  0.10144655415E+03  0.10608152642E+03  0.41800000000E+01 0. -1.
        -11    1    1    2    0    0  0.46574672403E+02 -0.64954425675E+02  0.10585792431E+03  0.13264304604E+03  0.00000000000E+00 0.  1.
         11    1    1    2    0    0 -0.43049161702E+02 -0.34516521842E+02  0.85913386019E+02  0.10210646650E+03  0.00000000000E+00 0. -1.
</event>
<event>
 7    1  0.2641580E-009  0.1517851E+03  0.7561462E-02  0.1198296E+00
          4   -1    0    0  501    0  0.00000000000E+00  0.00000000000E+00  0.74926893924E+02  0.74926893924E+02  0.00000000000E+00 0. -1.
         -4   -1    0    0    0  501 -0.00000000000E+00 -0.00000000000E+00 -0.35755231349E+03  0.35755231349E+03  0.00000000000E+00 0.  1.
         25    2    1    2    0    0 -0.76945510945E+02 -0.87708797884E+02 -0.89291742721E+02  0.19296198765E+03  0.12509144047E+03 0.  0.
          5    1    3    3  502    0  0.25411710928E+02 -0.44031443723E+02 -0.58092119744E+02  0.77309054224E+02  0.41800000000E+01 0.  1.
         -5    1    3    3    0  502 -0.10235722187E+03 -0.43677354162E+02 -0.31199622977E+02  0.11565293343E+03  0.41800000000E+01 0.  1.
        -11    1    1    2    0    0 -0.20643962587E+01  0.56035185307E+02 -0.70715949887E+02  0.90249372811E+02  0.00000000000E+00 0.  1.
         11    1    1    2    0    0  0.79009907204E+02  0.31673612577E+02 -0.12261772696E+03  0.14926784696E+03  0.00000000000E+00 0. -1.
</event>
<event>
 7    1  0.2641580E-009  0.6836998E+02  0.7561462E-02  0.1365725E+00
         -2   -1    0    0    0  501 -0.00000000000E+00  0.00000000000E+00  0.13254556189E+02  0.13254556189E+02  0.00000000000E+00 0.  1.
          2   -1    0    0  501    0  0.00000000000E+00 -0.00000000000E+00 -0.10453440065E+04  0.10453440065E+04  0.00000000000E+00 0. -1.
         25    2    1    2    0    0  0.70006023580E+01  0.51575709868E+01 -0.79821833328E+03  0.80800693308E+03  0.12508831822E+03 0.  0.
          5    1    3    3  502    0 -0.17932877945E+02  0.16536895147E+02 -0.76196898116E+03  0.76237081375E+03  0.41800000000E+01 0. -1.
         -5    1    3    3    0  502  0.24933480303E+02 -0.11379324161E+02 -0.36249352117E+02  0.45636119328E+02  0.41800000000E+01 0. -1.
        -11    1    1    2    0    0 -0.26915425537E+02  0.32178425022E+02 -0.16050799109E+03  0.16589968768E+03  0.00000000000E+00 0. -1.
         11    1    1    2    0    0  0.19914823179E+02 -0.37335996008E+02 -0.73363125990E+02  0.84691941973E+02  0.00000000000E+00 0.  1.
</event>
<event>
 7    1  0.2641580E-009  0.7284824E+02  0.7561462E-02  0.1350667E+00
          2   -1    0    0  501    0  0.00000000000E+00  0.00000000000E+00  0.38836251100E+02  0.38836251100E+02  0.00000000000E+00 0. -1.
         -2   -1    0    0    0  501 -0.00000000000E+00 -0.00000000000E+00 -0.29719608086E+03  0.29719608086E+03  0.00000000000E+00 0.  1.
         25    2    1    2    0    0 -0.40050978434E+00 -0.14293254580E+01 -0.16218068179E+03  0.20482299147E+03  0.12509069073E+03 0.  0.
          5    1    3    3  502    0  0.11237032073E+02 -0.33170065242E+02 -0.16676281652E+03  0.17045185094E+03  0.41800000000E+01 0.  1.
         -5    1    3    3    0  502 -0.11637541857E+02  0.31740739784E+02  0.45821347214E+01  0.34371140526E+02  0.41800000000E+01 0.  1.
        -11    1    1    2    0    0 -0.49190037273E+01 -0.37121355221E+02 -0.81366671558E+02  0.89569675960E+02  0.00000000000E+00 0.  1.
         11    1    1    2    0    0  0.53195135117E+01  0.38550680680E+02 -0.14812476409E+02  0.41639664530E+02  0.00000000000E+00 0. -1.
</event>
<event>
 7    1  0.2641580E-009  0.2206275E+03  0.7561462E-02  0.1133416E+00
         -2   -1    0    0    0  501 -0.00000000000E+00  0.00000000000E+00  0.13003416463E+03  0.13003416463E+03  0.00000000000E+00 0.  1.
          2   -1    0    0  501    0  0.00000000000E+00 -0.00000000000E+00 -0.49805328392E+03  0.49805328392E+03  0.00000000000E+00 0. -1.
         25    2    1    2    0    0  0.18253129572E+03 -0.84707128188E+02 -0.54156258692E+02  0.24304881601E+03  0.12508738996E+03 0.  0.
          5    1    3    3  502    0  0.13235990838E+01  0.21273192728E+02 -0.21494755034E+02  0.30558101010E+02  0.41800000000E+01 0.  1.
         -5    1    3    3    0  502  0.18120769663E+03 -0.10598032092E+03 -0.32661503657E+02  0.21249071500E+03  0.41800000000E+01 0.  1.
        -11    1    1    2    0    0 -0.12316465737E+03  0.85949596108E+02 -0.27714357683E+03  0.31522282289E+03  0.00000000000E+00 0. -1.
         11    1    1    2    0    0 -0.59366638345E+02 -0.12424679199E+01 -0.36719283772E+02  0.69815809640E+02  0.00000000000E+00 0.  1.
</event>
<event>
 7    1  0.2641580E-009  0.1207847E+03  0.7561462E-02  0.1241808E+00
          1   -1    0    0  501    0  0.00000000000E+00  0.00000000000E+00  0.41372543854E+03  0.41372543854E+03  0.00000000000E+00 0. -1.
         -1   -1    0    0    0  501 -0.00000000000E+00 -0.00000000000E+00 -0.59789644374E+02  0.59789644374E+02  0.00000000000E+00 0.  1.
         25    2    1    2    0    0  0.22317179144E+02  0.61141268093E+02  0.49783290009E+02  0.14952272797E+03  0.12506941699E+03 0.  0.
          5    1    3    3  502    0  0.55908810151E+02  0.79473439777E+02  0.16531078749E+02  0.98653796922E+02  0.41800000000E+01 0. -1.
         -5    1    3    3    0  502 -0.33591631007E+02 -0.18332171684E+02  0.33252211260E+02  0.50868931049E+02  0.41800000000E+01 0. -1.
        -11    1    1    2    0    0  0.26518133025E+02 -0.48648460386E+02  0.21010322420E+03  0.21728609918E+03  0.00000000000E+00 0.  1.
         11    1    1    2    0    0 -0.48835312169E+02 -0.12492807707E+02  0.94049279962E+02  0.10670625577E+03  0.00000000000E+00 0. -1.
</event>
<event>
 7    1  0.2641580E-009  0.1072490E+03  0.7561462E-02  0.1265751E+00
         -2   -1    0    0    0  501 -0.00000000000E+00  0.00000000000E+00  0.27832633007E+02  0.27832633007E+02  0.00000000000E+00 0. -1.
          2   -1    0    0  501    0  0.00000000000E+00 -0.00000000000E+00 -0.50582114901E+03  0.50582114901E+03  0.00000000000E+00 0.  1.
         25    2    1    2    0    0  0.12673783853E+02 -0.78099606490E+01 -0.37779647123E+03  0.39824523888E+03  0.12508987305E+03 0.  0.
          5    1    3    3  502    0  0.45751627447E+02  0.43860200184E+02 -0.21647300631E+03  0.22559912109E+03  0.41800000000E+01 0.  1.
         -5    1    3    3    0  502 -0.33077843594E+02 -0.51670160833E+02 -0.16132346492E+03  0.17264611780E+03  0.41800000000E+01 0.  1.
        -11    1    1    2    0    0 -0.28076712538E+02  0.42840067418E+02 -0.44588465497E+02  0.67909531133E+02  0.00000000000E+00 0. -1.
         11    1    1    2    0    0  0.15402928685E+02 -0.35030106769E+02 -0.55603579277E+02  0.67499011998E+02  0.00000000000E+00 0.  1.
</event>
<event>
 7    1  0.2641580E-009  0.1141955E+03  0.7561462E-02  0.1252992E+00
         -4   -1    0    0    0  501 -0.00000000000E+00  0.00000000000E+00  0.60979560264E+02  0.60979560264E+02  0.00000000000E+00 0.  1.
          4   -1    0    0  501    0  0.00000000000E+00 -0.00000000000E+00 -0.22645545183E+03  0.22645545183E+03  0.00000000000E+00 0. -1.
         25    2    1    2    0    0 -0.75572552625E+01  0.42079700224E+02 -0.74214128958E+02  0.15160419016E+03  0.12509308637E+03 0.  0.
          5    1    3    3  502    0  0.58335546199E+02  0.18137328320E+02 -0.26647554810E+02  0.66779961113E+02  0.41800000000E+01 0. -1.
         -5    1    3    3    0  502 -0.65892801461E+02  0.23942371904E+02 -0.47566574148E+02  0.84824229044E+02  0.41800000000E+01 0. -1.
        -11    1    1    2    0    0 -0.35966881271E+02 -0.39357832332E+02 -0.31759472338E+02  0.62059000938E+02  0.00000000000E+00 0. -1.
         11    1    1    2    0    0  0.43524136533E+02 -0.27218678921E+01 -0.59502290268E+02  0.73771820995E+02  0.00000000000E+00 0.  1.
</event>
<event>
 7    1  0.3836323E-009  0.1862614E+03  0.7561462E-02  0.1161877E+00
          2   -1    0    0  501    0  0.00000000000E+00  0.00000000000E+00  0.13855620641E+04  0.13855620641E+04  0.00000000000E+00 0.  1.
         -2   -1    0    0    0  501 -0.00000000000E+00 -0.00000000000E+00 -0.26453965450E+02  0.26453965450E+02  0.00000000000E+00 0. -1.
         25    2    1    2    0    0  0.15079476233E+03 -0.29702002025E+02  0.58862967600E+03  0.62109036772E+03  0.12508828938E+03 0.  0.
          5    1    3    3  502    0  0.17036600401E+03 -0.36667180339E+02  0.55085353447E+03  0.57777690009E+03  0.41800000000E+01 0.  1.
         -5    1    3    3    0  502 -0.19571241678E+02  0.69651783144E+01  0.37776141526E+02  0.43313467633E+02  0.41800000000E+01 0.  1.
        -11    1    1    2    0    0 -0.66661089746E+02 -0.30753876133E+02  0.26768126743E+03  0.27756578088E+03  0.00000000000E+00 0. -1.
         11    1    1    2    0    0 -0.84133672585E+02  0.60455878157E+02  0.50279715518E+03  0.51335988090E+03  0.00000000000E+00 0.  1.
</event>
<event>
 7    1  0.2641580E-009  0.1077960E+03  0.7561462E-02  0.1264707E+00
          2   -1    0    0  501    0  0.00000000000E+00  0.00000000000E+00  0.12313025441E+04  0.12313025441E+04  0.00000000000E+00 0. -1.
         -2   -1    0    0    0  501 -0.00000000000E+00 -0.00000000000E+00 -0.10452134419E+02  0.10452134419E+02  0.00000000000E+00 0.  1.
         25    2    1    2    0    0  0.17813636890E+02  0.17629468166E+02  0.78487315502E+03  0.79517381145E+03  0.12508955642E+03 0.  0.
          5    1    3    3  502    0  0.56802212763E+02  0.47437203304E+02  0.36721414169E+03  0.37462044510E+03  0.41800000000E+01 0. -1.
         -5    1    3    3    0  502 -0.38988575873E+02 -0.29807735138E+02  0.41765901334E+03  0.42055336635E+03  0.41800000000E+01 0. -1.
        -11    1    1    2    0    0  0.34608332189E+02  0.52717298471E+01  0.10461656727E+03  0.11031842067E+03  0.00000000000E+00 0.  1.
         11    1    1    2    0    0 -0.52421969079E+02 -0.22901198013E+02  0.33136068735E+03  0.33626244636E+03  0.00000000000E+00 0. -1.
</event>
<event>
 7    1  0.2641580E-009  0.9740159E+02  0.7561462E-02  0.1285857E+00
         -2   -1    0    0    0  501 -0.00000000000E+00  0.00000000000E+00  0.40667405251E+02  0.40667405251E+02  0.00000000000E+00 0.  1.
          2   -1    0    0  501    0  0.00000000000E+00 -0.00000000000E+00 -0.37568654011E+03  0.37568654011E+03  0.00000000000E+00 0. -1.
         25    2    1    2    0    0 -0.24946409891E+02 -0.49530617475E+02 -0.15526437531E+03  0.20695473319E+03  0.12509048690E+03 0.  0.
          5    1    3    3  502    0 -0.10824552105E+02  0.26554719797E+02  0.45567217301E+01  0.29335306112E+02  0.41800000000E+01 0.  1.
         -5    1    3    3    0  502 -0.14121857787E+02 -0.76085337272E+02 -0.15982109704E+03  0.17761942708E+03  0.41800000000E+01 0.  1.
        -11    1    1    2    0    0  0.48135570705E+02  0.42176077400E+02 -0.61817355423E+02  0.88978874479E+02  0.00000000000E+00 0.  1.
         11    1    1    2    0    0 -0.23189160814E+02  0.73545400745E+01 -0.11793740412E+03  0.12042033769E+03  0.00000000000E+00 0. -1.
</event>
<event>
 7    1  0.2641580E-009  0.1351067E+03  0.7561462E-02  0.1220069E+00
         -2   -1    0    0    0  501 -0.00000000000E+00  0.00000000000E+00  0.10943897536E+03  0.10943897536E+03  0.00000000000E+00 0.  1.
          2   -1    0    0  501    0  0.00000000000E+00 -0.00000000000E+00 -0.21894272904E+03  0.21894272904E+03  0.00000000000E+00 0. -1.
         25    2    1    2    0    0 -0.92306699192E+02  0.58263875868E+02 -0.73248445021E+02  0.18146240668E+03  0.12509222355E+03 0.  0.
          5    1    3    3  502    0 -0.28374963254E+02  0.67136641712E+02 -0.88781306155E+02  0.11494372502E+03  0.41800000000E+01 0. -1.
         -5    1    3    3    0  502 -0.63931735938E+02 -0.88727658433E+01  0.15532861134E+02  0.66518681653E+02  0.41800000000E+01 0. -1.
        -11    1    1    2    0    0  0.10234637343E+03 -0.64246295905E+02 -0.13827040672E+02  0.12162875377E+03  0.00000000000E+00 0. -1.
         11    1    1    2    0    0 -0.10039674234E+02  0.59824200368E+01 -0.22428267984E+02  0.25290543944E+02  0.00000000000E+00 0.  1.
</event>
<event>
 7    1  0.2641580E-009  0.1001014E+03  0.7561462E-02  0.1280083E+00
         -1   -1    0    0    0  501 -0.00000000000E+00  0.00000000000E+00  0.39797562635E+02  0.39797562635E+02  0.00000000000E+00 0.  1.
          1   -1    0    0  501    0  0.00000000000E+00 -0.00000000000E+00 -0.33980912705E+03  0.33980912705E+03  0.00000000000E+00 0. -1.
         25    2    1    2    0    0 -0.30190960120E+02 -0.26465024706E+02 -0.17710593627E+03  0.22051179999E+03  0.12508816756E+03 0.  0.
          5    1    3    3  502    0  0.10799454172E+02 -0.69634561717E+02 -0.11007396292E+03  0.13076448337E+03  0.41800000000E+01 0. -1.
         -5    1    3    3    0  502 -0.40990414292E+02  0.43169537011E+02 -0.67031973350E+02  0.89747316622E+02  0.41800000000E+01 0. -1.
        -11    1    1    2    0    0  0.19564572809E+01 -0.17541300757E+02  0.70573982403E+01  0.19008730291E+02  0.00000000000E+00 0.  1.
         11    1    1    2    0    0  0.28234502839E+02  0.44006325462E+02 -0.12996302638E+03  0.14008615941E+03  0.00000000000E+00 0. -1.
</event>
<event>
 7    1  0.2641580E-009  0.3170157E+03  0.7561462E-02  0.1077031E+00
          2   -1    0    0  501    0  0.00000000000E+00  0.00000000000E+00  0.47391575894E+03  0.47391575894E+03  0.00000000000E+00 0. -1.
         -2   -1    0    0    0  501 -0.00000000000E+00 -0.00000000000E+00 -0.23156474216E+03  0.23156474216E+03  0.00000000000E+00 0.  1.
         25    2    1    2    0    0 -0.11768904220E+03  0.28698339692E+03  0.82139353265E+02  0.34438994713E+03  0.12508949422E+03 0.  0.
          5    1    3    3  502    0 -0.12296230054E+03  0.25450613348E+03  0.10771072941E+03  0.30250978986E+03  0.41800000000E+01 0.  1.
         -5    1    3    3    0  502  0.52732583453E+01  0.32477263445E+02 -0.25571376147E+02  0.41880157264E+02  0.41800000000E+01 0.  1.
        -11    1    1    2    0    0  0.20605611184E+02 -0.14329044631E+03  0.40347548115E+02  0.15028196117E+03  0.00000000000E+00 0. -1.
         11    1    1    2    0    0  0.97083431013E+02 -0.14369295062E+03  0.11986411540E+03  0.21080859279E+03  0.00000000000E+00 0.  1.
</event>
<event>
 7    1  0.2641580E-009  0.1298219E+03  0.7561462E-02  0.1227720E+00
         -1   -1    0    0    0  501 -0.00000000000E+00  0.00000000000E+00  0.27122881427E+02  0.27122881427E+02  0.00000000000E+00 0.  1.
          1   -1    0    0  501    0  0.00000000000E+00 -0.00000000000E+00 -0.75278802940E+03  0.75278802940E+03  0.00000000000E+00 0. -1.
         25    2    1    2    0    0  0.77863176389E+02 -0.49719490793E+02 -0.48284285427E+03  0.50726684429E+03  0.12509087654E+03 0.  0.
          5    1    3    3  502    0 -0.69906176673E+01  0.27312135899E+02 -0.35857162023E+02  0.45804257128E+02  0.41800000000E+01 0.  1.
         -5    1    3    3    0  502  0.84853794056E+02 -0.77031626692E+02 -0.44698569224E+03  0.46146258716E+03  0.41800000000E+01 0.  1.
        -11    1    1    2    0    0 -0.18919319695E+02 -0.18393337220E+02 -0.22709342069E+02  0.34813355612E+02  0.00000000000E+00 0.  1.
         11    1    1    2    0    0 -0.58943856694E+02  0.68112828013E+02 -0.22011295164E+03  0.23783071093E+03  0.00000000000E+00 0. -1.
</event>
<event>
 7    1  0.2941671E-009  0.1523668E+03  0.7561462E-02  0.1197595E+00
         -2   -1    0    0    0  501 -0.00000000000E+00  0.00000000000E+00  0.94299594699E+02  0.94299594699E+02  0.00000000000E+00 0.  1.
          2   -1    0    0  501    0  0.00000000000E+00 -0.00000000000E+00 -0.47458739211E+03  0.47458739211E+03  0.00000000000E+00 0. -1.
         25    2    1    2    0    0 -0.11020680805E+03  0.72054299610E+02 -0.30547027534E+02  0.18419460995E+03  0.12512861707E+03 0.  0.
          5    1    3    3  502    0 -0.11012891439E+01  0.44214850577E+02 -0.53149422343E+02  0.69271201409E+02  0.41800000000E+01 0.  1.
         -5    1    3    3    0  502 -0.10910551891E+03  0.27839449033E+02  0.22602394808E+02  0.11492340854E+03  0.41800000000E+01 0.  1.
        -11    1    1    2    0    0  0.11174114535E+03 -0.44889089049E+02 -0.32939913812E+03  0.35072055268E+03  0.00000000000E+00 0. -1.
         11    1    1    2    0    0 -0.15343373016E+01 -0.27165210561E+02 -0.20341631765E+02  0.33971824188E+02  0.00000000000E+00 0.  1.
</event>
<event>
 7    1  0.2641580E-009  0.1443529E+03  0.7561462E-02  0.1207589E+00
          1   -1    0    0  501    0  0.00000000000E+00  0.00000000000E+00  0.28366364136E+03  0.28366364136E+03  0.00000000000E+00 0. -1.
         -1   -1    0    0    0  501 -0.00000000000E+00 -0.00000000000E+00 -0.10006611147E+03  0.10006611147E+03  0.00000000000E+00 0.  1.
         25    2    1    2    0    0 -0.11456584063E+03 -0.55420215132E+02  0.10308059809E+03  0.20609595875E+03  0.12511275885E+03 0.  0.
          5    1    3    3  502    0  0.17488920536E+01 -0.19953976608E+02 -0.23064762855E+02  0.30833025986E+02  0.41800000000E+01 0. -1.
         -5    1    3    3    0  502 -0.11631473268E+03 -0.35466238524E+02  0.12614536094E+03  0.17526293276E+03  0.41800000000E+01 0. -1.
        -11    1    1    2    0    0  0.77613077984E+02  0.72184755033E+02  0.86252630341E+02  0.13665264349E+03  0.00000000000E+00 0. -1.
         11    1    1    2    0    0  0.36952762643E+02 -0.16764539901E+02 -0.57356985381E+01  0.40981150579E+02  0.00000000000E+00 0.  1.
</event>
<event>
 7    1  0.2641580E-009  0.1004477E+03  0.7561462E-02  0.1279357E+00
          1   -1    0    0  501    0  0.00000000000E+00  0.00000000000E+00  0.37547241060E+03  0.37547241060E+03  0.00000000000E+00 0. -1.
         -1   -1    0    0    0  501 -0.00000000000E+00 -0.00000000000E+00 -0.46992425464E+02  0.46992425464E+02  0.00000000000E+00 0.  1.
         25    2    1    2    0    0 -0.20823603347E+02  0.38810534295E+02  0.28399257385E+03  0.31343062883E+03  0.12508835701E+03 0.  0.
          5    1    3    3  502    0 -0.63207818071E+01  0.83642792580E+02  0.15963655222E+03  0.18038118039E+03  0.41800000000E+01 0.  1.
         -5    1    3    3    0  502 -0.14502821540E+02 -0.44832258286E+02  0.12435602163E+03  0.13304944844E+03  0.41800000000E+01 0.  1.
        -11    1    1    2    0    0  0.26077444391E+02  0.40796346089E+01 -0.18797645682E+02  0.32404135657E+02  0.00000000000E+00 0.  1.
         11    1    1    2    0    0 -0.52538410444E+01 -0.42890168904E+02  0.63285056969E+02  0.76630071577E+02  0.00000000000E+00 0. -1.
</event>
<event>
 7    1  0.2641580E-009  0.1131920E+03  0.7561462E-02  0.1254770E+00
         -1   -1    0    0    0  501 -0.00000000000E+00  0.00000000000E+00  0.15910351873E+02  0.15910351873E+02  0.00000000000E+00 0.  1.
          1   -1    0    0  501    0  0.00000000000E+00 -0.00000000000E+00 -0.11050279345E+04  0.11050279345E+04  0.00000000000E+00 0. -1.
         25    2    1    2    0    0  0.15265508897E+01  0.72773528510E+02 -0.70812671166E+03  0.72276343413E+03  0.12508087442E+03 0.  0.
          5    1    3    3  502    0  0.30544263239E+02  0.76353382896E+02 -0.66736804974E+03  0.67242871541E+03  0.41800000000E+01 0.  1.
         -5    1    3    3    0  502 -0.29017712349E+02 -0.35798543859E+01 -0.40758661923E+02  0.50334718725E+02  0.41800000000E+01 0.  1.
        -11    1    1    2    0    0 -0.39958406709E+02 -0.10476833612E+02 -0.11099760817E+03  0.11843524530E+03  0.00000000000E+00 0.  1.
         11    1    1    2    0    0  0.38431855819E+02 -0.62296694898E+02 -0.26999326284E+03  0.27973960698E+03  0.00000000000E+00 0. -1.
</event>
<event>
 7    1  0.2641580E-009  0.1565392E+03  0.7561462E-02  0.1192660E+00
          2   -1    0    0  501    0  0.00000000000E+00  0.00000000000E+00  0.34180978359E+03  0.34180978359E+03  0.00000000000E+00 0.  1.
         -2   -1    0    0    0  501 -0.00000000000E+00 -0.00000000000E+00 -0.13471075520E+03  0.13471075520E+03  0.00000000000E+00 0. -1.
         25    2    1    2    0    0 -0.12780385089E+03  0.29561166544E+02  0.25031595074E+03  0.30905892209E+03  0.12510657560E+03 0.  0.
          5    1    3    3  502    0 -0.86987462003E+02 -0.39491680312E+02  0.17245943013E+03  0.19719568656E+03  0.41800000000E+01 0.  1.
         -5    1    3    3    0  502 -0.40816388887E+02  0.69052846856E+02  0.77856520612E+02  0.11186323553E+03  0.41800000000E+01 0.  1.
        -11    1    1    2    0    0  0.10975871247E+03 -0.39354199380E+02  0.32658788858E+01  0.11664644846E+03  0.00000000000E+00 0.  1.
         11    1    1    2    0    0  0.18045138417E+02  0.97930328363E+01 -0.46482801241E+02  0.50815168246E+02  0.00000000000E+00 0. -1.
</event>
<event>
 7    1  0.2641580E-009  0.8934901E+02  0.7561462E-02  0.1304436E+00
         -1   -1    0    0    0  501 -0.00000000000E+00  0.00000000000E+00  0.45571257937E+02  0.45571257937E+02  0.00000000000E+00 0.  1.
          1   -1    0    0  501    0  0.00000000000E+00 -0.00000000000E+00 -0.28629620085E+03  0.28629620085E+03  0.00000000000E+00 0. -1.
         25    2    1    2    0    0  0.10036844942E+02 -0.18558487361E+02 -0.18569534842E+03  0.22488921554E+03  0.12508893289E+03 0.  0.
          5    1    3    3  502    0  0.47004226207E+02 -0.23305092321E+02 -0.22155412376E+02  0.57103934251E+02  0.41800000000E+01 0.  1.
         -5    1    3    3    0  502 -0.36967381265E+02  0.47466049596E+01 -0.16353993605E+03  0.16778528129E+03  0.41800000000E+01 0.  1.
        -11    1    1    2    0    0 -0.47994241156E+02  0.49894438001E+01 -0.15913439309E+02  0.50809244082E+02  0.00000000000E+00 0.  1.
         11    1    1    2    0    0  0.37957396214E+02  0.13569043561E+02 -0.39116155179E+02  0.56168999159E+02  0.00000000000E+00 0. -1.
</event>
<event>
 7    1  0.2641580E-009  0.8374581E+02  0.7561462E-02  0.1318745E+00
         -1   -1    0    0    0  501 -0.00000000000E+00  0.00000000000E+00  0.76896585144E+02  0.76896585144E+02  0.00000000000E+00 0.  1.
          1   -1    0    0  501    0  0.00000000000E+00 -0.00000000000E+00 -0.16725767974E+03  0.16725767974E+03  0.00000000000E+00 0. -1.
         25    2    1    2    0    0  0.24175413895E+02  0.23763979339E+02 -0.55071017885E+02  0.14081688201E+03  0.12508956750E+03 0.  0.
          5    1    3    3  502    0 -0.45132959304E+02 -0.16872443977E+02 -0.13260356988E+02  0.50149504970E+02  0.41800000000E+01 0. -1.
         -5    1    3    3    0  502  0.69308373199E+02  0.40636423316E+02 -0.41810660896E+02  0.90667377044E+02  0.41800000000E+01 0. -1.
        -11    1    1    2    0    0  0.89369459530E+00 -0.10070938946E+02  0.30222115495E+02  0.31868460369E+02  0.00000000000E+00 0.  1.
         11    1    1    2    0    0 -0.25069108491E+02 -0.13693040392E+02 -0.65512192209E+02  0.71468922503E+02  0.00000000000E+00 0. -1.
</event>
<event>
 7    1  0.2847954E-009  0.1180110E+03  0.7561462E-02  0.1246415E+00
          2   -1    0    0  501    0  0.00000000000E+00  0.00000000000E+00  0.35445764350E+03  0.35445764350E+03  0.00000000000E+00 0. -1.
         -2   -1    0    0    0  501 -0.00000000000E+00 -0.00000000000E+00 -0.85851063930E+02  0.85851063930E+02  0.00000000000E+00 0.  1.
         25    2    1    2    0    0 -0.73832566702E+02 -0.23116908254E+02  0.93542693933E+00  0.14708471877E+03  0.12508956839E+03 0.  0.
          5    1    3    3  502    0 -0.92599562845E+02 -0.54006227495E+02 -0.13122895575E+02  0.10807883436E+03  0.41800000000E+01 0.  1.
         -5    1    3    3    0  502  0.18766996143E+02  0.30889319241E+02  0.14058322514E+02  0.39005884419E+02  0.41800000000E+01 0.  1.
        -11    1    1    2    0    0  0.81220491765E+01 -0.14516614304E+02  0.17439435018E+01  0.16725463002E+02  0.00000000000E+00 0.  1.
         11    1    1    2    0    0  0.65710517525E+02  0.37633522558E+02  0.26592720913E+03  0.27649852565E+03  0.00000000000E+00 0. -1.
</event>
<event>
 7    1  0.2641580E-009  0.1719038E+03  0.7561462E-02  0.1175877E+00
          2   -1    0    0  501    0  0.00000000000E+00  0.00000000000E+00  0.48482562778E+03  0.48482562778E+03  0.00000000000E+00 0. -1.
         -2   -1    0    0    0  501 -0.00000000000E+00 -0.00000000000E+00 -0.69374803125E+02  0.69374803125E+02  0.00000000000E+00 0.  1.
         25    2    1    2    0    0 -0.78296654905E+02  0.12359216598E+03  0.24367970027E+03  0.31053657992E+03  0.12509109274E+03 0.  0.
          5    1    3    3  502    0  0.31735271592E+02  0.50525661655E+02  0.86868658455E+02  0.10546850796E+03  0.41800000000E+01 0. -1.
         -5    1    3    3    0  502 -0.11003192650E+03  0.73066504320E+02  0.15681104182E+03  0.20506807196E+03  0.41800000000E+01 0. -1.
        -11    1    1    2    0    0  0.13311581329E+02 -0.13174140478E+01 -0.88741746133E+01  0.16052562173E+02  0.00000000000E+00 0.  1.
         11    1    1    2    0    0  0.64985073576E+02 -0.12227475193E+03  0.18064529900E+03  0.22761128882E+03  0.00000000000E+00 0. -1.
</event>
<event>
 7    1  0.2641580E-009  0.1005474E+03  0.7561462E-02  0.1279149E+00
         -2   -1    0    0    0  501 -0.00000000000E+00  0.00000000000E+00  0.72509703947E+02  0.72509703947E+02  0.00000000000E+00 0.  1.
          2   -1    0    0  501    0  0.00000000000E+00 -0.00000000000E+00 -0.29836042517E+03  0.29836042517E+03  0.00000000000E+00 0. -1.
         25    2    1    2    0    0  0.28392731931E+02  0.44287574261E+02 -0.22692150539E+03  0.26440145381E+03  0.12508885926E+03 0.  0.
          5    1    3    3  502    0  0.15755852334E+02  0.87034222304E+02 -0.12607528685E+03  0.15406379552E+03  0.41800000000E+01 0. -1.
         -5    1    3    3    0  502  0.12636879597E+02 -0.42746648043E+02 -0.10084621854E+03  0.11033765830E+03  0.41800000000E+01 0. -1.
        -11    1    1    2    0    0  0.11679419950E+01 -0.37407112084E+02  0.41520627606E+02  0.55898288344E+02  0.00000000000E+00 0.  1.
         11    1    1    2    0    0 -0.29560673926E+02 -0.68804621771E+01 -0.40449843440E+02  0.50570386958E+02  0.00000000000E+00 0. -1.
</event>
<event>
 7    1  0.2641580E-009  0.9287684E+02  0.7561462E-02  0.1296031E+00
         -2   -1    0    0    0  501 -0.00000000000E+00  0.00000000000E+00  0.56392758003E+03  0.56392758003E+03  0.00000000000E+00 0.  1.
          2   -1    0    0  501    0  0.00000000000E+00 -0.00000000000E+00 -0.21866026873E+02  0.21866026873E+02  0.00000000000E+00 0. -1.
         25    2    1    2    0    0  0.84097470436E+01 -0.23333626748E+02  0.30246578915E+03  0.32825088785E+03  0.12509160555E+03 0.  0.
          5    1    3    3  502    0  0.42776084627E+02  0.90608188870E+01  0.26276744350E+03  0.26641338859E+03  0.41800000000E+01 0. -1.
         -5    1    3    3    0  502 -0.34366337584E+02 -0.32394445635E+02  0.39698345656E+02  0.61837499260E+02  0.41800000000E+01 0. -1.
        -11    1    1    2    0    0 -0.41554553947E+02  0.39683218283E+02  0.14212772604E+03  0.15330306350E+03  0.00000000000E+00 0. -1.
         11    1    1    2    0    0  0.33144806904E+02 -0.16349591535E+02  0.97468037956E+02  0.10423965556E+03  0.00000000000E+00 0.  1.
</event>
<event>
 7    1  0.2641580E-009  0.1922585E+03  0.7561462E-02  0.1156440E+00
         -2   -1    0    0    0  501 -0.00000000000E+00  0.00000000000E+00  0.90894212723E+03  0.90894212723E+03  0.00000000000E+00 0.  1.
          2   -1    0    0  501    0  0.00000000000E+00 -0.00000000000E+00 -0.53678558603E+02  0.53678558603E+02  0.00000000000E+00 0. -1.
         25    2    1    2    0    0 -0.17570658387E+03 -0.61830829552E+02  0.55477093681E+03  0.59842764588E+03  0.12509596287E+03 0.  0.
          5    1    3    3  502    0 -0.23927281997E+02  0.36496828180E+01  0.25412640154E+03  0.25531066442E+03  0.41800000000E+01 0.  1.
         -5    1    3    3    0  502 -0.15177930187E+03 -0.65480512370E+02  0.30064453527E+03  0.34311698146E+03  0.41800000000E+01 0.  1.
        -11    1    1    2    0    0  0.62564784630E+02 -0.57218612700E+01  0.15839075772E+03  0.17039578664E+03  0.00000000000E+00 0.  1.
         11    1    1    2    0    0  0.11314179924E+03  0.67552690822E+02  0.14210187410E+03  0.19379725332E+03  0.00000000000E+00 0. -1.
</event>
<event>
 7    1  0.2641580E-009  0.1430250E+03  0.7561462E-02  0.1209316E+00
          1   -1    0    0  501    0  0.00000000000E+00  0.00000000000E+00  0.40322592239E+03  0.40322592239E+03  0.00000000000E+00 0. -1.
         -1   -1    0    0    0  501 -0.00000000000E+00 -0.00000000000E+00 -0.58917942428E+02  0.58917942428E+02  0.00000000000E+00 0.  1.
         25    2    1    2    0    0 -0.73897323214E+02 -0.76982649224E+02  0.22666618421E+03  0.28002148784E+03  0.12508929582E+03 0.  0.
          5    1    3    3  502    0  0.30549420469E+01 -0.82599798221E+02  0.14913539369E+03  0.17056053878E+03  0.41800000000E+01 0.  1.
         -5    1    3    3    0  502 -0.76952265261E+02  0.56171489974E+01  0.77530790523E+02  0.10946094907E+03  0.41800000000E+01 0.  1.
        -11    1    1    2    0    0  0.81832055185E+02  0.45665981423E+02  0.47861333780E+02  0.10522630083E+03  0.00000000000E+00 0.  1.
         11    1    1    2    0    0 -0.79347319709E+01  0.31316667801E+02  0.69780461974E+02  0.76896076148E+02  0.00000000000E+00 0. -1.
</event>
<event>
 7    1  0.2641580E-009  0.1204166E+03  0.7561462E-02  0.1242411E+00
         -1   -1    0    0    0  501 -0.00000000000E+00  0.00000000000E+00  0.25377887594E+02  0.25377887594E+02  0.00000000000E+00 0.  1.
          1   -1    0    0  501    0  0.00000000000E+00 -0.00000000000E+00 -0.66156080938E+03  0.66156080938E+03  0.00000000000E+00 0. -1.
         25    2    1    2    0    0  0.26430362033E+02 -0.58301776407E+02 -0.27965310524E+03  0.31296878076E+03  0.12508372112E+03 0.  0.
          5    1    3    3  502    0  0.40430760587E+02 -0.93709177868E+02 -0.20752262340E+03  0.23129887169E+03  0.41800000000E+01 0. -1.
         -5    1    3    3    0  502 -0.14000398554E+02  0.35407401461E+02 -0.72130481837E+02  0.81669909073E+02  0.41800000000E+01 0. -1.
        -11    1    1    2    0    0 -0.53745984433E+02  0.32490271029E+02 -0.13036742311E+03  0.14470630104E+03  0.00000000000E+00 0. -1.
         11    1    1    2    0    0  0.27315622399E+02  0.25811505379E+02 -0.22616239343E+03  0.22926361517E+03  0.00000000000E+00 0.  1.
</event>
<event>
 7    1  0.2641580E-009  0.1398060E+03  0.7561462E-02  0.1213590E+00
          2   -1    0    0  501    0  0.00000000000E+00  0.00000000000E+00  0.92174769452E+03  0.92174769452E+03  0.00000000000E+00 0. -1.
         -2   -1    0    0    0  501 -0.00000000000E+00 -0.00000000000E+00 -0.33014145817E+02  0.33014145817E+02  0.00000000000E+00 0.  1.
         25    2    1    2    0    0  0.64929720790E+02  0.11839328751E+03  0.52016650891E+03  0.55177521507E+03  0.12509936774E+03 0.  0.
          5    1    3    3  502    0  0.17458994385E+02  0.23631444453E+02  0.10956246305E+02  0.31635002529E+02  0.41800000000E+01 0.  1.
         -5    1    3    3    0  502  0.47470726405E+02  0.94761843055E+02  0.50921026260E+03  0.52014021254E+03  0.41800000000E+01 0.  1.
        -11    1    1    2    0    0 -0.41862734346E+02 -0.11253040277E+03  0.35675368340E+03  0.37641568869E+03  0.00000000000E+00 0. -1.
         11    1    1    2    0    0 -0.23066986444E+02 -0.58628847433E+01  0.11813356396E+02  0.26570936575E+02  0.00000000000E+00 0.  1.
</event>
<event>
 7    1  0.4192791E-009  0.1215211E+03  0.7561462E-02  0.1240609E+00
          1   -1    0    0  501    0  0.00000000000E+00  0.00000000000E+00  0.28461994722E+03  0.28461994722E+03  0.00000000000E+00 0. -1.
         -1   -1    0    0    0  501 -0.00000000000E+00 -0.00000000000E+00 -0.71810301052E+02  0.71810301052E+02  0.00000000000E+00 0.  1.
         25    2    1    2    0    0 -0.65713158693E+01 -0.90776355904E+02  0.13698588996E+03  0.20662969343E+03  0.12508863729E+03 0.  0.
          5    1    3    3  502    0  0.42452212806E+01 -0.12001917346E+03  0.90210235045E+02  0.15025971785E+03  0.41800000000E+01 0.  1.
         -5    1    3    3    0  502 -0.10816537150E+02  0.29242817559E+02  0.46775654910E+02  0.56369975581E+02  0.41800000000E+01 0.  1.
        -11    1    1    2    0    0  0.72274481803E+01  0.40714826786E+02 -0.16702723981E+02  0.44597243365E+02  0.00000000000E+00 0.  1.
         11    1    1    2    0    0 -0.65613231103E+00  0.50061529119E+02  0.92526480193E+02  0.10520331147E+03  0.00000000000E+00 0. -1.
</event>
<event>
 7    1  0.2641580E-009  0.5815692E+02  0.7561462E-02  0.1405733E+00
          1   -1    0    0  501    0  0.00000000000E+00  0.00000000000E+00  0.12491671320E+03  0.12491671320E+03  0.00000000000E+00 0. -1.
         -1   -1    0    0    0  501 -0.00000000000E+00 -0.00000000000E+00 -0.11807997784E+03  0.11807997784E+03  0.00000000000E+00 0.  1.
         25    2    1    2    0    0  0.40856877953E+02  0.33240179663E+02  0.13583709208E+02  0.13640325062E+03  0.12508851108E+03 0.  0.
          5    1    3    3  502    0  0.35597496807E+02  0.23584825201E+02 -0.53339397544E+02  0.68454287587E+02  0.41800000000E+01 0. -1.
         -5    1    3    3    0  502  0.52593811462E+01  0.96553544614E+01  0.66923106752E+02  0.67948963032E+02  0.41800000000E+01 0. -1.
        -11    1    1    2    0    0  0.29440875224E+01 -0.13116702569E+02 -0.43786472944E+02  0.45803610671E+02  0.00000000000E+00 0.  1.
         11    1    1    2    0    0 -0.43800965476E+02 -0.20123477094E+02  0.37039499101E+02  0.60789829746E+02  0.00000000000E+00 0. -1.
</event>
<event>
 7    1  0.2641580E-009  0.9335155E+02  0.7561462E-02  0.1294933E+00
         -1   -1    0    0    0  501 -0.00000000000E+00  0.00000000000E+00  0.20184972798E+03  0.20184972798E+03  0.00000000000E+00 0.  1.
          1   -1    0    0  501    0  0.00000000000E+00 -0.00000000000E+00 -0.84167253822E+02  0.84167253822E+02  0.00000000000E+00 0. -1.
         25    2    1    2    0    0  0.18087752893E+02  0.68363204358E+02  0.43215785289E+02  0.15005063299E+03  0.12508754474E+03 0.  0.
          5    1    3    3  502    0 -0.14647905569E+02  0.54057515665E+02 -0.33448040496E+02  0.65368340582E+02  0.41800000000E+01 0. -1.
         -5    1    3    3    0  502  0.32735658462E+02  0.14305688694E+02  0.76663825785E+02  0.84682292411E+02  0.41800000000E+01 0. -1.
        -11    1    1    2    0    0 -0.41598253852E+02 -0.47487674105E+02  0.95666110435E+01  0.63851499296E+02  0.00000000000E+00 0. -1.
         11    1    1    2    0    0  0.23510500959E+02 -0.20875530253E+02  0.64900077824E+02  0.72114849513E+02  0.00000000000E+00 0.  1.
</event>
<event>
 7    1  0.2641580E-009  0.7973432E+02  0.7561462E-02  0.1329807E+00
          2   -1    0    0  501    0  0.00000000000E+00  0.00000000000E+00  0.17121703403E+02  0.17121703403E+02  0.00000000000E+00 0.  1.
         -2   -1    0    0    0  501 -0.00000000000E+00 -0.00000000000E+00 -0.79346303353E+03  0.79346303353E+03  0.00000000000E+00 0. -1.
         25    2    1    2    0    0 -0.20261745713E+02  0.41819905179E+02 -0.38024737836E+03  0.40298276102E+03  0.12509034383E+03 0.  0.
          5    1    3    3  502    0  0.19863092077E+01 -0.84962051659E+01  0.69256456605E+01  0.11898230722E+02  0.41800000000E+01 0. -1.
         -5    1    3    3    0  502 -0.22248054921E+02  0.50316110345E+02 -0.38717302402E+03  0.39108453029E+03  0.41800000000E+01 0. -1.
        -11    1    1    2    0    0  0.43159615073E+02 -0.53642805499E+02 -0.31792888618E+03  0.32529844701E+03  0.00000000000E+00 0. -1.
         11    1    1    2    0    0 -0.22897869360E+02  0.11822900319E+02 -0.78165065584E+02  0.82303528909E+02  0.00000000000E+00 0.  1.
</event>
<event>
 7    1  0.2641580E-009  0.8322678E+02  0.7561462E-02  0.1320136E+00
          1   -1    0    0  501    0  0.00000000000E+00  0.00000000000E+00  0.79680233963E+02  0.79680233963E+02  0.00000000000E+00 0. -1.
         -1   -1    0    0    0  501 -0.00000000000E+00 -0.00000000000E+00 -0.19542443191E+03  0.19542443191E+03  0.00000000000E+00 0.  1.
         25    2    1    2    0    0  0.43159731375E+02  0.41423311373E+02 -0.79919086989E+02  0.16004334532E+03  0.12509260082E+03 0.  0.
          5    1    3    3  502    0 -0.85547480121E+01  0.23781904413E+00  0.30127657262E+02  0.31597284750E+02  0.41800000000E+01 0. -1.
         -5    1    3    3    0  502  0.51714479387E+02  0.41185492329E+02 -0.11004674425E+03  0.12844606057E+03  0.41800000000E+01 0. -1.
        -11    1    1    2    0    0  0.18507692694E+02 -0.13949252353E+02 -0.41269249500E+02  0.47331461887E+02  0.00000000000E+00 0.  1.
         11    1    1    2    0    0 -0.61667424068E+02 -0.27474059020E+02  0.54441385399E+01  0.67729858664E+02  0.00000000000E+00 0. -1.
</event>
<event>
 7    1  0.2641580E-009  0.1139183E+03  0.7561462E-02  0.1253481E+00
         -2   -1    0    0    0  501 -0.00000000000E+00  0.00000000000E+00  0.64442685869E+03  0.64442685869E+03  0.00000000000E+00 0.  1.
          2   -1    0    0  501    0  0.00000000000E+00 -0.00000000000E+00 -0.26978859705E+02  0.26978859705E+02  0.00000000000E+00 0. -1.
         25    2    1    2    0    0 -0.71530389648E+02  0.14828450890E+02  0.30385943487E+03  0.33662075316E+03  0.12508595326E+03 0.  0.
          5    1    3    3  502    0 -0.23363329633E+02  0.66503142438E+02  0.11511299514E+03  0.13504438965E+03  0.41800000000E+01 0.  1.
         -5    1    3    3    0  502 -0.48167060015E+02 -0.51674691548E+02  0.18874643973E+03  0.20157636352E+03  0.41800000000E+01 0.  1.
        -11    1    1    2    0    0  0.58326251066E+02  0.91945960116E+01  0.29685079327E+03  0.30266629417E+03  0.00000000000E+00 0.  1.
         11    1    1    2    0    0  0.13204138582E+02 -0.24023046901E+02  0.16737770844E+02  0.32118671064E+02  0.00000000000E+00 0. -1.
</event>
<event>
 7    1  0.2641580E-009  0.1318220E+03  0.7561462E-02  0.1224777E+00
         -2   -1    0    0    0  501 -0.00000000000E+00  0.00000000000E+00  0.52078006938E+02  0.52078006938E+02  0.00000000000E+00 0.  1.
          2   -1    0    0  501    0  0.00000000000E+00 -0.00000000000E+00 -0.57002850828E+03  0.57002850828E+03  0.00000000000E+00 0. -1.
         25    2    1    2    0    0 -0.10730438750E+03  0.44802967452E+02 -0.39104138754E+03  0.42671133026E+03  0.12509058771E+03 0.  0.
          5    1    3    3  502    0 -0.84924240710E+01 -0.45231217926E+01  0.76511230878E+01  0.12984297511E+02  0.41800000000E+01 0.  1.
         -5    1    3    3    0  502 -0.98811963427E+02  0.49326089245E+02 -0.39869251063E+03  0.41372703275E+03  0.41800000000E+01 0.  1.
        -11    1    1    2    0    0  0.41689241553E+02  0.23553552620E+02 -0.70180651214E+02  0.84959322661E+02  0.00000000000E+00 0. -1.
         11    1    1    2    0    0  0.65615145946E+02 -0.68356520072E+02 -0.56728462593E+02  0.11043586230E+03  0.00000000000E+00 0.  1.
</event>
<event>
 7    1  0.2641580E-009  0.1364097E+03  0.7561462E-02  0.1218243E+00
         -1   -1    0    0    0  501 -0.00000000000E+00  0.00000000000E+00  0.12854455578E+03  0.12854455578E+03  0.00000000000E+00 0.  1.
          1   -1    0    0  501    0  0.00000000000E+00 -0.00000000000E+00 -0.22756459705E+03  0.22756459705E+03  0.00000000000E+00 0. -1.
         25    2    1    2    0    0  0.66556328562E+02  0.83649196490E+02  0.35676943915E+02  0.16836732891E+03  0.12509108750E+03 0.  0.
          5    1    3    3  502    0  0.54902960846E+02  0.10478831524E+03  0.60972049695E+02  0.13315400619E+03  0.41800000000E+01 0.  1.
         -5    1    3    3    0  502  0.11653367716E+02 -0.21139118749E+02 -0.25295105780E+02  0.35213322720E+02  0.41800000000E+01 0.  1.
        -11    1    1    2    0    0 -0.52476813281E+02 -0.97165323490E+02 -0.10626181714E+03  0.15325302543E+03  0.00000000000E+00 0.  1.
         11    1    1    2    0    0 -0.14079515281E+02  0.13516127000E+02 -0.28435168048E+02  0.34488798494E+02  0.00000000000E+00 0. -1.
</event>
<event>
 7    1  0.2641580E-009  0.1152143E+03  0.7561462E-02  0.1251207E+00
          1   -1    0    0  501    0  0.00000000000E+00  0.00000000000E+00  0.51863178151E+02  0.51863178151E+02  0.00000000000E+00 0. -1.
         -1   -1    0    0    0  501 -0.00000000000E+00 -0.00000000000E+00 -0.40489455951E+03  0.40489455951E+03  0.00000000000E+00 0.  1.
         25    2    1    2    0    0 -0.45923131311E+02 -0.71126896246E+02 -0.26200157903E+03  0.30242545642E+03  0.12509340478E+03 0.  0.
          5    1    3    3  502    0 -0.39428837331E+02 -0.10412349515E+03 -0.23113210560E+03  0.25658499195E+03  0.41800000000E+01 0.  1.
         -5    1    3    3    0  502 -0.64942939803E+01  0.32996598902E+02 -0.30869473429E+02  0.45840464474E+02  0.41800000000E+01 0.  1.
        -11    1    1    2    0    0  0.16266236370E+02  0.17863857830E+02  0.17513985380E+02  0.29840367727E+02  0.00000000000E+00 0. -1.
         11    1    1    2    0    0  0.29656894941E+02  0.53263038416E+02 -0.10854378771E+03  0.12449191351E+03  0.00000000000E+00 0.  1.
</event>
<event>
 7    1  0.2641580E-009  0.1265790E+03  0.7561462E-02  0.1232622E+00
          1   -1    0    0  501    0  0.00000000000E+00  0.00000000000E+00  0.35794999564E+03  0.35794999564E+03  0.00000000000E+00 0. -1.
         -1   -1    0    0    0  501 -0.00000000000E+00 -0.00000000000E+00 -0.59013579869E+02  0.59013579869E+02  0.00000000000E+00 0.  1.
         25    2    1    2    0    0  0.95101372880E+02 -0.13978250041E+02  0.21268303468E+03  0.26480014482E+03  0.12508149686E+03 0.  0.
          5    1    3    3  502    0  0.12334110082E+03 -0.11375273230E+02  0.14172586906E+03  0.18827139548E+03  0.41800000000E+01 0. -1.
         -5    1    3    3    0  502 -0.28239727945E+02 -0.26029768116E+01  0.70957165622E+02  0.76528749341E+02  0.41800000000E+01 0. -1.
        -11    1    1    2    0    0 -0.21072622586E+02  0.16066536878E+02 -0.12029817560E+02  0.29101641542E+02  0.00000000000E+00 0.  1.
         11    1    1    2    0    0 -0.74028750293E+02 -0.20882868367E+01  0.98283198647E+02  0.12306178915E+03  0.00000000000E+00 0. -1.
</event>
<event>
 7    1  0.2641580E-009  0.1283271E+03  0.7561462E-02  0.1229959E+00
          1   -1    0    0  501    0  0.00000000000E+00  0.00000000000E+00  0.42079225404E+03  0.42079225404E+03  0.00000000000E+00 0. -1.
         -1   -1    0    0    0  501 -0.00000000000E+00 -0.00000000000E+00 -0.56089946186E+02  0.56089946186E+02  0.00000000000E+00 0.  1.
         25    2    1    2    0    0  0.82855903785E+02  0.64205656493E+02  0.15685693229E+03  0.22636206253E+03  0.12509284164E+03 0.  0.
          5    1    3    3  502    0  0.19782225384E+01  0.62894184285E+02  0.17955544690E+02  0.65570311623E+02  0.41800000000E+01 0.  1.
         -5    1    3    3    0  502  0.80877681247E+02  0.13114722081E+01  0.13890138760E+03  0.16079175091E+03  0.41800000000E+01 0.  1.
        -11    1    1    2    0    0 -0.41923311219E+02 -0.73909527544E+01  0.16035879117E+03  0.16591302574E+03  0.00000000000E+00 0. -1.
         11    1    1    2    0    0 -0.40932592567E+02 -0.56814703738E+02  0.47486584397E+02  0.84607111951E+02  0.00000000000E+00 0.  1.
</event>
<event>
 7    1  0.2641580E-009  0.1119607E+03  0.7561462E-02  0.1256982E+00
          1   -1    0    0  501    0  0.00000000000E+00  0.00000000000E+00  0.12588960372E+03  0.12588960372E+03  0.00000000000E+00 0. -1.
         -1   -1    0    0    0  501 -0.00000000000E+00 -0.00000000000E+00 -0.15157042879E+03  0.15157042879E+03  0.00000000000E+00 0.  1.
         25    2    1    2    0    0  0.50198268200E+02 -0.68165809997E+02 -0.48501922445E+01  0.15111943198E+03  0.12508842702E+03 0.  0.
          5    1    3    3  502    0  0.42113527920E+01 -0.60954471484E+02  0.49997955059E+02  0.79059793804E+02  0.41800000000E+01 0. -1.
         -5    1    3    3    0  502  0.45986915408E+02 -0.72113385128E+01 -0.54848147304E+02  0.72059638179E+02  0.41800000000E+01 0. -1.
        -11    1    1    2    0    0 -0.39425640279E+02 -0.69711735559E+01  0.14544050319E+02  0.42597039472E+02  0.00000000000E+00 0. -1.
         11    1    1    2    0    0 -0.10772627921E+02  0.75136983553E+02 -0.35374683142E+02  0.83743561049E+02  0.00000000000E+00 0.  1.
</event>
<event>
 7    1  0.2641580E-009  0.1007728E+03  0.7561462E-02  0.1278679E+00
         -4   -1    0    0    0  501 -0.00000000000E+00  0.00000000000E+00  0.57920551381E+02  0.57920551381E+02  0.00000000000E+00 0.  1.
          4   -1    0    0  501    0  0.00000000000E+00 -0.00000000000E+00 -0.34802925529E+03  0.34802925529E+03  0.00000000000E+00 0. -1.
         25    2    1    2    0    0  0.22846299654E+02 -0.57032992057E+02 -0.25667922102E+03  0.29207084539E+03  0.12508573312E+03 0.  0.
          5    1    3    3  502    0 -0.40206691555E+02 -0.63700055925E+02 -0.12861776351E+03  0.14911162484E+03  0.41800000000E+01 0. -1.
         -5    1    3    3    0  502  0.63052991209E+02  0.66670638686E+01 -0.12806145751E+03  0.14295922055E+03  0.41800000000E+01 0. -1.
        -11    1    1    2    0    0 -0.12874040990E+02  0.17123485238E+02 -0.60803299567E+02  0.64467014173E+02  0.00000000000E+00 0. -1.
         11    1    1    2    0    0 -0.99722586640E+01  0.39909506819E+02  0.27373816682E+02  0.49411947109E+02  0.00000000000E+00 0.  1.
</event>
<event>
 7    1  0.2641580E-009  0.2289610E+03  0.7561462E-02  0.1127373E+00
         -4   -1    0    0    0  501 -0.00000000000E+00  0.00000000000E+00  0.47954813452E+03  0.47954813452E+03  0.00000000000E+00 0.  1.
          4   -1    0    0  501    0  0.00000000000E+00 -0.00000000000E+00 -0.11493921112E+03  0.11493921112E+03  0.00000000000E+00 0. -1.
         25    2    1    2    0    0 -0.13066681143E+03  0.16143036336E+03  0.19954305401E+03  0.31400389673E+03  0.12508972354E+03 0.  0.
          5    1    3    3  502    0 -0.21703321046E+02  0.11315998971E+03  0.58452305886E+02  0.12926856493E+03  0.41800000000E+01 0.  1.
         -5    1    3    3    0  502 -0.10896349039E+03  0.48270373645E+02  0.14109074812E+03  0.18473533180E+03  0.41800000000E+01 0.  1.
        -11    1    1    2    0    0  0.69355250479E+02 -0.14368191832E+03  0.13876515245E+03  0.21144836711E+03  0.00000000000E+00 0.  1.
         11    1    1    2    0    0  0.61311560954E+02 -0.17748445038E+02  0.26300716947E+02  0.69035081804E+02  0.00000000000E+00 0. -1.
</event>
<event>
 7    1  0.2641580E-009  0.9285737E+02  0.7561462E-02  0.1296076E+00
          1   -1    0    0  501    0  0.00000000000E+00  0.00000000000E+00  0.58442387501E+03  0.58442387501E+03  0.00000000000E+00 0. -1.
         -1   -1    0    0    0  501 -0.00000000000E+00 -0.00000000000E+00 -0.26080957873E+02  0.26080957873E+02  0.00000000000E+00 0.  1.
         25    2    1    2    0    0  0.38207730835E+02 -0.38894243507E+02  0.26263627675E+03  0.29596936363E+03  0.12508979763E+03 0.  0.
          5    1    3    3  502    0  0.23866771159E+02  0.13768791075E+02  0.23114079299E+03  0.23281482117E+03  0.41800000000E+01 0. -1.
         -5    1    3    3    0  502  0.14340959676E+02 -0.52663034581E+02  0.31495483754E+02  0.63154542454E+02  0.41800000000E+01 0. -1.
        -11    1    1    2    0    0 -0.64770859111E+02  0.40673426445E+02  0.25208005943E+03  0.26342731098E+03  0.00000000000E+00 0. -1.
         11    1    1    2    0    0  0.26563128276E+02 -0.17791829386E+01  0.43626580967E+02  0.51108158278E+02  0.00000000000E+00 0.  1.
</event>
<event>
 7    1  0.2641580E-009  0.1164164E+03  0.7561462E-02  0.1249129E+00
         -2   -1    0    0    0  501 -0.00000000000E+00  0.00000000000E+00  0.50800898594E+02  0.50800898594E+02  0.00000000000E+00 0.  1.
          2   -1    0    0  501    0  0.00000000000E+00 -0.00000000000E+00 -0.38611956501E+03  0.38611956501E+03  0.00000000000E+00 0. -1.
         25    2    1    2    0    0 -0.24675790571E+02  0.71437550917E+02 -0.26310600369E+03  0.30097206552E+03  0.12508875538E+03 0.  0.
          5    1    3    3  502    0  0.27170389510E+02 -0.24616805790E+02 -0.64633283439E+02  0.74425472262E+02  0.41800000000E+01 0.  1.
         -5    1    3    3    0  502 -0.51846180081E+02  0.96054356707E+02 -0.19847272025E+03  0.22654659325E+03  0.41800000000E+01 0.  1.
        -11    1    1    2    0    0  0.32677320751E+02 -0.29561343763E+02  0.83047359796E+01  0.44840260662E+02  0.00000000000E+00 0.  1.
         11    1    1    2    0    0 -0.80015301804E+01 -0.41876207154E+02 -0.80517398710E+02  0.91108137429E+02  0.00000000000E+00 0. -1.
</event>
<event>
 7    1  0.2641580E-009  0.7661244E+02  0.7561462E-02  0.1338949E+00
          2   -1    0    0  501    0  0.00000000000E+00  0.00000000000E+00  0.24220712523E+03  0.24220712523E+03  0.00000000000E+00 0. -1.
         -2   -1    0    0    0  501 -0.00000000000E+00 -0.00000000000E+00 -0.68553201660E+02  0.68553201660E+02  0.00000000000E+00 0.  1.
         25    2    1    2    0    0  0.24485555670E+02 -0.99902373485E+01  0.18155089902E+03  0.22205293243E+03  0.12508968218E+03 0.  0.
          5    1    3    3  502    0  0.58822160205E+02 -0.17024696125E+02  0.17590514379E+03  0.18630614274E+03  0.41800000000E+01 0.  1.
         -5    1    3    3    0  502 -0.34336604535E+02  0.70344587768E+01  0.56457552261E+01  0.35746789693E+02  0.41800000000E+01 0.  1.
        -11    1    1    2    0    0 -0.32419199093E+01  0.28310648398E+02 -0.38040754862E+02  0.47530010392E+02  0.00000000000E+00 0.  1.
         11    1    1    2    0    0 -0.21243635761E+02 -0.18320411050E+02  0.30143779416E+02  0.41177384070E+02  0.00000000000E+00 0. -1.
</event>
<event>
 7    1  0.2641580E-009  0.9999190E+02  0.7561462E-02  0.1280313E+00
          1   -1    0    0  501    0  0.00000000000E+00  0.00000000000E+00  0.62423036101E+03  0.62423036101E+03  0.00000000000E+00 0. -1.
         -1   -1    0    0    0  501 -0.00000000000E+00 -0.00000000000E+00 -0.19156565762E+02  0.19156565762E+02  0.00000000000E+00 0.  1.
         25    2    1    2    0    0 -0.14396268649E+02 -0.35182432286E+01  0.31965312218E+03  0.34357814032E+03  0.12509272322E+03 0.  0.
          5    1    3    3  502    0 -0.65859509106E+02  0.78292991513E+01  0.23090743939E+03  0.24028002587E+03  0.41800000000E+01 0.  1.
         -5    1    3    3    0  502  0.51463240457E+02 -0.11347542380E+02  0.88745682791E+02  0.10329811446E+03  0.41800000000E+01 0.  1.
        -11    1    1    2    0    0 -0.20823668842E+02 -0.26975146034E+02  0.19640555494E+03  0.19933997516E+03  0.00000000000E+00 0. -1.
         11    1    1    2    0    0  0.35219937491E+02  0.30493389263E+02  0.89015118133E+02  0.10046881129E+03  0.00000000000E+00 0.  1.
</event>
<event>
 7    1  0.2641580E-009  0.7379516E+02  0.7561462E-02  0.1347643E+00
         -3   -1    0    0    0  501 -0.00000000000E+00  0.00000000000E+00  0.21793483872E+03  0.21793483872E+03  0.00000000000E+00 0.  1.
          3   -1    0    0  501    0  0.00000000000E+00 -0.00000000000E+00 -0.77026535328E+02  0.77026535328E+02  0.00000000000E+00 0. -1.
         25    2    1    2    0    0 -0.27306037019E+02 -0.17499251772E+00  0.34181628914E+01  0.12807784630E+03  0.12508637254E+03 0.  0.
          5    1    3    3  502    0  0.12320496937E+02  0.52681568144E+01  0.58340697167E+02  0.60005478641E+02  0.41800000000E+01 0. -1.
         -5    1    3    3    0  502 -0.39626533956E+02 -0.54431493321E+01 -0.54922534275E+02  0.68072367663E+02  0.41800000000E+01 0. -1.
        -11    1    1    2    0    0  0.12362120260E+02 -0.44523092212E+02  0.54569462457E+02  0.71504922840E+02  0.00000000000E+00 0.  1.
         11    1    1    2    0    0  0.14943916759E+02  0.44698084729E+02  0.82920678046E+02  0.95378604908E+02  0.00000000000E+00 0. -1.
</event>
<event>
 7    1  0.2641580E-009  0.1110841E+03  0.7561462E-02  0.1258575E+00
          2   -1    0    0  501    0  0.00000000000E+00  0.00000000000E+00  0.29498002783E+03  0.29498002783E+03  0.00000000000E+00 0. -1.
         -2   -1    0    0    0  501 -0.00000000000E+00 -0.00000000000E+00 -0.52146557040E+02  0.52146557040E+02  0.00000000000E+00 0.  1.
         25    2    1    2    0    0  0.19010677512E+02 -0.43722718611E+02  0.80474712124E+02  0.15619458725E+03  0.12508991890E+03 0.  0.
          5    1    3    3  502    0 -0.37368940466E+02 -0.53069101560E+02  0.74012465347E+02  0.98529613207E+02  0.41800000000E+01 0. -1.
         -5    1    3    3    0  502  0.56379617977E+02  0.93463829489E+01  0.64622467767E+01  0.57664974039E+02  0.41800000000E+01 0. -1.
        -11    1    1    2    0    0  0.29699744675E+02 -0.59121843853E+01  0.39712242485E+02  0.49940874654E+02  0.00000000000E+00 0.  1.
         11    1    1    2    0    0 -0.48710422187E+02  0.49634902997E+02  0.12264651618E+03  0.14099112297E+03  0.00000000000E+00 0. -1.
</event>
<event>
 7    1  0.2641580E-009  0.9396871E+02  0.7561462E-02  0.1293516E+00
         -4   -1    0    0    0  501 -0.00000000000E+00  0.00000000000E+00  0.44220743554E+03  0.44220743554E+03  0.00000000000E+00 0.  1.
          4   -1    0    0  501    0  0.00000000000E+00 -0.00000000000E+00 -0.44338182386E+02  0.44338182386E+02  0.00000000000E+00 0. -1.
         25    2    1    2    0    0  0.26400947691E+02  0.13339359105E+02  0.73043185206E+02  0.14784325565E+03  0.12508945917E+03 0.  0.
          5    1    3    3  502    0  0.28959737987E+02  0.51842978706E+02 -0.59525053086E+01  0.59826963694E+02  0.41800000000E+01 0. -1.
         -5    1    3    3    0  502 -0.25587902958E+01 -0.38503619601E+02  0.78995690514E+02  0.88016291958E+02  0.41800000000E+01 0. -1.
        -11    1    1    2    0    0 -0.23305844772E+02  0.34510616625E+02  0.21295147523E+03  0.21698496690E+03  0.00000000000E+00 0.  1.
         11    1    1    2    0    0 -0.30951029190E+01 -0.47849975730E+02  0.11187459272E+03  0.12171739537E+03  0.00000000000E+00 0. -1.
</event>
<event>
 7    1  0.2641580E-009  0.1179441E+03  0.7561462E-02  0.1246528E+00
          3   -1    0    0  501    0  0.00000000000E+00  0.00000000000E+00  0.79378536692E+03  0.79378536692E+03  0.00000000000E+00 0. -1.
         -3   -1    0    0    0  501 -0.00000000000E+00 -0.00000000000E+00 -0.21829775890E+02  0.21829775890E+02  0.00000000000E+00 0.  1.
         25    2    1    2    0    0  0.61593737278E+02 -0.33766380902E+02  0.36625956375E+03  0.39335484571E+03  0.12509200475E+03 0.  0.
          5    1    3    3  502    0  0.98006861032E+01  0.32917496397E+02  0.23291228135E+03  0.23546808324E+03  0.41800000000E+01 0.  1.
         -5    1    3    3    0  502  0.51793051175E+02 -0.66683877298E+02  0.13334728240E+03  0.15788676247E+03  0.41800000000E+01 0.  1.
        -11    1    1    2    0    0 -0.82307478432E+02  0.44343845950E+02  0.31093231597E+03  0.32468415852E+03  0.00000000000E+00 0.  1.
         11    1    1    2    0    0  0.20713741154E+02 -0.10577465048E+02  0.94763711315E+02  0.97576138587E+02  0.00000000000E+00 0. -1.
</event>
<event>
 7    1  0.2641580E-009  0.1737667E+03  0.7561462E-02  0.1173976E+00
         -2   -1    0    0    0  501 -0.00000000000E+00  0.00000000000E+00  0.10056807609E+03  0.10056807609E+03  0.00000000000E+00 0.  1.
          2   -1    0    0  501    0  0.00000000000E+00 -0.00000000000E+00 -0.34740605280E+03  0.34740605280E+03  0.00000000000E+00 0. -1.
         25    2    1    2    0    0 -0.15187965289E+03 -0.69677805316E+01 -0.12886399911E+03  0.23530795474E+03  0.12509166388E+03 0.  0.
          5    1    3    3  502    0 -0.77652658366E+02  0.50110380606E+02 -0.10221722775E+03  0.13786522275E+03  0.41800000000E+01 0.  1.
         -5    1    3    3    0  502 -0.74226994522E+02 -0.57078161138E+02 -0.26646771360E+02  0.97442731994E+02  0.41800000000E+01 0.  1.
        -11    1    1    2    0    0  0.47058826591E+02  0.27464394541E+02 -0.13202350305E+01  0.54502927886E+02  0.00000000000E+00 0. -1.
         11    1    1    2    0    0  0.10482082630E+03 -0.20496614009E+02 -0.11665374258E+03  0.15816324626E+03  0.00000000000E+00 0.  1.
</event>
<event>
 7    1  0.2641580E-009  0.1151212E+03  0.7561462E-02  0.1251370E+00
         -1   -1    0    0    0  501 -0.00000000000E+00  0.00000000000E+00  0.34116184527E+02  0.34116184527E+02  0.00000000000E+00 0.  1.
          1   -1    0    0  501    0  0.00000000000E+00 -0.00000000000E+00 -0.52416886839E+03  0.52416886839E+03  0.00000000000E+00 0. -1.
         25    2    1    2    0    0  0.46278552734E+02 -0.34411073112E+02 -0.38845028964E+03  0.41214899330E+03  0.12508932314E+03 0.  0.
          5    1    3    3  502    0  0.65800370499E+02  0.28430169173E+02 -0.20066313402E+03  0.21312233349E+03  0.41800000000E+01 0. -1.
         -5    1    3    3    0  502 -0.19521817765E+02 -0.62841242285E+02 -0.18778715562E+03  0.19902665982E+03  0.41800000000E+01 0. -1.
        -11    1    1    2    0    0 -0.45984815859E+02 -0.10846111761E+02 -0.17042559591E+02  0.50226390148E+02  0.00000000000E+00 0.  1.
         11    1    1    2    0    0 -0.29373687516E+00  0.45257184873E+02 -0.84559834635E+02  0.95909669468E+02  0.00000000000E+00 0. -1.
</event>
<event>
 7    1  0.2641580E-009  0.8585073E+02  0.7561462E-02  0.1313223E+00
          3   -1    0    0  501    0  0.00000000000E+00  0.00000000000E+00  0.39081216359E+02  0.39081216359E+02  0.00000000000E+00 0. -1.
         -3   -1    0    0    0  501 -0.00000000000E+00 -0.00000000000E+00 -0.33764633155E+03  0.33764633155E+03  0.00000000000E+00 0.  1.
         25    2    1    2    0    0 -0.16190187403E+02 -0.82349429586E+01 -0.22795859263E+03  0.26065869522E+03  0.12509156240E+03 0.  0.
          5    1    3    3  502    0  0.20145807675E+02  0.25213177157E+02 -0.20219844515E+03  0.20480049192E+03  0.41800000000E+01 0. -1.
         -5    1    3    3    0  502 -0.36335995078E+02 -0.33448120116E+02 -0.25760147484E+02  0.55858203301E+02  0.41800000000E+01 0. -1.
        -11    1    1    2    0    0 -0.23682826107E+02  0.34501679063E+02 -0.19629564043E+02  0.46222958528E+02  0.00000000000E+00 0. -1.
         11    1    1    2    0    0  0.39873013510E+02 -0.26266736104E+02 -0.50976958515E+02  0.69845894163E+02  0.00000000000E+00 0.  1.
</event>
<event>
 7    1  0.2641580E-009  0.1119294E+03  0.7561462E-02  0.1257038E+00
          1   -1    0    0  501    0  0.00000000000E+00  0.00000000000E+00  0.21198666240E+03  0.21198666240E+03  0.00000000000E+00 0. -1.
         -1   -1    0    0    0  501 -0.00000000000E+00 -0.00000000000E+00 -0.16405460228E+03  0.16405460228E+03  0.00000000000E+00 0.  1.
         25    2    1    2    0    0 -0.55226049499E+02 -0.44613573458E+02 -0.10652274220E+03  0.17898567405E+03  0.12509392243E+03 0.  0.
          5    1    3    3  502    0 -0.71366208484E+02 -0.72414318492E+02 -0.48960064600E+02  0.11292267072E+03  0.41800000000E+01 0.  1.
         -5    1    3    3    0  502  0.16140158986E+02  0.27800745034E+02 -0.57562677601E+02  0.66063003331E+02  0.41800000000E+01 0.  1.
        -11    1    1    2    0    0  0.52683924828E+02  0.83606266425E+01  0.15147323512E+03  0.16059152210E+03  0.00000000000E+00 0. -1.
         11    1    1    2    0    0  0.25421246711E+01  0.36252946815E+02  0.29815672054E+01  0.36464068528E+02  0.00000000000E+00 0.  1.
</event>
<event>
 7    1  0.2641580E-009  0.1276650E+03  0.7561462E-02  0.1230962E+00
         -2   -1    0    0    0  501 -0.00000000000E+00  0.00000000000E+00  0.10091812072E+03  0.10091812072E+03  0.00000000000E+00 0.  1.
          2   -1    0    0  501    0  0.00000000000E+00 -0.00000000000E+00 -0.30678043561E+03  0.30678043561E+03  0.00000000000E+00 0. -1.
         25    2    1    2    0    0 -0.10158197513E+03 -0.46413856311E+02 -0.15640373589E+02  0.16842999374E+03  0.12510354822E+03 0.  0.
          5    1    3    3  502    0 -0.36018157565E+02 -0.21509141508E+02  0.54666334418E+02  0.69035000989E+02  0.41800000000E+01 0.  1.
         -5    1    3    3    0  502 -0.65563817565E+02 -0.24904714803E+02 -0.70306708007E+02  0.99394992751E+02  0.41800000000E+01 0.  1.
        -11    1    1    2    0    0  0.11377483037E+03  0.56551958551E+02 -0.15344682142E+03  0.19922038812E+03  0.00000000000E+00 0.  1.
         11    1    1    2    0    0 -0.12192855238E+02 -0.10138102240E+02 -0.36775119880E+02  0.40048174466E+02  0.00000000000E+00 0. -1.
</event>
<event>
 7    1  0.2641580E-009  0.8459683E+02  0.7561462E-02  0.1316490E+00
          1   -1    0    0  501    0  0.00000000000E+00  0.00000000000E+00  0.49728274823E+03  0.49728274823E+03  0.00000000000E+00 0. -1.
         -1   -1    0    0    0  501 -0.00000000000E+00 -0.00000000000E+00 -0.36271151799E+02  0.36271151799E+02  0.00000000000E+00 0.  1.
         25    2    1    2    0    0  0.74623221634E+00 -0.12838339147E+02  0.41291927890E+03  0.43164259656E+03  0.12509044911E+03 0.  0.
          5    1    3    3  502    0 -0.50003585077E+02  0.30441297246E+02  0.18008245830E+03  0.18940484494E+03  0.41800000000E+01 0.  1.
         -5    1    3    3    0  502  0.50749817294E+02 -0.43279636393E+02  0.23283682060E+03  0.24223775161E+03  0.41800000000E+01 0.  1.
        -11    1    1    2    0    0  0.20458871182E+02  0.49450202790E+01  0.68364741068E+02  0.71531506743E+02  0.00000000000E+00 0. -1.
         11    1    1    2    0    0 -0.21205103398E+02  0.78933188676E+01 -0.20272423542E+02  0.30379796726E+02  0.00000000000E+00 0.  1.
</event>
<event>
 7    1  0.4163740E-009  0.2008727E+03  0.7561462E-02  0.1149005E+00
         -2   -1    0    0    0  501 -0.00000000000E+00  0.00000000000E+00  0.23388675849E+03  0.23388675849E+03  0.00000000000E+00 0.  1.
          2   -1    0    0  501    0  0.00000000000E+00 -0.00000000000E+00 -0.20362964928E+03  0.20362964928E+03  0.00000000000E+00 0. -1.
         25    2    1    2    0    0  0.93927036683E+02  0.16390101631E+03  0.10583942853E+02  0.22681512033E+03  0.12508895872E+03 0.  0.
          5    1    3    3  502    0  0.94063203428E+02  0.12791433028E+03 -0.40758208811E+02  0.16397763907E+03  0.41800000000E+01 0.  1.
         -5    1    3    3    0  502 -0.13616674538E+00  0.35986686028E+02  0.51342151664E+02  0.62837481252E+02  0.41800000000E+01 0.  1.
        -11    1    1    2    0    0 -0.48059563626E+01 -0.92136339517E+02 -0.91183377495E+01  0.92711090812E+02  0.00000000000E+00 0. -1.
         11    1    1    2    0    0 -0.89121080320E+02 -0.71764676795E+02  0.28791504113E+02  0.11799019663E+03  0.00000000000E+00 0.  1.
</event>
<event>
 7    1  0.2641580E-009  0.2128925E+03  0.7561462E-02  0.1139296E+00
          1   -1    0    0  501    0  0.00000000000E+00  0.00000000000E+00  0.20469830351E+04  0.20469830351E+04  0.00000000000E+00 0. -1.
         -1   -1    0    0    0  501 -0.00000000000E+00 -0.00000000000E+00 -0.24874093393E+02  0.24874093393E+02  0.00000000000E+00 0.  1.
         25    2    1    2    0    0  0.42097820259E+02 -0.18394784834E+03  0.13134425556E+04  0.13328118382E+04  0.12508801621E+03 0.  0.
          5    1    3    3  502    0  0.80535799110E+02 -0.78914910265E+02  0.73946503980E+03  0.74802379340E+03  0.41800000000E+01 0.  1.
         -5    1    3    3    0  502 -0.38437978851E+02 -0.10503293807E+03  0.57397751584E+03  0.58478804484E+03  0.41800000000E+01 0.  1.
        -11    1    1    2    0    0 -0.61529462831E+02  0.14454283796E+03  0.44900691389E+03  0.47569498160E+03  0.00000000000E+00 0.  1.
         11    1    1    2    0    0  0.19431642572E+02  0.39405010376E+02  0.25965947220E+03  0.26335030867E+03  0.00000000000E+00 0. -1.
</event>
<event>
 7    1  0.2641580E-009  0.1241046E+03  0.7561462E-02  0.1236475E+00
         -2   -1    0    0    0  501 -0.00000000000E+00  0.00000000000E+00  0.36667494435E+02  0.36667494435E+02  0.00000000000E+00 0.  1.
          2   -1    0    0  501    0  0.00000000000E+00 -0.00000000000E+00 -0.51830483668E+03  0.51830483668E+03  0.00000000000E+00 0. -1.
         25    2    1    2    0    0 -0.56885681419E+02  0.55048834657E+02 -0.30737747810E+03  0.34116644115E+03  0.12508905457E+03 0.  0.
          5    1    3    3  502    0 -0.19176617568E+02 -0.30652905116E+02 -0.26384994698E+02  0.44955351168E+02  0.41800000000E+01 0. -1.
         -5    1    3    3    0  502 -0.37709063851E+02  0.85701739773E+02 -0.28099248340E+03  0.29621108998E+03  0.41800000000E+01 0. -1.
        -11    1    1    2    0    0  0.14857397573E+02 -0.71445114901E+02 -0.74325454593E+02  0.10416054870E+03  0.00000000000E+00 0. -1.
         11    1    1    2    0    0  0.42028283846E+02  0.16396280244E+02 -0.99934409552E+02  0.10964534127E+03  0.00000000000E+00 0.  1.
</event>
<event>
 6    1  0.2641580E-009  0.1004726E+03  0.7561462E-02  0.1279305E+00
         -1   -1    0    0    0  501 -0.00000000000E+00  0.00000000000E+00  0.93682368355E+01  0.93682368355E+01  0.00000000000E+00 0.  1.
          1   -1    0    0  501    0  0.00000000000E+00 -0.00000000000E+00 -0.13935350035E+04  0.13935350035E+04  0.00000000000E+00 0. -1.
          5    1    1    2  502    0  0.51455118446E+02 -0.19053089368E+02 -0.34818158195E+03  0.35250324231E+03  0.41800000000E+01 0. -1.
         -5    1    1    2    0  502 -0.65433706328E+02  0.11981094730E+02 -0.72917591382E+03  0.73221588501E+03  0.41800000000E+01 0. -1.
        -11    1    1    2    0    0  0.39624684596E+02  0.25996793802E+02 -0.12663284595E+03  0.13521030505E+03  0.00000000000E+00 0. -1.
         11    1    1    2    0    0 -0.25646096713E+02 -0.18924799165E+02 -0.18017642489E+03  0.18297380793E+03  0.00000000000E+00 0.  1.
</event>
<event>
 7    1  0.2641580E-009  0.1322568E+03  0.7561462E-02  0.1224145E+00
          2   -1    0    0  501    0  0.00000000000E+00  0.00000000000E+00  0.40329015072E+03  0.40329015072E+03  0.00000000000E+00 0.  1.
         -2   -1    0    0    0  501 -0.00000000000E+00 -0.00000000000E+00 -0.43760420102E+02  0.43760420102E+02  0.00000000000E+00 0. -1.
         25    2    1    2    0    0 -0.53884425434E+02  0.52863256340E+02  0.18969795098E+03  0.23943894303E+03  0.12509052584E+03 0.  0.
          5    1    3    3  502    0 -0.71358199174E+02  0.83911006199E+02  0.14280150581E+03  0.18039620842E+03  0.41800000000E+01 0. -1.
         -5    1    3    3    0  502  0.17473773740E+02 -0.31047749859E+02  0.46896445172E+02  0.59042734607E+02  0.41800000000E+01 0. -1.
        -11    1    1    2    0    0 -0.23555284326E+02 -0.29038301374E+02  0.66638643942E+02  0.76411931220E+02  0.00000000000E+00 0.  1.
         11    1    1    2    0    0  0.77439709760E+02 -0.23824954966E+02  0.10319313569E+03  0.13119969657E+03  0.00000000000E+00 0. -1.
</event>
<event>
 7    1  0.3041446E-009  0.8054649E+02  0.7561462E-02  0.1327508E+00
          3   -1    0    0  501    0  0.00000000000E+00  0.00000000000E+00  0.18027420409E+03  0.18027420409E+03  0.00000000000E+00 0. -1.
         -3   -1    0    0    0  501 -0.00000000000E+00 -0.00000000000E+00 -0.82799613056E+02  0.82799613056E+02  0.00000000000E+00 0.  1.
         25    2    1    2    0    0 -0.57528518448E+01 -0.54846641384E+02  0.45180267987E+02  0.14397904379E+03  0.12508980398E+03 0.  0.
          5    1    3    3  502    0 -0.25812559871E+02  0.81366944101E+01  0.68491759879E+02  0.73763728311E+02  0.41800000000E+01 0.  1.
         -5    1    3    3    0  502  0.20059708026E+02 -0.62983335795E+02 -0.23311491892E+02  0.70215315481E+02  0.41800000000E+01 0.  1.
        -11    1    1    2    0    0  0.22191306560E+02  0.25219636064E+02  0.72317218346E+02  0.79738724590E+02  0.00000000000E+00 0. -1.
         11    1    1    2    0    0 -0.16438454715E+02  0.29627005321E+02 -0.20022895301E+02  0.39356048759E+02  0.00000000000E+00 0.  1.
</event>
<event>
 7    1  0.2641580E-009  0.9665122E+02  0.7561462E-02  0.1287500E+00
         -2   -1    0    0    0  501 -0.00000000000E+00  0.00000000000E+00  0.13037524511E+03  0.13037524511E+03  0.00000000000E+00 0.  1.
          2   -1    0    0  501    0  0.00000000000E+00 -0.00000000000E+00 -0.10793089141E+03  0.10793089141E+03  0.00000000000E+00 0. -1.
         25    2    1    2    0    0  0.42167060300E+02  0.22628354093E+02  0.13477353984E+02  0.13460526700E+03  0.12508731130E+03 0.  0.
          5    1    3    3  502    0  0.26939168412E+01 -0.27997902737E+02 -0.41278797412E+02  0.50125355474E+02  0.41800000000E+01 0. -1.
         -5    1    3    3    0  502  0.39473143459E+02  0.50626256830E+02  0.54756151396E+02  0.84479911522E+02  0.41800000000E+01 0. -1.
        -11    1    1    2    0    0 -0.52120355906E+01 -0.52658692773E+02  0.16635125749E+02  0.55469186476E+02  0.00000000000E+00 0. -1.
         11    1    1    2    0    0 -0.36955024709E+02  0.30030338680E+02 -0.76681260284E+01  0.48231683045E+02  0.00000000000E+00 0.  1.
</event>
<event>
 7    1  0.2641580E-009  0.1626744E+03  0.7561462E-02  0.1185710E+00
         -2   -1    0    0    0  501 -0.00000000000E+00  0.00000000000E+00  0.22346687943E+03  0.22346687943E+03  0.00000000000E+00 0. -1.
          2   -1    0    0  501    0  0.00000000000E+00 -0.00000000000E+00 -0.13163431212E+03  0.13163431212E+03  0.00000000000E+00 0.  1.
         25    2    1    2    0    0  0.13124383978E+03 -0.25083998009E+02  0.48180067105E+02  0.18927239075E+03  0.12509423087E+03 0.  0.
          5    1    3    3  502    0 -0.23661097640E+01 -0.38217692170E+02 -0.14359231946E+02  0.41107790165E+02  0.41800000000E+01 0. -1.
         -5    1    3    3    0  502  0.13360994955E+03  0.13133694161E+02  0.62539299051E+02  0.14816460058E+03  0.41800000000E+01 0. -1.
        -11    1    1    2    0    0 -0.44311292304E+01  0.25313672457E+02  0.28078138103E+02  0.38063089192E+02  0.00000000000E+00 0. -1.
         11    1    1    2    0    0 -0.12681271055E+03 -0.22967444798E+00  0.15574362096E+02  0.12776571161E+03  0.00000000000E+00 0.  1.
</event>
<event>
 7    1  0.2641580E-009  0.1157239E+03  0.7561462E-02  0.1250323E+00
          2   -1    0    0  501    0  0.00000000000E+00  0.00000000000E+00  0.97998959482E+03  0.97998959482E+03  0.00000000000E+00 0. -1.
         -2   -1    0    0    0  501 -0.00000000000E+00 -0.00000000000E+00 -0.16306927167E+02  0.16306927167E+02  0.00000000000E+00 0.  1.
         25    2    1    2    0    0  0.62789571947E+02  0.42488921227E+01  0.50975909263E+03  0.52864262805E+03  0.12509241480E+03 0.  0.
          5    1    3    3  502    0  0.82693236363E+02 -0.23474739651E+02  0.46109090410E+03  0.46905386577E+03  0.41800000000E+01 0.  1.
         -5    1    3    3    0  502 -0.19903664416E+02  0.27723631773E+02  0.48668188529E+02  0.59588762284E+02  0.41800000000E+01 0.  1.
        -11    1    1    2    0    0 -0.16462895450E+02  0.42262371494E+02  0.22382151102E+03  0.22837075944E+03  0.00000000000E+00 0. -1.
         11    1    1    2    0    0 -0.46326676497E+02 -0.46511263617E+02  0.23010206399E+03  0.23928313449E+03  0.00000000000E+00 0.  1.
</event>
<event>
 7    1  0.2641580E-009  0.7288793E+02  0.7561462E-02  0.1350539E+00
          1   -1    0    0  501    0  0.00000000000E+00  0.00000000000E+00  0.45725659560E+03  0.45725659560E+03  0.00000000000E+00 0. -1.
         -1   -1    0    0    0  501 -0.00000000000E+00 -0.00000000000E+00 -0.30674922796E+02  0.30674922796E+02  0.00000000000E+00 0.  1.
         25    2    1    2    0    0  0.30232401574E+02 -0.36270749545E+02  0.28939779981E+03  0.31879269375E+03  0.12509248449E+03 0.  0.
          5    1    3    3  502    0 -0.67016490758E+01 -0.13351164563E+02 -0.85154127417E+01  0.17696054636E+02  0.41800000000E+01 0.  1.
         -5    1    3    3    0  502  0.36934050650E+02 -0.22919584982E+02  0.29791321255E+03  0.30109663912E+03  0.41800000000E+01 0.  1.
        -11    1    1    2    0    0  0.22936857707E+02  0.21438278185E+02  0.14446516455E+02  0.34560107793E+02  0.00000000000E+00 0.  1.
         11    1    1    2    0    0 -0.53169259282E+02  0.14832471360E+02  0.12273735654E+03  0.13457871685E+03  0.00000000000E+00 0. -1.
</event>
<event>
 7    1  0.2641580E-009  0.8448494E+02  0.7561462E-02  0.1316785E+00
         -2   -1    0    0    0  501 -0.00000000000E+00  0.00000000000E+00  0.16260020088E+02  0.16260020088E+02  0.00000000000E+00 0. -1.
          2   -1    0    0  501    0  0.00000000000E+00 -0.00000000000E+00 -0.78498493746E+03  0.78498493746E+03  0.00000000000E+00 0.  1.
         25    2    1    2    0    0 -0.20218137757E+02  0.24487515274E+02 -0.41284702768E+03  0.43254895275E+03  0.12509003464E+03 0.  0.
          5    1    3    3  502    0 -0.38014493806E+02 -0.54367265451E+01 -0.32196484735E+02  0.50286636039E+02  0.41800000000E+01 0. -1.
         -5    1    3    3    0  502  0.17796356049E+02  0.29924241819E+02 -0.38065054294E+03  0.38226231672E+03  0.41800000000E+01 0. -1.
        -11    1    1    2    0    0 -0.34681584800E+02  0.11146776697E+01 -0.10398717456E+03  0.10962384459E+03  0.00000000000E+00 0. -1.
         11    1    1    2    0    0  0.54899722557E+02 -0.25602192944E+02 -0.25189071513E+03  0.25907216020E+03  0.00000000000E+00 0.  1.
</event>
<event>
 7    1  0.2641580E-009  0.1022424E+03  0.7561462E-02  0.1275650E+00
          1   -1    0    0  501    0  0.00000000000E+00  0.00000000000E+00  0.36883142784E+03  0.36883142784E+03  0.00000000000E+00 0. -1.
         -1   -1    0    0    0  501 -0.00000000000E+00 -0.00000000000E+00 -0.56788211147E+02  0.56788211147E+02  0.00000000000E+00 0.  1.
         25    2    1    2    0    0 -0.60166756661E+02 -0.56197532199E+02  0.10117570673E+03  0.18072571699E+03  0.12508820854E+03 0.  0.
          5    1    3    3  502    0 -0.55888680159E+02 -0.56234636371E+02  0.12943271014E+03  0.15184260848E+03  0.41800000000E+01 0.  1.
         -5    1    3    3    0  502 -0.42780765026E+01  0.37104172385E-01 -0.28257003405E+02  0.28883108501E+02  0.41800000000E+01 0.  1.
        -11    1    1    2    0    0  0.71690232437E+02  0.11076734535E+02  0.16141368402E+03  0.17696485771E+03  0.00000000000E+00 0. -1.
         11    1    1    2    0    0 -0.11523475776E+02  0.45120797664E+02  0.49453825942E+02  0.67929064296E+02  0.00000000000E+00 0.  1.
</event>
<event>
 7    1  0.2641580E-009  0.2639844E+03  0.7561462E-02  0.1104773E+00
         -1   -1    0    0    0  501 -0.00000000000E+00  0.00000000000E+00  0.68002635630E+03  0.68002635630E+03  0.00000000000E+00 0.  1.
          1   -1    0    0  501    0  0.00000000000E+00 -0.00000000000E+00 -0.12802066575E+03  0.12802066575E+03  0.00000000000E+00 0. -1.
         25    2    1    2    0    0 -0.70829234858E+02 -0.24123198288E+03  0.43094156365E+03  0.51435925010E+03  0.12508060124E+03 0.  0.
          5    1    3    3  502    0  0.11473918665E+02 -0.12498164460E+02 -0.22365170832E+01  0.17616166809E+02  0.41800000000E+01 0.  1.
         -5    1    3    3    0  502 -0.82303153523E+02 -0.22873381842E+03  0.43317808073E+03  0.49674308329E+03  0.41800000000E+01 0.  1.
        -11    1    1    2    0    0 -0.28963392644E+01  0.15019423008E+03  0.62299270868E+02  0.16262808700E+03  0.00000000000E+00 0. -1.
         11    1    1    2    0    0  0.73725574122E+02  0.91037752804E+02  0.58764856027E+02  0.13105968495E+03  0.00000000000E+00 0.  1.
</event>
<event>
 7    1  0.2641580E-009  0.2478351E+03  0.7561462E-02  0.1114681E+00
         -2   -1    0    0    0  501 -0.00000000000E+00  0.00000000000E+00  0.57823970259E+02  0.57823970259E+02  0.00000000000E+00 0.  1.
          2   -1    0    0  501    0  0.00000000000E+00 -0.00000000000E+00 -0.12476110930E+04  0.12476110930E+04  0.00000000000E+00 0. -1.
         25    2    1    2    0    0 -0.13931715732E+03 -0.19523326275E+03 -0.48400082565E+03  0.55446319527E+03  0.12508932199E+03 0.  0.
          5    1    3    3  502    0 -0.98027385307E+02 -0.68770806866E+02 -0.32910922731E+03  0.35024155671E+03  0.41800000000E+01 0. -1.
         -5    1    3    3    0  502 -0.41289772012E+02 -0.12646245588E+03 -0.15489159835E+03  0.20422163857E+03  0.41800000000E+01 0. -1.
        -11    1    1    2    0    0  0.26818296618E+02  0.67000340004E+02 -0.33703407330E+03  0.34467409702E+03  0.00000000000E+00 0. -1.
         11    1    1    2    0    0  0.11249886070E+03  0.12823292275E+03 -0.36875222376E+03  0.40629777093E+03  0.00000000000E+00 0.  1.
</event>
<event>
 7    1  0.2641580E-009  0.2012521E+03  0.7561462E-02  0.1148687E+00
          1   -1    0    0  501    0  0.00000000000E+00  0.00000000000E+00  0.17519414579E+03  0.17519414579E+03  0.00000000000E+00 0. -1.
         -1   -1    0    0    0  501 -0.00000000000E+00 -0.00000000000E+00 -0.26736698170E+03  0.26736698170E+03  0.00000000000E+00 0.  1.
         25    2    1    2    0    0 -0.11167669568E+02  0.18345025918E+03 -0.74221979202E+02  0.23437430491E+03  0.12507477032E+03 0.  0.
          5    1    3    3  502    0 -0.34769597031E+02  0.42945183743E+01  0.73962901925E+01  0.36049206293E+02  0.41800000000E+01 0.  1.
         -5    1    3    3    0  502  0.23601927463E+02  0.17915574080E+03 -0.81618269394E+02  0.19832509862E+03  0.41800000000E+01 0.  1.
        -11    1    1    2    0    0 -0.34615113262E+01 -0.14902480863E+03 -0.51731041917E+02  0.15778617286E+03  0.00000000000E+00 0.  1.
         11    1    1    2    0    0  0.14629180894E+02 -0.34425450548E+02  0.33780185211E+02  0.50400649717E+02  0.00000000000E+00 0. -1.
</event>
<event>
 7    1  0.2641580E-009  0.1982227E+03  0.7561462E-02  0.1151247E+00
         -1   -1    0    0    0  501 -0.00000000000E+00  0.00000000000E+00  0.69911375098E+03  0.69911375098E+03  0.00000000000E+00 0.  1.
          1   -1    0    0  501    0  0.00000000000E+00 -0.00000000000E+00 -0.71823727644E+02  0.71823727644E+02  0.00000000000E+00 0. -1.
         25    2    1    2    0    0 -0.60235631422E+02  0.16789740137E+03  0.45870493333E+03  0.50781421251E+03  0.12508872804E+03 0.  0.
          5    1    3    3  502    0 -0.23525865622E+02  0.16650737474E+03  0.42760122542E+03  0.45949804415E+03  0.41800000000E+01 0. -1.
         -5    1    3    3    0  502 -0.36709765800E+02  0.13900266337E+01  0.31103707909E+02  0.48316168358E+02  0.41800000000E+01 0. -1.
        -11    1    1    2    0    0  0.11153515461E+02 -0.12666891759E+03  0.14945353575E+03  0.19622888406E+03  0.00000000000E+00 0.  1.
         11    1    1    2    0    0  0.49082115961E+02 -0.41228483780E+02  0.19131554252E+02  0.66894382052E+02  0.00000000000E+00 0. -1.
</event>
<event>
 7    1  0.2641580E-009  0.9748215E+02  0.7561462E-02  0.1285682E+00
          1   -1    0    0  501    0  0.00000000000E+00  0.00000000000E+00  0.65747355844E+02  0.65747355844E+02  0.00000000000E+00 0. -1.
         -1   -1    0    0    0  501 -0.00000000000E+00 -0.00000000000E+00 -0.23456900021E+03  0.23456900021E+03  0.00000000000E+00 0.  1.
         25    2    1    2    0    0  0.31587048971E+02  0.50542144075E+02 -0.10015137412E+03  0.17098324476E+03  0.12511083990E+03 0.  0.
          5    1    3    3  502    0  0.14046914400E+02 -0.38953153617E+02 -0.10265900981E+02  0.42866363315E+02  0.41800000000E+01 0.  1.
         -5    1    3    3    0  502  0.17540134571E+02  0.89495297693E+02 -0.89885473134E+02  0.12811688144E+03  0.41800000000E+01 0.  1.
        -11    1    1    2    0    0 -0.19750778988E+02 -0.15628310122E+02  0.20736386841E+02  0.32624148834E+02  0.00000000000E+00 0. -1.
         11    1    1    2    0    0 -0.11836269983E+02 -0.34913833953E+02 -0.89406657095E+02  0.96708962466E+02  0.00000000000E+00 0.  1.
</event>
<event>
 7    1  0.2641580E-009  0.2212901E+03  0.7561462E-02  0.1132925E+00
          1   -1    0    0  501    0  0.00000000000E+00  0.00000000000E+00  0.93900640635E+03  0.93900640635E+03  0.00000000000E+00 0. -1.
         -1   -1    0    0    0  501 -0.00000000000E+00 -0.00000000000E+00 -0.68224108866E+02  0.68224108866E+02  0.00000000000E+00 0.  1.
         25    2    1    2    0    0 -0.20322825709E+03 -0.20310499920E+02  0.65370265278E+03  0.69619626288E+03  0.12509131593E+03 0.  0.
          5    1    3    3  502    0 -0.18717797192E+02  0.38859843431E+02  0.85610916049E+02  0.95953867614E+02  0.41800000000E+01 0.  1.
         -5    1    3    3    0  502 -0.18451045990E+03 -0.59170343351E+02  0.56809173673E+03  0.60024239527E+03  0.41800000000E+01 0.  1.
        -11    1    1    2    0    0  0.10489151097E+03  0.21583959014E+02  0.52394625802E+02  0.11921951675E+03  0.00000000000E+00 0. -1.
         11    1    1    2    0    0  0.98336746115E+02 -0.12734590938E+01  0.16468501891E+03  0.19181473559E+03  0.00000000000E+00 0.  1.
</event>
<event>
 7    1  0.2641580E-009  0.1082929E+03  0.7561462E-02  0.1263764E+00
         -1   -1    0    0    0  501 -0.00000000000E+00  0.00000000000E+00  0.18655901434E+02  0.18655901434E+02  0.00000000000E+00 0.  1.
          1   -1    0    0  501    0  0.00000000000E+00 -0.00000000000E+00 -0.10572104817E+04  0.10572104817E+04  0.00000000000E+00 0. -1.
         25    2    1    2    0    0  0.47168355629E+02  0.32176669731E+02 -0.83471382935E+03  0.84596387685E+03  0.12509001629E+03 0.  0.
          5    1    3    3  502    0  0.81040463623E+02 -0.11412780965E+02 -0.52017179495E+03  0.52658710293E+03  0.41800000000E+01 0.  1.
         -5    1    3    3    0  502 -0.33872107993E+02  0.43589450696E+02 -0.31454203440E+03  0.31937677392E+03  0.41800000000E+01 0.  1.
        -11    1    1    2    0    0 -0.67706145787E+01 -0.37879410832E+02 -0.23684873459E+02  0.45184778604E+02  0.00000000000E+00 0.  1.
         11    1    1    2    0    0 -0.40397741051E+02  0.57027411003E+01 -0.18015587743E+03  0.18471772766E+03  0.00000000000E+00 0. -1.
</event>
<event>
 7    1  0.2641580E-009  0.1375819E+03  0.7561462E-02  0.1216620E+00
         -2   -1    0    0    0  501 -0.00000000000E+00  0.00000000000E+00  0.25474046830E+03  0.25474046830E+03  0.00000000000E+00 0.  1.
          2   -1    0    0  501    0  0.00000000000E+00 -0.00000000000E+00 -0.87054807608E+02  0.87054807608E+02  0.00000000000E+00 0. -1.
         25    2    1    2    0    0  0.87552634737E+02  0.41641832519E+02  0.12606521339E+03  0.20233247492E+03  0.12508591574E+03 0.  0.
          5    1    3    3  502    0  0.10495536828E+03  0.68512169180E+02  0.93074119223E+02  0.15617237504E+03  0.41800000000E+01 0. -1.
         -5    1    3    3    0  502 -0.17402733539E+02 -0.26870336661E+02  0.32991094170E+02  0.46160099885E+02  0.41800000000E+01 0. -1.
        -11    1    1    2    0    0 -0.45310862515E+02  0.14170852730E+02 -0.14616316020E+02  0.49674178634E+02  0.00000000000E+00 0. -1.
         11    1    1    2    0    0 -0.42241772222E+02 -0.55812685249E+02  0.56236763321E+02  0.89788622353E+02  0.00000000000E+00 0.  1.
</event>
<event>
 7    1  0.2641580E-009  0.8916772E+02  0.7561462E-02  0.1304880E+00
         -1   -1    0    0    0  501 -0.00000000000E+00  0.00000000000E+00  0.17618156473E+02  0.17618156473E+02  0.00000000000E+00 0.  1.
          1   -1    0    0  501    0  0.00000000000E+00 -0.00000000000E+00 -0.67383241605E+03  0.67383241605E+03  0.00000000000E+00 0. -1.
         25    2    1    2    0    0  0.21462507906E+02 -0.42752563406E+01 -0.46471918903E+03  0.48176194149E+03  0.12510686053E+03 0.  0.
          5    1    3    3  502    0  0.25035391432E+02 -0.61563486073E+02 -0.19778344066E+03  0.20869258597E+03  0.41800000000E+01 0. -1.
         -5    1    3    3    0  502 -0.35728835261E+01  0.57288229733E+02 -0.26693574837E+03  0.27306935552E+03  0.41800000000E+01 0. -1.
        -11    1    1    2    0    0 -0.36212761138E+02  0.11190661682E+02 -0.18952642767E+03  0.19327923263E+03  0.00000000000E+00 0. -1.
         11    1    1    2    0    0  0.14750253232E+02 -0.69154053416E+01 -0.19686428779E+01  0.16409398412E+02  0.00000000000E+00 0.  1.
</event>
<event>
 7    1  0.2641580E-009  0.1516295E+03  0.7561462E-02  0.1198485E+00
          2   -1    0    0  501    0  0.00000000000E+00  0.00000000000E+00  0.31426595139E+03  0.31426595139E+03  0.00000000000E+00 0. -1.
         -2   -1    0    0    0  501 -0.00000000000E+00 -0.00000000000E+00 -0.46708574589E+03  0.46708574589E+03  0.00000000000E+00 0.  1.
         25    2    1    2    0    0  0.12656798349E+03 -0.37600957754E+02 -0.42696457405E+03  0.46408965264E+03  0.12508865548E+03 0.  0.
          5    1    3    3  502    0  0.99370566876E+02  0.27833418259E+01 -0.39087551948E+03  0.40334030382E+03  0.41800000000E+01 0.  1.
         -5    1    3    3    0  502  0.27197416617E+02 -0.40384299580E+02 -0.36089054564E+02  0.60749348824E+02  0.41800000000E+01 0.  1.
        -11    1    1    2    0    0 -0.94924732403E+02  0.63329327021E+02  0.16386111836E+03  0.19967917917E+03  0.00000000000E+00 0.  1.
         11    1    1    2    0    0 -0.31643251090E+02 -0.25728369266E+02  0.11028366119E+03  0.11758286546E+03  0.00000000000E+00 0. -1.
</event>
<event>
 7    1  0.2641580E-009  0.1182098E+03  0.7561462E-02  0.1246080E+00
          1   -1    0    0  501    0  0.00000000000E+00  0.00000000000E+00  0.62873700805E+02  0.62873700805E+02  0.00000000000E+00 0. -1.
         -1   -1    0    0    0  501 -0.00000000000E+00 -0.00000000000E+00 -0.35506357989E+03  0.35506357989E+03  0.00000000000E+00 0.  1.
         25    2    1    2    0    0  0.66726868749E+02 -0.52564532017E+02 -0.77640339875E+02  0.16997117324E+03  0.12508665923E+03 0.  0.
          5    1    3    3  502    0  0.19729786373E+02  0.26529865872E+02 -0.70034730922E+02  0.77559230197E+02  0.41800000000E+01 0. -1.
         -5    1    3    3    0  502  0.46997082375E+02 -0.79094397889E+02 -0.76056089533E+01  0.92411943042E+02  0.41800000000E+01 0. -1.
        -11    1    1    2    0    0 -0.15728672170E+02 -0.18017844633E+02 -0.10515055792E+02  0.26126619601E+02  0.00000000000E+00 0. -1.
         11    1    1    2    0    0 -0.50998196578E+02  0.70582376651E+02 -0.20403448342E+03  0.22183948785E+03  0.00000000000E+00 0.  1.
</event>
<event>
 7    1  0.2641580E-009  0.8628105E+02  0.7561462E-02  0.1312116E+00
         -1   -1    0    0    0  501 -0.00000000000E+00  0.00000000000E+00  0.27244630976E+02  0.27244630976E+02  0.00000000000E+00 0.  1.
          1   -1    0    0  501    0  0.00000000000E+00 -0.00000000000E+00 -0.47479303502E+03  0.47479303502E+03  0.00000000000E+00 0. -1.
         25    2    1    2    0    0 -0.10719111157E+02  0.33824919983E+02 -0.24890436447E+03  0.28081975485E+03  0.12508927814E+03 0.  0.
          5    1    3    3  502    0  0.29569844194E+02 -0.12429781789E+02 -0.95976978871E+01  0.33741122769E+02  0.41800000000E+01 0.  1.
         -5    1    3    3    0  502 -0.40288955351E+02  0.46254701772E+02 -0.23930666659E+03  0.24707863208E+03  0.41800000000E+01 0.  1.
        -11    1    1    2    0    0 -0.27170648381E+02  0.11116804109E+01 -0.16242296939E+02  0.31674787713E+02  0.00000000000E+00 0.  1.
         11    1    1    2    0    0  0.37889759538E+02 -0.34936600394E+02 -0.18240174263E+03  0.18954312343E+03  0.00000000000E+00 0. -1.
</event>
<event>
 7    1  0.2641580E-009  0.8810572E+02  0.7561462E-02  0.1307505E+00
         -1   -1    0    0    0  501 -0.00000000000E+00  0.00000000000E+00  0.34857086488E+03  0.34857086488E+03  0.00000000000E+00 0.  1.
          1   -1    0    0  501    0  0.00000000000E+00 -0.00000000000E+00 -0.33194426452E+02  0.33194426452E+02  0.00000000000E+00 0. -1.
         25    2    1    2    0    0  0.17442585503E+02 -0.20922269503E+01  0.15748119588E+03  0.20188516032E+03  0.12509464297E+03 0.  0.
          5    1    3    3  502    0 -0.12277731009E+02 -0.40028251352E+02  0.55527078855E+01  0.42441825478E+02  0.41800000000E+01 0.  1.
         -5    1    3    3    0  502  0.29720316512E+02  0.37936024402E+02  0.15192848800E+03  0.15944333484E+03  0.41800000000E+01 0.  1.
        -11    1    1    2    0    0 -0.27550648782E+02  0.38856857157E+02  0.78880187487E+02  0.92146500608E+02  0.00000000000E+00 0.  1.
         11    1    1    2    0    0  0.10108063279E+02 -0.36764630207E+02  0.79015055055E+02  0.87733630398E+02  0.00000000000E+00 0. -1.
</event>
<event>
 7    1  0.2641580E-009  0.1236366E+03  0.7561462E-02  0.1237216E+00
         -2   -1    0    0    0  501 -0.00000000000E+00  0.00000000000E+00  0.58993127427E+02  0.58993127427E+02  0.00000000000E+00 0. -1.
          2   -1    0    0  501    0  0.00000000000E+00 -0.00000000000E+00 -0.30245174314E+03  0.30245174314E+03  0.00000000000E+00 0.  1.
         25    2    1    2    0    0 -0.23138636718E+02 -0.74895049270E+02 -0.15510514439E+03  0.21412703501E+03  0.12509243140E+03 0.  0.
          5    1    3    3  502    0  0.21874772276E+02 -0.80794268561E+02 -0.14492717458E+03  0.16741438954E+03  0.41800000000E+01 0.  1.
         -5    1    3    3    0  502 -0.45013408994E+02  0.58992192915E+01 -0.10177969808E+02  0.46712645472E+02  0.41800000000E+01 0.  1.
        -11    1    1    2    0    0  0.25606976787E+02  0.94606113375E+02 -0.74052263228E+02  0.12284043161E+03  0.00000000000E+00 0.  1.
         11    1    1    2    0    0 -0.24683400691E+01 -0.19711064105E+02 -0.14301208097E+02  0.24477403945E+02  0.00000000000E+00 0. -1.
</event>
<event>
 7    1  0.2641580E-009  0.7365081E+02  0.7561462E-02  0.1348101E+00
          2   -1    0    0  501    0  0.00000000000E+00  0.00000000000E+00  0.33652937362E+03  0.33652937362E+03  0.00000000000E+00 0.  1.
         -2   -1    0    0    0  501 -0.00000000000E+00 -0.00000000000E+00 -0.51069787080E+02  0.51069787080E+02  0.00000000000E+00 0. -1.
         25    2    1    2    0    0  0.34613200772E+02  0.57372011530E+01  0.61596193967E+02  0.14377688578E+03  0.12508682036E+03 0.  0.
          5    1    3    3  502    0 -0.11916411384E+02  0.25241033237E+02 -0.28703032423E+02  0.40254777225E+02  0.41800000000E+01 0.  1.
         -5    1    3    3    0  502  0.46529612156E+02 -0.19503832084E+02  0.90299226390E+02  0.10352210856E+03  0.41800000000E+01 0.  1.
        -11    1    1    2    0    0 -0.95090854661E+01 -0.31247290432E+02  0.23376135014E+02  0.40165402450E+02  0.00000000000E+00 0. -1.
         11    1    1    2    0    0 -0.25104115306E+02  0.25510089279E+02  0.20048725756E+03  0.20365687247E+03  0.00000000000E+00 0.  1.
</event>
<event>
 7    1  0.2641580E-009  0.2775664E+03  0.7561462E-02  0.1097026E+00
          2   -1    0    0  501    0  0.00000000000E+00  0.00000000000E+00  0.11431190816E+04  0.11431190816E+04  0.00000000000E+00 0. -1.
         -2   -1    0    0    0  501 -0.00000000000E+00 -0.00000000000E+00 -0.73021280775E+02  0.73021280775E+02  0.00000000000E+00 0.  1.
         25    2    1    2    0    0 -0.24801021723E+03 -0.61448652610E+02  0.71465318005E+03  0.76919542926E+03  0.12508971132E+03 0.  0.
          5    1    3    3  502    0 -0.18231227818E+03  0.15660278758E+02  0.45184661604E+03  0.48750984394E+03  0.41800000000E+01 0.  1.
         -5    1    3    3    0  502 -0.65697939048E+02 -0.77108931369E+02  0.26280656401E+03  0.28168558533E+03  0.41800000000E+01 0.  1.
        -11    1    1    2    0    0  0.63568554905E+02  0.58285705060E+02  0.12221981701E+03  0.14958565525E+03  0.00000000000E+00 0. -1.
         11    1    1    2    0    0  0.18444166233E+03  0.31629475505E+01  0.23322480375E+03  0.29735927785E+03  0.00000000000E+00 0.  1.
</event>
<event>
 7    1  0.2641580E-009  0.1083680E+03  0.7561462E-02  0.1263622E+00
          2   -1    0    0  501    0  0.00000000000E+00  0.00000000000E+00  0.19876058437E+03  0.19876058437E+03  0.00000000000E+00 0. -1.
         -2   -1    0    0    0  501 -0.00000000000E+00 -0.00000000000E+00 -0.10199161298E+03  0.10199161298E+03  0.00000000000E+00 0.  1.
         25    2    1    2    0    0  0.29442765206E+02 -0.24975299295E+02  0.13957853939E+03  0.19136473449E+03  0.12509057099E+03 0.  0.
          5    1    3    3  502    0  0.73317678889E+02 -0.88224043285E+01  0.47192976289E+02  0.87738054838E+02  0.41800000000E+01 0. -1.
         -5    1    3    3    0  502 -0.43874913682E+02 -0.16152894967E+02  0.92385563104E+02  0.10362667966E+03  0.41800000000E+01 0. -1.
        -11    1    1    2    0    0 -0.36866148171E+02  0.54271480569E+02 -0.12895112710E+02  0.66863969490E+02  0.00000000000E+00 0. -1.
         11    1    1    2    0    0  0.74233829653E+01 -0.29296181274E+02 -0.29914455296E+02  0.42523493360E+02  0.00000000000E+00 0.  1.
</event>
<event>
 7    1  0.2641580E-009  0.9481582E+02  0.7561462E-02  0.1291591E+00
         -2   -1    0    0    0  501 -0.00000000000E+00  0.00000000000E+00  0.15500677166E+02  0.15500677166E+02  0.00000000000E+00 0.  1.
          2   -1    0    0  501    0  0.00000000000E+00 -0.00000000000E+00 -0.77491586542E+03  0.77491586542E+03  0.00000000000E+00 0. -1.
         25    2    1    2    0    0 -0.15925134611E+02  0.65112170666E+01 -0.47213942225E+03  0.48873216422E+03  0.12508992141E+03 0.  0.
          5    1    3    3  502    0 -0.50707959309E+02 -0.21435205634E+02 -0.10283646734E+03  0.11672007793E+03  0.41800000000E+01 0. -1.
         -5    1    3    3    0  502  0.34782824698E+02  0.27946422700E+02 -0.36930295491E+03  0.37201208629E+03  0.41800000000E+01 0. -1.
        -11    1    1    2    0    0 -0.30708522986E+02 -0.24842885547E+02 -0.92785171923E+02  0.10084280081E+03  0.00000000000E+00 0.  1.
         11    1    1    2    0    0  0.46633657597E+02  0.18331668480E+02 -0.19449059408E+03  0.20084157755E+03  0.00000000000E+00 0. -1.
</event>
<event>
 7    1  0.2641580E-009  0.1106409E+03  0.7561462E-02  0.1259388E+00
          2   -1    0    0  501    0  0.00000000000E+00  0.00000000000E+00  0.51459826963E+03  0.51459826963E+03  0.00000000000E+00 0. -1.
         -2   -1    0    0    0  501 -0.00000000000E+00 -0.00000000000E+00 -0.35853692301E+02  0.35853692301E+02  0.00000000000E+00 0.  1.
         25    2    1    2    0    0 -0.50110618403E+02 -0.62833108512E+02  0.30038785971E+03  0.33517315205E+03  0.12509637083E+03 0.  0.
          5    1    3    3  502    0 -0.95098691237E+01  0.30352239755E+02  0.15142857155E+03  0.15478947235E+03  0.41800000000E+01 0.  1.
         -5    1    3    3    0  502 -0.40600749280E+02 -0.93185348267E+02  0.14895928816E+03  0.18038367970E+03  0.41800000000E+01 0.  1.
        -11    1    1    2    0    0  0.17656249592E+02  0.10582089321E+01 -0.55824230012E+01  0.18547948737E+02  0.00000000000E+00 0.  1.
         11    1    1    2    0    0  0.32454368811E+02  0.61774899580E+02  0.18393914062E+03  0.19673086114E+03  0.00000000000E+00 0. -1.
</event>
<event>
 7    1  0.2641580E-009  0.1540681E+03  0.7561462E-02  0.1195561E+00
         -3   -1    0    0    0  501 -0.00000000000E+00  0.00000000000E+00  0.25651959573E+03  0.25651959573E+03  0.00000000000E+00 0.  1.
          3   -1    0    0  501    0  0.00000000000E+00 -0.00000000000E+00 -0.12180773286E+03  0.12180773286E+03  0.00000000000E+00 0. -1.
         25    2    1    2    0    0  0.11990588993E+03 -0.53467754224E+02  0.23171810544E+02  0.18281294987E+03  0.12508964248E+03 0.  0.
          5    1    3    3  502    0  0.85426252722E+02 -0.86103576309E+02 -0.14278499403E+02  0.12219991184E+03  0.41800000000E+01 0. -1.
         -5    1    3    3    0  502  0.34479637208E+02  0.32635822085E+02  0.37450309947E+02  0.60613038039E+02  0.41800000000E+01 0. -1.
        -11    1    1    2    0    0 -0.49037872159E+02 -0.20625115501E+01  0.90658478302E+02  0.10309183551E+03  0.00000000000E+00 0.  1.
         11    1    1    2    0    0 -0.70868017771E+02  0.55530265774E+02  0.20881574023E+02  0.92422543210E+02  0.00000000000E+00 0. -1.
</event>
<event>
 7    1  0.2641580E-009  0.1267110E+03  0.7561462E-02  0.1232419E+00
         -1   -1    0    0    0  501 -0.00000000000E+00  0.00000000000E+00  0.47359865183E+03  0.47359865183E+03  0.00000000000E+00 0.  1.
          1   -1    0    0  501    0  0.00000000000E+00 -0.00000000000E+00 -0.41114298014E+02  0.41114298014E+02  0.00000000000E+00 0. -1.
         25    2    1    2    0    0  0.58457945764E+02 -0.49283931258E+02  0.20521842516E+03  0.25220810481E+03  0.12509232112E+03 0.  0.
          5    1    3    3  502    0  0.79166325395E+02  0.13157716503E+02  0.10428334862E+03  0.13165455472E+03  0.41800000000E+01 0.  1.
         -5    1    3    3    0  502 -0.20708379632E+02 -0.62441647761E+02  0.10093507654E+03  0.12055355009E+03  0.41800000000E+01 0.  1.
        -11    1    1    2    0    0 -0.36713124742E+02  0.68762007567E+02  0.21855552294E+03  0.23204004788E+03  0.00000000000E+00 0.  1.
         11    1    1    2    0    0 -0.21744821021E+02 -0.19478076309E+02  0.87104057179E+01  0.30464797155E+02  0.00000000000E+00 0. -1.
</event>
<event>
 7    1  0.2641580E-009  0.1047444E+03  0.7561462E-02  0.1270624E+00
          2   -1    0    0  501    0  0.00000000000E+00  0.00000000000E+00  0.47328259555E+02  0.47328259555E+02  0.00000000000E+00 0.  1.
         -2   -1    0    0    0  501 -0.00000000000E+00 -0.00000000000E+00 -0.30496475005E+03  0.30496475005E+03  0.00000000000E+00 0. -1.
         25    2    1    2    0    0 -0.15395334643E+02  0.31030035465E+02 -0.91698263364E+02  0.15890511488E+03  0.12506951908E+03 0.  0.
          5    1    3    3  502    0 -0.31055789161E+02  0.68763289665E+02 -0.23215005610E+02  0.79052267087E+02  0.41800000000E+01 0.  1.
         -5    1    3    3    0  502  0.15660454518E+02 -0.37733254201E+02 -0.68483257754E+02  0.79852847795E+02  0.41800000000E+01 0.  1.
        -11    1    1    2    0    0 -0.21525888152E+02  0.20325013976E+02 -0.88964978288E+02  0.93761598833E+02  0.00000000000E+00 0. -1.
         11    1    1    2    0    0  0.36921222795E+02 -0.51355049440E+02 -0.76973248843E+02  0.99626295892E+02  0.00000000000E+00 0.  1.
</event>
<event>
 7    1  0.2641580E-009  0.9776383E+02  0.7561462E-02  0.1285070E+00
         -4   -1    0    0    0  501 -0.00000000000E+00  0.00000000000E+00  0.93461861998E+02  0.93461861998E+02  0.00000000000E+00 0.  1.
          4   -1    0    0  501    0  0.00000000000E+00 -0.00000000000E+00 -0.12424708564E+03  0.12424708564E+03  0.00000000000E+00 0. -1.
         25    2    1    2    0    0 -0.99522768862E+01 -0.34460122202E+02 -0.27449935738E+02  0.13304882220E+03  0.12514768188E+03 0.  0.
          5    1    3    3  502    0 -0.62612808788E+02 -0.10915115470E+02 -0.38130008829E+02  0.74235258088E+02  0.41800000000E+01 0.  1.
         -5    1    3    3    0  502  0.52660531902E+02 -0.23545006732E+02  0.10680073091E+02  0.58813564111E+02  0.41800000000E+01 0.  1.
        -11    1    1    2    0    0  0.10749399928E+02  0.53687796010E+02  0.16338692580E+02  0.57139145202E+02  0.00000000000E+00 0.  1.
         11    1    1    2    0    0 -0.79712304186E+00 -0.19227673807E+02 -0.19673980487E+02  0.27520980240E+02  0.00000000000E+00 0. -1.
</event>
<event>
 7    1  0.2641580E-009  0.1304579E+03  0.7561462E-02  0.1226778E+00
         -1   -1    0    0    0  501 -0.00000000000E+00  0.00000000000E+00  0.64729557268E+02  0.64729557268E+02  0.00000000000E+00 0.  1.
          1   -1    0    0  501    0  0.00000000000E+00 -0.00000000000E+00 -0.35535122004E+03  0.35535122004E+03  0.00000000000E+00 0. -1.
         25    2    1    2    0    0  0.45804594217E+02 -0.83682270474E+02 -0.93533470139E+02  0.18302094579E+03  0.12508946126E+03 0.  0.
          5    1    3    3  502    0 -0.27730497955E+02 -0.12657351519E+02  0.14682013221E+02  0.34091391531E+02  0.41800000000E+01 0. -1.
         -5    1    3    3    0  502  0.73535092172E+02 -0.71024918955E+02 -0.10821548336E+03  0.14892955426E+03  0.41800000000E+01 0. -1.
        -11    1    1    2    0    0  0.19075399496E+02 -0.32534089446E+01 -0.12753724060E+02  0.23175698761E+02  0.00000000000E+00 0. -1.
         11    1    1    2    0    0 -0.64879993712E+02  0.86935679419E+02 -0.18433446857E+03  0.21388413275E+03  0.00000000000E+00 0.  1.
</event>
<event>
 7    1  0.2641580E-009  0.9009967E+02  0.7561462E-02  0.1302611E+00
          1   -1    0    0  501    0  0.00000000000E+00  0.00000000000E+00  0.28842063673E+02  0.28842063673E+02  0.00000000000E+00 0. -1.
         -1   -1    0    0    0  501 -0.00000000000E+00 -0.00000000000E+00 -0.57319294911E+03  0.57319294911E+03  0.00000000000E+00 0.  1.
         25    2    1    2    0    0  0.63885248307E+02 -0.64633760849E+01 -0.23614090920E+03  0.27483266357E+03  0.12508942316E+03 0.  0.
          5    1    3    3  502    0  0.26007449633E+02  0.15755625649E+02  0.37480379136E+01  0.30921632625E+02  0.41800000000E+01 0. -1.
         -5    1    3    3    0  502  0.37877798675E+02 -0.22219001734E+02 -0.23988894711E+03  0.24391103095E+03  0.41800000000E+01 0. -1.
        -11    1    1    2    0    0  0.37421103420E+01  0.32656964905E+02 -0.57702735934E+02  0.66408481995E+02  0.00000000000E+00 0. -1.
         11    1    1    2    0    0 -0.67627358649E+02 -0.26193588820E+02 -0.25050724030E+03  0.26079386722E+03  0.00000000000E+00 0.  1.
</event>
<event>
 7    1  0.2641580E-009  0.1397857E+03  0.7561462E-02  0.1213618E+00
          1   -1    0    0  501    0  0.00000000000E+00  0.00000000000E+00  0.33290574394E+03  0.33290574394E+03  0.00000000000E+00 0. -1.
         -1   -1    0    0    0  501 -0.00000000000E+00 -0.00000000000E+00 -0.74348857558E+02  0.74348857558E+02  0.00000000000E+00 0.  1.
         25    2    1    2    0    0 -0.81515423041E+02  0.34259106630E+02  0.23051371293E+03  0.27677256173E+03  0.12509208008E+03 0.  0.
          5    1    3    3  502    0 -0.47014901163E+02 -0.45293334777E+02  0.83952874791E+02  0.10643046882E+03  0.41800000000E+01 0.  1.
         -5    1    3    3    0  502 -0.34500521878E+02  0.79552441408E+02  0.14656083814E+03  0.17034209292E+03  0.41800000000E+01 0.  1.
        -11    1    1    2    0    0  0.30885347764E+02  0.31655978638E+02  0.74040110295E+01  0.44842224179E+02  0.00000000000E+00 0.  1.
         11    1    1    2    0    0  0.50630075277E+02 -0.65915085268E+02  0.20639162426E+02  0.85639815589E+02  0.00000000000E+00 0. -1.
</event>
<event>
 7    1  0.3535340E-009  0.1196984E+03  0.7561462E-02  0.1243595E+00
          2   -1    0    0  501    0  0.00000000000E+00  0.00000000000E+00  0.66796732668E+03  0.66796732668E+03  0.00000000000E+00 0. -1.
         -2   -1    0    0    0  501 -0.00000000000E+00 -0.00000000000E+00 -0.24648211540E+02  0.24648211540E+02  0.00000000000E+00 0.  1.
         25    2    1    2    0    0 -0.61953560688E+02  0.87073663647E+01  0.28439728740E+03  0.31692873100E+03  0.12509173252E+03 0.  0.
          5    1    3    3  502    0  0.34783494690E+02 -0.14907301404E+02  0.55822063364E+02  0.67569921535E+02  0.41800000000E+01 0.  1.
         -5    1    3    3    0  502 -0.96737055378E+02  0.23614667769E+02  0.22857522403E+03  0.24935880947E+03  0.41800000000E+01 0.  1.
        -11    1    1    2    0    0  0.41343575508E+02 -0.44258367632E+02  0.28248007977E+03  0.28889979199E+03  0.00000000000E+00 0. -1.
         11    1    1    2    0    0  0.20609985179E+02  0.35551001267E+02  0.76441747973E+02  0.86787015235E+02  0.00000000000E+00 0.  1.
</event>
<event>
 7    1  0.2641580E-009  0.1284715E+03  0.7561462E-02  0.1229741E+00
         -3   -1    0    0    0  501 -0.00000000000E+00  0.00000000000E+00  0.80923304695E+02  0.80923304695E+02  0.00000000000E+00 0.  1.
          3   -1    0    0  501    0  0.00000000000E+00 -0.00000000000E+00 -0.23415108421E+03  0.23415108421E+03  0.00000000000E+00 0. -1.
         25    2    1    2    0    0  0.66923724087E+01  0.78542558123E+02 -0.11943183890E+03  0.19006632479E+03  0.12509005713E+03 0.  0.
          5    1    3    3  502    0 -0.52956408744E+02  0.34270509213E+02 -0.20862808593E+02  0.66570099978E+02  0.41800000000E+01 0. -1.
         -5    1    3    3    0  502  0.59648781152E+02  0.44272048911E+02 -0.98569030306E+02  0.12349622481E+03  0.41800000000E+01 0. -1.
        -11    1    1    2    0    0 -0.84585760020E+01  0.19506220789E+02  0.67017030785E-01  0.21261341649E+02  0.00000000000E+00 0. -1.
         11    1    1    2    0    0  0.17662035934E+01 -0.98048778912E+02 -0.33862957646E+02  0.10374672246E+03  0.00000000000E+00 0.  1.
</event>
<event>
 7    1  0.2641580E-009  0.1328473E+03  0.7561462E-02  0.1223291E+00
         -2   -1    0    0    0  501 -0.00000000000E+00  0.00000000000E+00  0.12570289098E+03  0.12570289098E+03  0.00000000000E+00 0. -1.
          2   -1    0    0  501    0  0.00000000000E+00 -0.00000000000E+00 -0.20502930359E+03  0.20502930359E+03  0.00000000000E+00 0.  1.
         25    2    1    2    0    0 -0.61597396282E+02 -0.10109186765E+03 -0.37187817168E+02  0.17619660649E+03  0.12509398651E+03 0.  0.
          5    1    3    3  502    0 -0.76941683268E+02 -0.71928141840E+02  0.22595883441E+02  0.10780411199E+03  0.41800000000E+01 0. -1.
         -5    1    3    3    0  502  0.15344286987E+02 -0.29163725806E+02 -0.59783700609E+02  0.68392494504E+02  0.41800000000E+01 0. -1.
        -11    1    1    2    0    0  0.67078558450E+02  0.75933141723E+02 -0.64772235557E+02  0.12025313931E+03  0.00000000000E+00 0.  1.
         11    1    1    2    0    0 -0.54811621682E+01  0.25158725924E+02  0.22633640117E+02  0.34282448772E+02  0.00000000000E+00 0. -1.
</event>
<event>
 7    1  0.2641580E-009  0.1195795E+03  0.7561462E-02  0.1243792E+00
          2   -1    0    0  501    0  0.00000000000E+00  0.00000000000E+00  0.10390845077E+04  0.10390845077E+04  0.00000000000E+00 0.  1.
         -2   -1    0    0    0  501 -0.00000000000E+00 -0.00000000000E+00 -0.30923113107E+02  0.30923113107E+02  0.00000000000E+00 0. -1.
         25    2    1    2    0    0 -0.90965278625E+01 -0.76495100343E+02  0.88752894911E+03  0.89960472001E+03  0.12508704794E+03 0.  0.
          5    1    3    3  502    0  0.27286311273E+01 -0.10689314260E+03  0.77553450535E+03  0.78288238628E+03  0.41800000000E+01 0. -1.
         -5    1    3    3    0  502 -0.11825158990E+02  0.30398042254E+02  0.11199444376E+03  0.11672233373E+03  0.41800000000E+01 0. -1.
        -11    1    1    2    0    0  0.29268045986E+02  0.11901192150E+02 -0.55727941912E+00  0.31600117892E+02  0.00000000000E+00 0. -1.
         11    1    1    2    0    0 -0.20171518124E+02  0.64593908193E+02  0.12118972486E+03  0.13880278287E+03  0.00000000000E+00 0.  1.
</event>
<event>
 6    1  0.2641580E-009  0.1151436E+03  0.7561462E-02  0.1251331E+00
          2   -1    0    0  501    0  0.00000000000E+00  0.00000000000E+00  0.52157020317E+03  0.52157020317E+03  0.00000000000E+00 0. -1.
         -2   -1    0    0    0  501 -0.00000000000E+00 -0.00000000000E+00 -0.27157739917E+02  0.27157739917E+02  0.00000000000E+00 0.  1.
          5    1    1    2  502    0 -0.26444493113E+02  0.46371745775E+02  0.16832740070E+03  0.17663871674E+03  0.41800000000E+01 0.  1.
         -5    1    1    2    0  502  0.54225121400E+02 -0.38978867596E+02  0.95045659009E+02  0.11623624911E+03  0.41800000000E+01 0.  1.
        -11    1    1    2    0    0  0.40440214509E+02  0.41009338019E+01  0.80663749422E+02  0.90326458352E+02  0.00000000000E+00 0.  1.
         11    1    1    2    0    0 -0.68220842796E+02 -0.11493811981E+02  0.15037565411E+03  0.16552651889E+03  0.00000000000E+00 0. -1.
</event>
<event>
 7    1  0.2641580E-009  0.1797963E+03  0.7561462E-02  0.1168000E+00
         -2   -1    0    0    0  501 -0.00000000000E+00  0.00000000000E+00  0.96171708740E+02  0.96171708740E+02  0.00000000000E+00 0.  1.
          2   -1    0    0  501    0  0.00000000000E+00 -0.00000000000E+00 -0.45412350635E+03  0.45412350635E+03  0.00000000000E+00 0. -1.
         25    2    1    2    0    0  0.13152964376E+03  0.12008328327E+03 -0.18624664244E+03  0.28645426894E+03  0.12509274266E+03 0.  0.
          5    1    3    3  502    0  0.85837448211E+01  0.40502451634E+01 -0.92543212239E+02  0.93122519793E+02  0.41800000000E+01 0.  1.
         -5    1    3    3    0  502  0.12294589894E+03  0.11603303811E+03 -0.93703430200E+02  0.19333174915E+03  0.41800000000E+01 0.  1.
        -11    1    1    2    0    0 -0.12654412002E+02 -0.24513983512E+02  0.74257539068E+01  0.28569412872E+02  0.00000000000E+00 0.  1.
         11    1    1    2    0    0 -0.11887523176E+03 -0.95569299761E+02 -0.17913090908E+03  0.23527153327E+03  0.00000000000E+00 0. -1.
</event>
<event>
 7    1  0.2641580E-009  0.8805595E+02  0.7561462E-02  0.1307629E+00
         -2   -1    0    0    0  501 -0.00000000000E+00  0.00000000000E+00  0.15842519362E+03  0.15842519362E+03  0.00000000000E+00 0.  1.
          2   -1    0    0  501    0  0.00000000000E+00 -0.00000000000E+00 -0.13606424991E+03  0.13606424991E+03  0.00000000000E+00 0. -1.
         25    2    1    2    0    0  0.92660636702E+01 -0.32113258044E+02 -0.80307442508E+02  0.15235670970E+03  0.12508461293E+03 0.  0.
          5    1    3    3  502    0  0.38227571269E+02 -0.55530397684E+01 -0.10066499099E+03  0.10790318006E+03  0.41800000000E+01 0. -1.
         -5    1    3    3    0  502 -0.28961507598E+02 -0.26560218275E+02  0.20357548485E+02  0.44453529641E+02  0.41800000000E+01 0. -1.
        -11    1    1    2    0    0  0.28874263532E+02  0.48327012980E+02  0.51622822619E+02  0.76381536338E+02  0.00000000000E+00 0.  1.
         11    1    1    2    0    0 -0.38140327202E+02 -0.16213754937E+02  0.51045563598E+02  0.65751197489E+02  0.00000000000E+00 0. -1.
</event>
<event>
 7    1  0.2641580E-009  0.1147988E+03  0.7561462E-02  0.1251933E+00
         -2   -1    0    0    0  501 -0.00000000000E+00  0.00000000000E+00  0.12854745017E+03  0.12854745017E+03  0.00000000000E+00 0. -1.
          2   -1    0    0  501    0  0.00000000000E+00 -0.00000000000E+00 -0.38798722687E+03  0.38798722687E+03  0.00000000000E+00 0.  1.
         25    2    1    2    0    0  0.95616874253E+02  0.13856226793E+02 -0.33021092967E+03  0.36608863584E+03  0.12508816712E+03 0.  0.
          5    1    3    3  502    0  0.50793271484E+02  0.31722745433E+02 -0.30620105228E+03  0.31203020018E+03  0.41800000000E+01 0.  1.
         -5    1    3    3    0  502  0.44823602769E+02 -0.17866518640E+02 -0.24009877382E+02  0.54058435654E+02  0.41800000000E+01 0.  1.
        -11    1    1    2    0    0 -0.10796482333E+03 -0.11690427521E+02  0.37494888287E+02  0.11488662159E+03  0.00000000000E+00 0.  1.
         11    1    1    2    0    0  0.12347949076E+02 -0.21657992717E+01  0.33276264677E+02  0.35559419620E+02  0.00000000000E+00 0. -1.
</event>
<event>
 7    1  0.2641580E-009  0.5530314E+02  0.7561462E-02  0.1418671E+00
          2   -1    0    0  501    0  0.00000000000E+00  0.00000000000E+00  0.95353916699E+02  0.95353916699E+02  0.00000000000E+00 0. -1.
         -2   -1    0    0    0  501 -0.00000000000E+00 -0.00000000000E+00 -0.14626682393E+03  0.14626682393E+03  0.00000000000E+00 0.  1.
         25    2    1    2    0    0 -0.16559541203E+02 -0.20196771265E+02 -0.75729834824E+02  0.14853855645E+03  0.12508623783E+03 0.  0.
          5    1    3    3  502    0 -0.10723308347E+02 -0.33220268642E+02  0.27255588493E+02  0.44484998535E+02  0.41800000000E+01 0.  1.
         -5    1    3    3    0  502 -0.58362328565E+01  0.13023497377E+02 -0.10298542332E+03  0.10405355791E+03  0.41800000000E+01 0.  1.
        -11    1    1    2    0    0 -0.18403383777E+02 -0.29625021651E+01  0.43383496944E+02  0.47218521372E+02  0.00000000000E+00 0. -1.
         11    1    1    2    0    0  0.34962924980E+02  0.23159273430E+02 -0.18566569350E+02  0.45863662811E+02  0.00000000000E+00 0.  1.
</event>
<event>
 7    1  0.2641580E-009  0.1192706E+03  0.7561462E-02  0.1244305E+00
          2   -1    0    0  501    0  0.00000000000E+00  0.00000000000E+00  0.13251442948E+04  0.13251442948E+04  0.00000000000E+00 0. -1.
         -2   -1    0    0    0  501 -0.00000000000E+00 -0.00000000000E+00 -0.19144125818E+02  0.19144125818E+02  0.00000000000E+00 0.  1.
         25    2    1    2    0    0 -0.22551089210E+02  0.77617585078E+02  0.10611285690E+04  0.10715294625E+04  0.12509399669E+03 0.  0.
          5    1    3    3  502    0 -0.48041704490E+02  0.81794113285E+02  0.45329480781E+03  0.46313274287E+03  0.41800000000E+01 0.  1.
         -5    1    3    3    0  502  0.25490615279E+02 -0.41765282065E+01  0.60783376115E+03  0.60839671962E+03  0.41800000000E+01 0.  1.
        -11    1    1    2    0    0 -0.30837630312E+02 -0.45983433867E+02  0.14460223736E+03  0.15483940934E+03  0.00000000000E+00 0. -1.
         11    1    1    2    0    0  0.53388719522E+02 -0.31634151211E+02  0.10026936263E+03  0.11791954875E+03  0.00000000000E+00 0.  1.
</event>
<event>
 7    1  0.2641580E-009  0.1035895E+03  0.7561462E-02  0.1272924E+00
          2   -1    0    0  501    0  0.00000000000E+00  0.00000000000E+00  0.12305118423E+04  0.12305118423E+04  0.00000000000E+00 0. -1.
         -2   -1    0    0    0  501 -0.00000000000E+00 -0.00000000000E+00 -0.12299617632E+02  0.12299617632E+02  0.00000000000E+00 0.  1.
         25    2    1    2    0    0  0.23986353818E+02  0.24786263650E+02  0.95733916917E+03  0.96609150599E+03  0.12507921130E+03 0.  0.
          5    1    3    3  502    0  0.32139246716E+02  0.68328772930E+02  0.76224929198E+03  0.76599165003E+03  0.41800000000E+01 0. -1.
         -5    1    3    3    0  502 -0.81528928982E+01 -0.43542509279E+02  0.19508987719E+03  0.20009985597E+03  0.41800000000E+01 0. -1.
        -11    1    1    2    0    0 -0.41484114412E+01 -0.52672056084E+02  0.11022635636E+03  0.12223503772E+03  0.00000000000E+00 0.  1.
         11    1    1    2    0    0 -0.19837942377E+02  0.27885792434E+02  0.15064669917E+03  0.15448491625E+03  0.00000000000E+00 0. -1.
</event>
<event>
 7    1  0.2641580E-009  0.1623938E+03  0.7561462E-02  0.1186020E+00
          1   -1    0    0  501    0  0.00000000000E+00  0.00000000000E+00  0.24568500506E+03  0.24568500506E+03  0.00000000000E+00 0. -1.
         -1   -1    0    0    0  501 -0.00000000000E+00 -0.00000000000E+00 -0.12015573400E+03  0.12015573400E+03  0.00000000000E+00 0.  1.
         25    2    1    2    0    0 -0.24858863803E+01 -0.13282726850E+03  0.64183678684E+02  0.19343538398E+03  0.12509372596E+03 0.  0.
          5    1    3    3  502    0 -0.35682075394E+02  0.46731553995E+01 -0.38229527793E+01  0.36429881330E+02  0.41800000000E+01 0.  1.
         -5    1    3    3    0  502  0.33196189013E+02 -0.13750042390E+03  0.68006631463E+02  0.15700550265E+03  0.41800000000E+01 0.  1.
        -11    1    1    2    0    0 -0.28533988201E+02  0.88171726446E+02  0.71554080300E+02  0.11708299721E+03  0.00000000000E+00 0. -1.
         11    1    1    2    0    0  0.31019874581E+02  0.44655542056E+02 -0.10208487927E+02  0.55322357877E+02  0.00000000000E+00 0.  1.
</event>
<event>
 7    1  0.2641580E-009  0.1489083E+03  0.7561462E-02  0.1201821E+00
         -1   -1    0    0    0  501 -0.00000000000E+00  0.00000000000E+00  0.26921416858E+02  0.26921416858E+02  0.00000000000E+00 0.  1.
          1   -1    0    0  501    0  0.00000000000E+00 -0.00000000000E+00 -0.83176340582E+03  0.83176340582E+03  0.00000000000E+00 0. -1.
         25    2    1    2    0    0 -0.98181748115E+02 -0.28993672301E+02 -0.43237390872E+03  0.46160004665E+03  0.12508843845E+03 0.  0.
          5    1    3    3  502    0 -0.42608834087E+02 -0.76049391896E+02 -0.26568378386E+03  0.27965043922E+03  0.41800000000E+01 0. -1.
         -5    1    3    3    0  502 -0.55572914028E+02  0.47055719595E+02 -0.16669012486E+03  0.18194960744E+03  0.41800000000E+01 0. -1.
        -11    1    1    2    0    0  0.58227704773E+02 -0.30660916367E+02 -0.17389335601E+03  0.18592863324E+03  0.00000000000E+00 0. -1.
         11    1    1    2    0    0  0.39954043342E+02  0.59654588668E+02 -0.19857472423E+03  0.21115614278E+03  0.00000000000E+00 0.  1.
</event>
<event>
 7    1  0.2641580E-009  0.9473030E+02  0.7561462E-02  0.1291785E+00
          1   -1    0    0  501    0  0.00000000000E+00  0.00000000000E+00  0.47846508966E+03  0.47846508966E+03  0.00000000000E+00 0. -1.
         -1   -1    0    0    0  501 -0.00000000000E+00 -0.00000000000E+00 -0.25024636893E+02  0.25024636893E+02  0.00000000000E+00 0.  1.
         25    2    1    2    0    0  0.59077989817E+01  0.40814184324E+01  0.33063718324E+03  0.35358195642E+03  0.12509073866E+03 0.  0.
          5    1    3    3  502    0 -0.42218625945E+01 -0.57421796232E+02  0.20918791805E+03  0.21700724473E+03  0.41800000000E+01 0.  1.
         -5    1    3    3    0  502  0.10129661576E+02  0.61503214665E+02  0.12144926519E+03  0.13657471169E+03  0.41800000000E+01 0.  1.
        -11    1    1    2    0    0  0.82435960607E+01  0.30659217592E+02  0.10239371330E+03  0.10720269130E+03  0.00000000000E+00 0. -1.
         11    1    1    2    0    0 -0.14151395042E+02 -0.34740636024E+02  0.20409556234E+02  0.42705078839E+02  0.00000000000E+00 0.  1.
</event>
<event>
 7    1  0.2641580E-009  0.6944859E+02  0.7561462E-02  0.1361978E+00
         -2   -1    0    0    0  501 -0.00000000000E+00  0.00000000000E+00  0.14637931453E+02  0.14637931453E+02  0.00000000000E+00 0.  1.
          2   -1    0    0  501    0  0.00000000000E+00 -0.00000000000E+00 -0.11126715249E+04  0.11126715249E+04  0.00000000000E+00 0. -1.
         25    2    1    2    0    0  0.11346671092E+02 -0.17214300209E+02 -0.89284651492E+03  0.90180220096E+03  0.12508889385E+03 0.  0.
          5    1    3    3  502    0 -0.22141961243E+02 -0.32019961085E+01 -0.27552688157E+02  0.35737127073E+02  0.41800000000E+01 0.  1.
         -5    1    3    3    0  502  0.33488632335E+02 -0.14012304101E+02 -0.86529382677E+03  0.86606507388E+03  0.41800000000E+01 0.  1.
        -11    1    1    2    0    0  0.23089035669E+02 -0.18794725447E+02 -0.26014434731E+02  0.39536010005E+02  0.00000000000E+00 0.  1.
         11    1    1    2    0    0 -0.34435706761E+02  0.36009025656E+02 -0.17917264383E+03  0.18597124543E+03  0.00000000000E+00 0. -1.
</event>
<event>
 7    1  0.2641580E-009  0.1384038E+03  0.7561462E-02  0.1215493E+00
          4   -1    0    0  501    0  0.00000000000E+00  0.00000000000E+00  0.35408322948E+03  0.35408322948E+03  0.00000000000E+00 0. -1.
         -4   -1    0    0    0  501 -0.00000000000E+00 -0.00000000000E+00 -0.64483516476E+02  0.64483516476E+02  0.00000000000E+00 0.  1.
         25    2    1    2    0    0  0.10019677477E+03 -0.53023507911E+02  0.11754321254E+03  0.20570682609E+03  0.12509198784E+03 0.  0.
          5    1    3    3  502    0  0.17009031595E+02 -0.72102504182E+02  0.21710041845E+02  0.77310261815E+02  0.41800000000E+01 0. -1.
         -5    1    3    3    0  502  0.83187743171E+02  0.19078996270E+02  0.95833170693E+02  0.12839656428E+03  0.41800000000E+01 0. -1.
        -11    1    1    2    0    0 -0.36202614441E+02  0.35738161992E+02  0.11363515586E+03  0.12450218537E+03  0.00000000000E+00 0. -1.
         11    1    1    2    0    0 -0.63994160325E+02  0.17285345920E+02  0.58421344603E+02  0.88357734491E+02  0.00000000000E+00 0.  1.
</event>
<event>
 7    1  0.2641580E-009  0.1002612E+03  0.7561462E-02  0.1279748E+00
         -2   -1    0    0    0  501 -0.00000000000E+00  0.00000000000E+00  0.21382203598E+02  0.21382203598E+02  0.00000000000E+00 0.  1.
          2   -1    0    0  501    0  0.00000000000E+00 -0.00000000000E+00 -0.58073066062E+03  0.58073066062E+03  0.00000000000E+00 0. -1.
         25    2    1    2    0    0 -0.11428131595E+02  0.23417121263E+02 -0.30011618584E+03  0.32618480956E+03  0.12509133153E+03 0.  0.
          5    1    3    3  502    0  0.13643946659E+02  0.62323839886E+02 -0.24909884539E+03  0.25717333740E+03  0.41800000000E+01 0.  1.
         -5    1    3    3    0  502 -0.25072078254E+02 -0.38906718623E+02 -0.51017340448E+02  0.69011472151E+02  0.41800000000E+01 0.  1.
        -11    1    1    2    0    0 -0.36581032029E+02 -0.20687106798E+02 -0.80117245850E+02  0.90470444757E+02  0.00000000000E+00 0.  1.
         11    1    1    2    0    0  0.48009163624E+02 -0.27300144649E+01 -0.17911502534E+03  0.18545760991E+03  0.00000000000E+00 0. -1.
</event>
<event>
 7    1  0.2641580E-009  0.1522199E+03  0.7561462E-02  0.1197771E+00
          1   -1    0    0  501    0  0.00000000000E+00  0.00000000000E+00  0.69177381600E+03  0.69177381600E+03  0.00000000000E+00 0. -1.
         -1   -1    0    0    0  501 -0.00000000000E+00 -0.00000000000E+00 -0.42937304471E+02  0.42937304471E+02  0.00000000000E+00 0.  1.
         25    2    1    2    0    0  0.10699497173E+03 -0.56621899934E+02  0.45993749892E+03  0.49177583832E+03  0.12508800389E+03 0.  0.
          5    1    3    3  502    0  0.70149348600E+02  0.20502023158E+02  0.11453386308E+03  0.13592918102E+03  0.41800000000E+01 0.  1.
         -5    1    3    3    0  502  0.36845623131E+02 -0.77123923092E+02  0.34540363585E+03  0.35584665730E+03  0.41800000000E+01 0.  1.
        -11    1    1    2    0    0  0.79982589220E+00  0.35879737896E+02  0.18862545092E+02  0.40543691498E+02  0.00000000000E+00 0. -1.
         11    1    1    2    0    0 -0.10779479762E+03  0.20742162038E+02  0.17003646752E+03  0.20239159066E+03  0.00000000000E+00 0.  1.
</event>
<event>
 7    1  0.2641580E-009  0.9269701E+02  0.7561462E-02  0.1296449E+00
         -3   -1    0    0    0  501 -0.00000000000E+00  0.00000000000E+00  0.39350999622E+02  0.39350999622E+02  0.00000000000E+00 0.  1.
          3   -1    0    0  501    0  0.00000000000E+00 -0.00000000000E+00 -0.39191670014E+03  0.39191670014E+03  0.00000000000E+00 0. -1.
         25    2    1    2    0    0  0.15867108195E+02  0.42357331463E+02 -0.15126763485E+03  0.20142833350E+03  0.12508224308E+03 0.  0.
          5    1    3    3  502    0  0.19139272326E+02  0.57701464728E+02 -0.13123778147E+02  0.62333592306E+02  0.41800000000E+01 0.  1.
         -5    1    3    3    0  502 -0.32721641311E+01 -0.15344133264E+02 -0.13814385670E+03  0.13909474120E+03  0.41800000000E+01 0.  1.
        -11    1    1    2    0    0 -0.51528252663E+02  0.16798048718E+01 -0.70916505471E+02  0.87676298480E+02  0.00000000000E+00 0. -1.
         11    1    1    2    0    0  0.35661144468E+02 -0.44037136335E+02 -0.13038156019E+03  0.14216306778E+03  0.00000000000E+00 0.  1.
</event>
<event>
 7    1  0.2641580E-009  0.6934694E+02  0.7561462E-02  0.1362328E+00
         -2   -1    0    0    0  501 -0.00000000000E+00  0.00000000000E+00  0.37437372830E+02  0.37437372830E+02  0.00000000000E+00 0.  1.
          2   -1    0    0  501    0  0.00000000000E+00 -0.00000000000E+00 -0.41117562816E+03  0.41117562816E+03  0.00000000000E+00 0. -1.
         25    2    1    2    0    0 -0.35453733236E+01 -0.39803740071E+02 -0.12532553765E+03  0.18152148738E+03  0.12508658041E+03 0.  0.
          5    1    3    3  502    0 -0.24384659271E+02 -0.39189770287E+02  0.75489274700E+01  0.46956452260E+02  0.41800000000E+01 0. -1.
         -5    1    3    3    0  502  0.20839285947E+02 -0.61396978467E+00 -0.13287446512E+03  0.13456503512E+03  0.41800000000E+01 0. -1.
        -11    1    1    2    0    0  0.31124037117E+02  0.18224252780E+02 -0.21722473510E+03  0.22019857996E+03  0.00000000000E+00 0. -1.
         11    1    1    2    0    0 -0.27578663794E+02  0.21579487291E+02 -0.31187982577E+02  0.46892933642E+02  0.00000000000E+00 0.  1.
</event>
<event>
 6    1  0.2641580E-009  0.6027610E+02  0.7561462E-02  0.1396677E+00
         -2   -1    0    0    0  501 -0.00000000000E+00  0.00000000000E+00  0.48595771255E+02  0.48595771255E+02  0.00000000000E+00 0. -1.
          2   -1    0    0  501    0  0.00000000000E+00 -0.00000000000E+00 -0.25918227070E+03  0.25918227070E+03  0.00000000000E+00 0.  1.
          5    1    1    2  502    0 -0.90512008793E+01 -0.13795695898E+02  0.29439302170E+02  0.34005740323E+02  0.41800000000E+01 0. -1.
         -5    1    1    2    0  502  0.65714385242E+01 -0.76351683144E+01 -0.12325933761E+03  0.12374092415E+03  0.41800000000E+01 0. -1.
        -11    1    1    2    0    0  0.46288773704E+02  0.11809670809E+02 -0.46475410610E+02  0.66648951132E+02  0.00000000000E+00 0. -1.
         11    1    1    2    0    0 -0.43809011349E+02  0.96211934026E+01 -0.70291053390E+02  0.83382426353E+02  0.00000000000E+00 0.  1.
</event>
<event>
 7    1  0.2641580E-009  0.7271206E+02  0.7561462E-02  0.1351106E+00
          2   -1    0    0  501    0  0.00000000000E+00  0.00000000000E+00  0.16430293666E+03  0.16430293666E+03  0.00000000000E+00 0. -1.
         -2   -1    0    0    0  501 -0.00000000000E+00 -0.00000000000E+00 -0.13570553398E+03  0.13570553398E+03  0.00000000000E+00 0.  1.
         25    2    1    2    0    0  0.48313127778E+02  0.33909094759E+02  0.98601270388E+02  0.16986277322E+03  0.12508863330E+03 0.  0.
          5    1    3    3  502    0  0.39353464547E+02  0.27765494057E+02  0.12875968150E+03  0.13753598007E+03  0.41800000000E+01 0.  1.
         -5    1    3    3    0  502  0.89596632316E+01  0.61436007029E+01 -0.30158411114E+02  0.32326793156E+02  0.41800000000E+01 0.  1.
        -11    1    1    2    0    0 -0.43423656657E+02  0.72217773917E+01  0.51631331644E+01  0.44321845294E+02  0.00000000000E+00 0. -1.
         11    1    1    2    0    0 -0.48894711211E+01 -0.41130872151E+02 -0.75167000879E+02  0.85823852121E+02  0.00000000000E+00 0.  1.
</event>
<event>
 7    1  0.2641580E-009  0.1066590E+03  0.7561462E-02  0.1266885E+00
         -2   -1    0    0    0  501 -0.00000000000E+00  0.00000000000E+00  0.10254543184E+02  0.10254543184E+02  0.00000000000E+00 0. -1.
          2   -1    0    0  501    0  0.00000000000E+00 -0.00000000000E+00 -0.17236150472E+04  0.17236150472E+04  0.00000000000E+00 0.  1.
         25    2    1    2    0    0 -0.26083400312E+02 -0.52183002610E+02 -0.12743703241E+04  0.12818231629E+04  0.12508992169E+03 0.  0.
          5    1    3    3  502    0  0.32575112284E+02 -0.21674082355E+02 -0.94696774893E+03  0.94778494064E+03  0.41800000000E+01 0. -1.
         -5    1    3    3    0  502 -0.58658512595E+02 -0.30508920255E+02 -0.32740257520E+03  0.33403822231E+03  0.41800000000E+01 0. -1.
        -11    1    1    2    0    0 -0.29925849416E+02  0.40743580321E+02 -0.21757614096E+03  0.22337182659E+03  0.00000000000E+00 0.  1.
         11    1    1    2    0    0  0.56009249727E+02  0.11439422288E+02 -0.22141403889E+03  0.22867460081E+03  0.00000000000E+00 0. -1.
</event>
<event>
 7    1  0.2641580E-009  0.8652885E+02  0.7561462E-02  0.1311482E+00
         -2   -1    0    0    0  501 -0.00000000000E+00  0.00000000000E+00  0.17881993937E+03  0.17881993937E+03  0.00000000000E+00 0.  1.
          2   -1    0    0  501    0  0.00000000000E+00 -0.00000000000E+00 -0.11491105125E+03  0.11491105125E+03  0.00000000000E+00 0. -1.
         25    2    1    2    0    0 -0.18177858718E+02  0.68229152146E+02  0.98471495491E+02  0.17415536369E+03  0.12509118085E+03 0.  0.
          5    1    3    3  502    0 -0.35814001679E+02  0.61884318152E+02  0.12340534902E+03  0.14268379066E+03  0.41800000000E+01 0. -1.
         -5    1    3    3    0  502  0.17636142961E+02  0.63448339939E+01 -0.24933853530E+02  0.31471573027E+02  0.41800000000E+01 0. -1.
        -11    1    1    2    0    0 -0.38443316015E+01 -0.57689805272E+02  0.18878545773E+02  0.60821805369E+02  0.00000000000E+00 0.  1.
         11    1    1    2    0    0  0.22022190319E+02 -0.10539346874E+02 -0.53441153146E+02  0.58753821565E+02  0.00000000000E+00 0. -1.
</event>
<event>
 7    1  0.2641580E-009  0.1092983E+03  0.7561462E-02  0.1261875E+00
          1   -1    0    0  501    0  0.00000000000E+00  0.00000000000E+00  0.48485325580E+02  0.48485325580E+02  0.00000000000E+00 0. -1.
         -1   -1    0    0    0  501 -0.00000000000E+00 -0.00000000000E+00 -0.39081289248E+03  0.39081289248E+03  0.00000000000E+00 0.  1.
         25    2    1    2    0    0 -0.48546912429E+01 -0.85662683706E+02 -0.18255770073E+03  0.23734586598E+03  0.12507630709E+03 0.  0.
          5    1    3    3  502    0 -0.29877166251E+02 -0.44310036244E+02 -0.18103833273E+03  0.18880777180E+03  0.41800000000E+01 0.  1.
         -5    1    3    3    0  502  0.25022475008E+02 -0.41352647463E+02 -0.15193680046E+01  0.48538094182E+02  0.41800000000E+01 0.  1.
        -11    1    1    2    0    0 -0.36165497456E+02  0.28125061514E+02 -0.31800032879E+02  0.55769206400E+02  0.00000000000E+00 0. -1.
         11    1    1    2    0    0  0.41020188699E+02  0.57537622192E+02 -0.12796983329E+03  0.14618314568E+03  0.00000000000E+00 0.  1.
</event>
<event>
 7    1  0.2641580E-009  0.1294606E+03  0.7561462E-02  0.1228258E+00
         -1   -1    0    0    0  501 -0.00000000000E+00  0.00000000000E+00  0.44233842036E+03  0.44233842036E+03  0.00000000000E+00 0.  1.
          1   -1    0    0  501    0  0.00000000000E+00 -0.00000000000E+00 -0.44895383702E+02  0.44895383702E+02  0.00000000000E+00 0. -1.
         25    2    1    2    0    0  0.16803366830E+02  0.69919584078E+02  0.12413695226E+03  0.19033868115E+03  0.12509088397E+03 0.  0.
          5    1    3    3  502    0  0.10867183406E+02 -0.35491608817E+02  0.44057535643E+02  0.57760616501E+02  0.41800000000E+01 0. -1.
         -5    1    3    3    0  502  0.59361834241E+01  0.10541119289E+03  0.80079416618E+02  0.13257806465E+03  0.41800000000E+01 0. -1.
        -11    1    1    2    0    0 -0.50030629776E+02 -0.65448941076E+02  0.18955254646E+03  0.20668041918E+03  0.00000000000E+00 0.  1.
         11    1    1    2    0    0  0.33227262946E+02 -0.44706430020E+01  0.83753537941E+02  0.90214703732E+02  0.00000000000E+00 0. -1.
</event>
<event>
 7    1  0.2641580E-009  0.7654323E+02  0.7561462E-02  0.1339158E+00
         -1   -1    0    0    0  501 -0.00000000000E+00  0.00000000000E+00  0.10871522229E+02  0.10871522229E+02  0.00000000000E+00 0.  1.
          1   -1    0    0  501    0  0.00000000000E+00 -0.00000000000E+00 -0.21363484397E+04  0.21363484397E+04  0.00000000000E+00 0. -1.
         25    2    1    2    0    0  0.12805955090E+02  0.61334168149E+02 -0.17638244613E+04  0.17693663147E+04  0.12511815514E+03 0.  0.
          5    1    3    3  502    0  0.12899928088E+02  0.11140256029E+02 -0.15334347125E+04  0.15335351328E+04  0.41800000000E+01 0. -1.
         -5    1    3    3    0  502 -0.93972998256E-01  0.50193912119E+02 -0.23038974874E+03  0.23583118193E+03  0.41800000000E+01 0. -1.
        -11    1    1    2    0    0  0.14265709807E+02  0.36895541970E+01 -0.70701293135E+01  0.16343500695E+02  0.00000000000E+00 0.  1.
         11    1    1    2    0    0 -0.27071664897E+02 -0.65023722346E+02 -0.35458232689E+03  0.36151014654E+03  0.00000000000E+00 0. -1.
</event>
<event>
 6    1  0.2772418E-009  0.9815277E+02  0.7561462E-02  0.1284229E+00
          2   -1    0    0  501    0  0.00000000000E+00  0.00000000000E+00  0.24047690071E+03  0.24047690071E+03  0.00000000000E+00 0. -1.
         -2   -1    0    0    0  501 -0.00000000000E+00 -0.00000000000E+00 -0.73893517122E+02  0.73893517122E+02  0.00000000000E+00 0.  1.
          5    1    1    2  502    0  0.28682532738E+02 -0.27095902024E+02  0.17803281314E+02  0.43489134463E+02  0.41800000000E+01 0.  1.
         -5    1    1    2    0  502 -0.30074411399E+02  0.86063616033E+02  0.13146411893E+03  0.16003656829E+03  0.41800000000E+01 0.  1.
        -11    1    1    2    0    0 -0.11258210643E+02 -0.10936718473E+02  0.49320341686E+02  0.51757658582E+02  0.00000000000E+00 0. -1.
         11    1    1    2    0    0  0.12650089303E+02 -0.48030995536E+02 -0.32004358344E+02  0.59087056489E+02  0.00000000000E+00 0.  1.
</event>
<event>
 7    1  0.2641580E-009  0.1459760E+03  0.7561462E-02  0.1205507E+00
         -1   -1    0    0    0  501 -0.00000000000E+00  0.00000000000E+00  0.52766458500E+03  0.52766458500E+03  0.00000000000E+00 0.  1.
          1   -1    0    0  501    0  0.00000000000E+00 -0.00000000000E+00 -0.55028714715E+02  0.55028714715E+02  0.00000000000E+00 0. -1.
         25    2    1    2    0    0 -0.10772206426E+03  0.62023165295E+02  0.18534256242E+03  0.25582399154E+03  0.12507251114E+03 0.  0.
          5    1    3    3  502    0 -0.12367982204E+03  0.75037940705E+02  0.12265270468E+03  0.18970648194E+03  0.41800000000E+01 0.  1.
         -5    1    3    3    0  502  0.15957757780E+02 -0.13014775411E+02  0.62689857748E+02  0.66117509608E+02  0.41800000000E+01 0.  1.
        -11    1    1    2    0    0  0.96843417765E+02 -0.46940548488E+02  0.28881122977E+03  0.30821094902E+03  0.00000000000E+00 0.  1.
         11    1    1    2    0    0  0.10878646491E+02 -0.15082616807E+02 -0.15179219057E+01  0.18658359149E+02  0.00000000000E+00 0. -1.
</event>
<event>
 7    1  0.2641580E-009  0.1682397E+03  0.7561462E-02  0.1179696E+00
          4   -1    0    0  501    0  0.00000000000E+00  0.00000000000E+00  0.17208288147E+04  0.17208288147E+04  0.00000000000E+00 0. -1.
         -4   -1    0    0    0  501 -0.00000000000E+00 -0.00000000000E+00 -0.18401138732E+02  0.18401138732E+02  0.00000000000E+00 0.  1.
         25    2    1    2    0    0 -0.13172831099E+03  0.43271012510E+02  0.10272398170E+04  0.10440755849E+04  0.12508979594E+03 0.  0.
          5    1    3    3  502    0 -0.65566136545E+02 -0.33176529295E+02  0.62433977441E+03  0.62866304700E+03  0.41800000000E+01 0. -1.
         -5    1    3    3    0  502 -0.66162174447E+02  0.76447541804E+02  0.40290004257E+03  0.41541253794E+03  0.41800000000E+01 0. -1.
        -11    1    1    2    0    0  0.16607416429E+02 -0.43506906833E+02  0.13410976690E+03  0.14196509008E+03  0.00000000000E+00 0.  1.
         11    1    1    2    0    0  0.11512089456E+03  0.23589432315E+00  0.54107809211E+03  0.55318927844E+03  0.00000000000E+00 0. -1.
</event>
<event>
 7    1  0.2641580E-009  0.1313203E+03  0.7561462E-02  0.1225510E+00
         -1   -1    0    0    0  501 -0.00000000000E+00  0.00000000000E+00  0.19074567426E+02  0.19074567426E+02  0.00000000000E+00 0.  1.
          1   -1    0    0  501    0  0.00000000000E+00 -0.00000000000E+00 -0.11479428058E+04  0.11479428058E+04  0.00000000000E+00 0. -1.
         25    2    1    2    0    0  0.51540982074E+02  0.72961916781E+02 -0.80900677105E+03  0.82348004179E+03  0.12509000556E+03 0.  0.
          5    1    3    3  502    0  0.55462333650E+02 -0.14270333022E+02 -0.46531299304E+03  0.46884258206E+03  0.41800000000E+01 0. -1.
         -5    1    3    3    0  502 -0.39213515764E+01  0.87232249804E+02 -0.34369377801E+03  0.35463745973E+03  0.41800000000E+01 0. -1.
        -11    1    1    2    0    0  0.18379506870E+02 -0.25274803977E+01 -0.18280109392E+02  0.26045284205E+02  0.00000000000E+00 0.  1.
         11    1    1    2    0    0 -0.69920488943E+02 -0.70434436384E+02 -0.30158135795E+03  0.31749204725E+03  0.00000000000E+00 0. -1.
</event>
<event>
 7    1  0.2641580E-009  0.2501748E+03  0.7561462E-02  0.1113194E+00
         -4   -1    0    0    0  501 -0.00000000000E+00  0.00000000000E+00  0.52998450855E+03  0.52998450855E+03  0.00000000000E+00 0.  1.
          4   -1    0    0  501    0  0.00000000000E+00 -0.00000000000E+00 -0.23853605278E+03  0.23853605278E+03  0.00000000000E+00 0. -1.
         25    2    1    2    0    0 -0.15557792181E+03 -0.16448472828E+03  0.41912888125E+03  0.49251939304E+03  0.12508644144E+03 0.  0.
          5    1    3    3  502    0 -0.31277001703E+02 -0.12376628442E+03  0.21274797920E+03  0.24814414973E+03  0.41800000000E+01 0. -1.
         -5    1    3    3    0  502 -0.12430092011E+03 -0.40718443859E+02  0.20638090205E+03  0.24437524331E+03  0.41800000000E+01 0. -1.
        -11    1    1    2    0    0  0.12092289299E+03  0.66886665996E+02 -0.51667509454E+02  0.14753204286E+03  0.00000000000E+00 0. -1.
         11    1    1    2    0    0  0.34655028815E+02  0.97598062284E+02 -0.76012916021E+02  0.12846912542E+03  0.00000000000E+00 0.  1.
</event>
<event>
 7    1  0.2641580E-009  0.2139690E+03  0.7561462E-02  0.1138461E+00
          2   -1    0    0  501    0  0.00000000000E+00  0.00000000000E+00  0.22715573264E+04  0.22715573264E+04  0.00000000000E+00 0. -1.
         -2   -1    0    0    0  501 -0.00000000000E+00 -0.00000000000E+00 -0.25718635344E+02  0.25718635344E+02  0.00000000000E+00 0.  1.
         25    2    1    2    0    0 -0.17395120706E+03  0.77466082763E+02  0.16396663880E+04  0.16554193958E+04  0.12508994946E+03 0.  0.
          5    1    3    3  502    0 -0.18401011737E+03  0.53438835584E+02  0.15542366511E+04  0.15660090908E+04  0.41800000000E+01 0.  1.
         -5    1    3    3    0  502  0.10058910311E+02  0.24027247179E+02  0.85429736899E+02  0.89410304944E+02  0.41800000000E+01 0.  1.
        -11    1    1    2    0    0  0.11115714051E+03 -0.93317617782E+02  0.44862255796E+03  0.47151488543E+03  0.00000000000E+00 0. -1.
         11    1    1    2    0    0  0.62794066556E+02  0.15851535019E+02  0.15754974505E+03  0.17034168052E+03  0.00000000000E+00 0.  1.
</event>
<event>
 7    1  0.2641580E-009  0.2712577E+03  0.7561462E-02  0.1100562E+00
         -1   -1    0    0    0  501 -0.00000000000E+00  0.00000000000E+00  0.81930557128E+02  0.81930557128E+02  0.00000000000E+00 0.  1.
          1   -1    0    0  501    0  0.00000000000E+00 -0.00000000000E+00 -0.10372605006E+04  0.10372605006E+04  0.00000000000E+00 0. -1.
         25    2    1    2    0    0 -0.12261513025E+02  0.25409987927E+03 -0.67245350910E+03  0.72976690911E+03  0.12509566892E+03 0.  0.
          5    1    3    3  502    0 -0.67954496626E+02  0.13376932862E+03 -0.38299042606E+03  0.41135287254E+03  0.41800000000E+01 0. -1.
         -5    1    3    3    0  502  0.55692983600E+02  0.12033055065E+03 -0.28946308303E+03  0.31841403657E+03  0.41800000000E+01 0. -1.
        -11    1    1    2    0    0 -0.15416371005E+02 -0.27948335899E+02 -0.89908805428E+01  0.33160366515E+02  0.00000000000E+00 0.  1.
         11    1    1    2    0    0  0.27677884030E+02 -0.22615154337E+03 -0.27388555379E+03  0.35626378206E+03  0.00000000000E+00 0. -1.
</event>
<event>
 7    1  0.2890978E-009  0.1646961E+03  0.7561462E-02  0.1183495E+00
         -4   -1    0    0    0  501 -0.00000000000E+00  0.00000000000E+00  0.23710513263E+02  0.23710513263E+02  0.00000000000E+00 0. -1.
          4   -1    0    0  501    0  0.00000000000E+00 -0.00000000000E+00 -0.14932584161E+04  0.14932584161E+04  0.00000000000E+00 0.  1.
         25    2    1    2    0    0  0.15242881920E+03  0.15969322553E+02 -0.73073526586E+03  0.75704093569E+03  0.12508950936E+03 0.  0.
          5    1    3    3  502    0  0.12036662027E+03 -0.46253177075E+01 -0.69245252828E+03  0.70286377995E+03  0.41800000000E+01 0. -1.
         -5    1    3    3    0  502  0.32062198931E+02  0.20594640260E+02 -0.38282737577E+02  0.54177155740E+02  0.41800000000E+01 0. -1.
        -11    1    1    2    0    0 -0.83480935831E+02  0.28813976793E+02 -0.27340762823E+03  0.28731697319E+03  0.00000000000E+00 0. -1.
         11    1    1    2    0    0 -0.68947883370E+02 -0.44783299345E+02 -0.46540500876E+03  0.47261102050E+03  0.00000000000E+00 0.  1.
</event>
<event>
 7    1  0.2641580E-009  0.2436963E+03  0.7561462E-02  0.1117355E+00
         -1   -1    0    0    0  501 -0.00000000000E+00  0.00000000000E+00  0.56231721443E+02  0.56231721443E+02  0.00000000000E+00 0.  1.
          1   -1    0    0  501    0  0.00000000000E+00 -0.00000000000E+00 -0.13906758057E+04  0.13906758057E+04  0.00000000000E+00 0. -1.
         25    2    1    2    0    0  0.21696475010E+03  0.62790657540E+02 -0.36522205280E+03  0.44726615474E+03  0.12507396155E+03 0.  0.
          5    1    3    3  502    0  0.72712830522E+02  0.83866736400E+02 -0.13623628864E+03  0.17577993042E+03  0.41800000000E+01 0.  1.
         -5    1    3    3    0  502  0.14425191958E+03 -0.21076078860E+02 -0.22898576416E+03  0.27148622431E+03  0.41800000000E+01 0.  1.
        -11    1    1    2    0    0 -0.10528999216E+03 -0.67028298549E+01 -0.61587840024E+03  0.62484967333E+03  0.00000000000E+00 0. -1.
         11    1    1    2    0    0 -0.11167475794E+03 -0.56087827685E+02 -0.35334363117E+03  0.37479169903E+03  0.00000000000E+00 0.  1.
</event>
<event>
 7    1  0.2641580E-009  0.1510190E+03  0.7561462E-02  0.1199226E+00
         -2   -1    0    0    0  501 -0.00000000000E+00  0.00000000000E+00  0.29846708875E+02  0.29846708875E+02  0.00000000000E+00 0.  1.
          2   -1    0    0  501    0  0.00000000000E+00 -0.00000000000E+00 -0.10413666803E+04  0.10413666803E+04  0.00000000000E+00 0. -1.
         25    2    1    2    0    0 -0.31074338774E+02  0.12805926338E+03 -0.66046366252E+03  0.68499954622E+03  0.12508932545E+03 0.  0.
          5    1    3    3  502    0 -0.15459442231E+02  0.13440660434E+03 -0.36940060894E+03  0.39341887592E+03  0.41800000000E+01 0.  1.
         -5    1    3    3    0  502 -0.15614896543E+02 -0.63473409679E+01 -0.29106305359E+03  0.29158067030E+03  0.41800000000E+01 0.  1.
        -11    1    1    2    0    0  0.49499107437E+02 -0.55117680388E+02 -0.10214323959E+03  0.12617987844E+03  0.00000000000E+00 0.  1.
         11    1    1    2    0    0 -0.18424768663E+02 -0.72941582988E+02 -0.24891306933E+03  0.26003396454E+03  0.00000000000E+00 0. -1.
</event>
<event>
 6    1  0.2641580E-009  0.1707491E+03  0.7561462E-02  0.1177069E+00
         -3   -1    0    0    0  501 -0.00000000000E+00  0.00000000000E+00  0.44384177262E+03  0.44384177262E+03  0.00000000000E+00 0.  1.
          3   -1    0    0  501    0  0.00000000000E+00 -0.00000000000E+00 -0.19198909704E+03  0.19198909704E+03  0.00000000000E+00 0. -1.
          5    1    1    2  502    0 -0.32784044874E+02 -0.10111019606E+03 -0.11457142383E+03  0.15633985066E+03  0.41800000000E+01 0.  1.
         -5    1    1    2    0  502  0.56900302167E+02 -0.36738421111E+02 -0.90361442723E+01  0.68457872270E+02  0.41800000000E+01 0.  1.
        -11    1    1    2    0    0 -0.59252255300E+02  0.79462605108E+02  0.22320488445E+03  0.24422439643E+03  0.00000000000E+00 0. -1.
         11    1    1    2    0    0  0.35135998007E+02  0.58386012066E+02  0.15225535923E+03  0.16680875030E+03  0.00000000000E+00 0.  1.
</event>
<event>
 7    1  0.2641580E-009  0.1207970E+03  0.7561462E-02  0.1241788E+00
          2   -1    0    0  501    0  0.00000000000E+00  0.00000000000E+00  0.26710394876E+03  0.26710394876E+03  0.00000000000E+00 0. -1.
         -2   -1    0    0    0  501 -0.00000000000E+00 -0.00000000000E+00 -0.12232504043E+03  0.12232504043E+03  0.00000000000E+00 0.  1.
         25    2    1    2    0    0  0.11016545710E+03 -0.31160199256E+02  0.18214711817E+03  0.24886135764E+03  0.12508803584E+03 0.  0.
          5    1    3    3  502    0  0.30335292124E+02 -0.24822463263E+02 -0.99868765777E+01  0.40664416072E+02  0.41800000000E+01 0.  1.
         -5    1    3    3    0  502  0.79830164978E+02 -0.63377359926E+01  0.19213399475E+03  0.20819694156E+03  0.41800000000E+01 0.  1.
        -11    1    1    2    0    0 -0.15160890163E+02  0.21753557324E+02  0.16223688326E+02  0.31085011013E+02  0.00000000000E+00 0. -1.
         11    1    1    2    0    0 -0.95004566939E+02  0.94066419313E+01 -0.53591898162E+02  0.10948262054E+03  0.00000000000E+00 0.  1.
</event>
<event>
 7    1  0.2641580E-009  0.1374383E+03  0.7561462E-02  0.1216818E+00
         -1   -1    0    0    0  501 -0.00000000000E+00  0.00000000000E+00  0.11012769724E+03  0.11012769724E+03  0.00000000000E+00 0.  1.
          1   -1    0    0  501    0  0.00000000000E+00 -0.00000000000E+00 -0.24320894796E+03  0.24320894796E+03  0.00000000000E+00 0. -1.
         25    2    1    2    0    0  0.74772561749E+02  0.56468826552E+02 -0.15402884050E+03  0.21943711617E+03  0.12509236541E+03 0.  0.
          5    1    3    3  502    0  0.10915237947E+03  0.31783914916E+02 -0.11252281582E+03  0.16001036113E+03  0.41800000000E+01 0.  1.
         -5    1    3    3    0  502 -0.34379817718E+02  0.24684911636E+02 -0.41506024686E+02  0.59426755035E+02  0.41800000000E+01 0.  1.
        -11    1    1    2    0    0 -0.53976110207E+02  0.45025893704E+01 -0.19805190799E+02  0.57670957740E+02  0.00000000000E+00 0.  1.
         11    1    1    2    0    0 -0.20796451543E+02 -0.60971415922E+02  0.40752780586E+02  0.76228571296E+02  0.00000000000E+00 0. -1.
</event>
<event>
 7    1  0.2686210E-009  0.2458989E+03  0.7561462E-02  0.1115924E+00
         -2   -1    0    0    0  501 -0.00000000000E+00  0.00000000000E+00  0.31311585730E+03  0.31311585730E+03  0.00000000000E+00 0.  1.
          2   -1    0    0  501    0  0.00000000000E+00 -0.00000000000E+00 -0.24093588112E+03  0.24093588112E+03  0.00000000000E+00 0. -1.
         25    2    1    2    0    0  0.23107179671E+03  0.24313170400E+02  0.13526105390E+03  0.29652652426E+03  0.12508845430E+03 0.  0.
          5    1    3    3  502    0  0.19176823047E+03 -0.10535788732E+02  0.53775957056E+02  0.19948780168E+03  0.41800000000E+01 0.  1.
         -5    1    3    3    0  502  0.39303566231E+02  0.34848959132E+02  0.81485096846E+02  0.97038722575E+02  0.41800000000E+01 0.  1.
        -11    1    1    2    0    0 -0.12445913051E+03 -0.54984310510E+02 -0.53397734032E+02  0.14616657473E+03  0.00000000000E+00 0. -1.
         11    1    1    2    0    0 -0.10661266620E+03  0.30671140111E+02 -0.96833436856E+01  0.11135863942E+03  0.00000000000E+00 0.  1.
</event>
<event>
 7    1  0.2641580E-009  0.1062498E+03  0.7561462E-02  0.1267676E+00
          4   -1    0    0  501    0  0.00000000000E+00  0.00000000000E+00  0.45602902560E+02  0.45602902560E+02  0.00000000000E+00 0.  1.
         -4   -1    0    0    0  501 -0.00000000000E+00 -0.00000000000E+00 -0.25830515127E+03  0.25830515127E+03  0.00000000000E+00 0. -1.
         25    2    1    2    0    0 -0.44658154830E+01 -0.81688285551E+01 -0.11489328494E+03  0.17010169257E+03  0.12508975027E+03 0.  0.
          5    1    3    3  502    0 -0.53893383928E+02 -0.38588619850E+02 -0.70944040838E+02  0.97180799254E+02  0.41800000000E+01 0.  1.
         -5    1    3    3    0  502  0.49427568445E+02  0.30419791295E+02 -0.43949244105E+02  0.72920893318E+02  0.41800000000E+01 0.  1.
        -11    1    1    2    0    0 -0.20690869690E+01  0.47741678715E+02 -0.34801386506E+02  0.59115865131E+02  0.00000000000E+00 0. -1.
         11    1    1    2    0    0  0.65349024520E+01 -0.39572850160E+02 -0.63007577260E+02  0.74690496129E+02  0.00000000000E+00 0.  1.
</event>
<event>
 7    1  0.2641580E-009  0.2215139E+03  0.7561462E-02  0.1132759E+00
          2   -1    0    0  501    0  0.00000000000E+00  0.00000000000E+00  0.23446798992E+04  0.23446798992E+04  0.00000000000E+00 0. -1.
         -2   -1    0    0    0  501 -0.00000000000E+00 -0.00000000000E+00 -0.24961640350E+02  0.24961640350E+02  0.00000000000E+00 0.  1.
         25    2    1    2    0    0  0.14584711049E+03 -0.12978224021E+03  0.16477601234E+04  0.16639938716E+04  0.12508945277E+03 0.  0.
          5    1    3    3  502    0  0.15289185208E+03 -0.14496271763E+03  0.14162538301E+04  0.14318458337E+04  0.41800000000E+01 0.  1.
         -5    1    3    3    0  502 -0.70447415924E+01  0.15180477414E+02  0.23150629328E+03  0.23214803791E+03  0.41800000000E+01 0.  1.
        -11    1    1    2    0    0 -0.74207063474E+02  0.12225354922E+03  0.42657767938E+03  0.44991236381E+03  0.00000000000E+00 0.  1.
         11    1    1    2    0    0 -0.71640047015E+02  0.75286909948E+01  0.24538045615E+03  0.25573530414E+03  0.00000000000E+00 0. -1.
</event>
<event>
 7    1  0.2641580E-009  0.7729882E+02  0.7561462E-02  0.1336897E+00
         -4   -1    0    0    0  501 -0.00000000000E+00  0.00000000000E+00  0.78107752275E+02  0.78107752275E+02  0.00000000000E+00 0. -1.
          4   -1    0    0  501    0  0.00000000000E+00 -0.00000000000E+00 -0.99984475000E+02  0.99984475000E+02  0.00000000000E+00 0.  1.
         25    2    1    2    0    0 -0.77319324339E+01  0.23743958507E+02 -0.42600867455E+02  0.13448779597E+03  0.12509426450E+03 0.  0.
          5    1    3    3  502    0  0.42207248402E+02 -0.27126810643E+02  0.18384470305E+01  0.50380233831E+02  0.41800000000E+01 0.  1.
         -5    1    3    3    0  502 -0.49939180836E+02  0.50870769150E+02 -0.44439314486E+02  0.84107562136E+02  0.41800000000E+01 0.  1.
        -11    1    1    2    0    0  0.13740894381E+02 -0.77932497279E+01 -0.11900111637E+01  0.15841813226E+02  0.00000000000E+00 0.  1.
         11    1    1    2    0    0 -0.60089619471E+01 -0.15950708779E+02  0.21914155894E+02  0.27762618082E+02  0.00000000000E+00 0. -1.
</event>
<event>
 7    1  0.2641580E-009  0.1072127E+03  0.7561462E-02  0.1265820E+00
          1   -1    0    0  501    0  0.00000000000E+00  0.00000000000E+00  0.34153401415E+03  0.34153401415E+03  0.00000000000E+00 0. -1.
         -1   -1    0    0    0  501 -0.00000000000E+00 -0.00000000000E+00 -0.70490004034E+02  0.70490004034E+02  0.00000000000E+00 0.  1.
         25    2    1    2    0    0  0.31016811788E+02  0.37016729039E+02  0.27800944240E+03  0.30865621818E+03  0.12508848914E+03 0.  0.
          5    1    3    3  502    0  0.12495451946E+02 -0.34807425351E+02  0.24677960131E+02  0.44656100313E+02  0.41800000000E+01 0. -1.
         -5    1    3    3    0  502  0.18521359842E+02  0.71824154390E+02  0.25333148227E+03  0.26400011787E+03  0.41800000000E+01 0. -1.
        -11    1    1    2    0    0  0.72995647095E+00 -0.62316840147E+02 -0.94095303038E+00  0.62328218288E+02  0.00000000000E+00 0.  1.
         11    1    1    2    0    0 -0.31746768259E+02  0.25300111108E+02 -0.60244792566E+01  0.41039581714E+02  0.00000000000E+00 0. -1.
</event>
<event>
 7    1  0.2641580E-009  0.1330821E+03  0.7561462E-02  0.1222953E+00
          2   -1    0    0  501    0  0.00000000000E+00  0.00000000000E+00  0.25576496950E+02  0.25576496950E+02  0.00000000000E+00 0.  1.
         -2   -1    0    0    0  501 -0.00000000000E+00 -0.00000000000E+00 -0.12985942800E+04  0.12985942800E+04  0.00000000000E+00 0. -1.
         25    2    1    2    0    0 -0.68417774317E+00  0.10397276745E+03 -0.10474658192E+04  0.10600203242E+04  0.12509053075E+03 0.  0.
          5    1    3    3  502    0 -0.57020354237E+02  0.85258644518E+02 -0.70211884366E+03  0.70958346957E+03  0.41800000000E+01 0. -1.
         -5    1    3    3    0  502  0.56336176494E+02  0.18714122935E+02 -0.34534697549E+03  0.35043685460E+03  0.41800000000E+01 0. -1.
        -11    1    1    2    0    0  0.14752809961E+01 -0.50580191939E+02 -0.19740606984E+03  0.20378834285E+03  0.00000000000E+00 0. -1.
         11    1    1    2    0    0 -0.79110325297E+00 -0.53392575513E+02 -0.28145894067E+02  0.60362109946E+02  0.00000000000E+00 0.  1.
</event>
<event>
 7    1  0.2641580E-009  0.9583103E+02  0.7561462E-02  0.1289315E+00
         -1   -1    0    0    0  501 -0.00000000000E+00  0.00000000000E+00  0.33505238081E+03  0.33505238081E+03  0.00000000000E+00 0.  1.
          1   -1    0    0  501    0  0.00000000000E+00 -0.00000000000E+00 -0.48576632268E+02  0.48576632268E+02  0.00000000000E+00 0. -1.
         25    2    1    2    0    0 -0.19423462886E+02 -0.23496313815E+02  0.66864309107E+02  0.14507991900E+03  0.12509196373E+03 0.  0.
          5    1    3    3  502    0  0.39048514138E+02 -0.10372996380E+02 -0.15207768987E+02  0.43372043390E+02  0.41800000000E+01 0. -1.
         -5    1    3    3    0  502 -0.58471977024E+02 -0.13123317435E+02  0.82072078094E+02  0.10170787561E+03  0.41800000000E+01 0. -1.
        -11    1    1    2    0    0 -0.32896136309E+02 -0.16189891571E+01  0.56225249786E+02  0.65161765042E+02  0.00000000000E+00 0. -1.
         11    1    1    2    0    0  0.52319599195E+02  0.25115302972E+02  0.16338618965E+03  0.17338732904E+03  0.00000000000E+00 0.  1.
</event>
<event>
 7    1  0.2641580E-009  0.1391341E+03  0.7561462E-02  0.1214499E+00
          3   -1    0    0  501    0  0.00000000000E+00  0.00000000000E+00  0.33596932393E+03  0.33596932393E+03  0.00000000000E+00 0. -1.
         -3   -1    0    0    0  501 -0.00000000000E+00 -0.00000000000E+00 -0.88804568768E+02  0.88804568768E+02  0.00000000000E+00 0.  1.
         25    2    1    2    0    0  0.12711254709E+03 -0.84163937097E+01  0.75292216590E+02  0.19376175081E+03  0.12508502263E+03 0.  0.
          5    1    3    3  502    0  0.12471089791E+03  0.12798875312E+02  0.11033487258E+02  0.12591993293E+03  0.41800000000E+01 0. -1.
         -5    1    3    3    0  502  0.24016491788E+01 -0.21215269022E+02  0.64258729332E+02  0.67841817884E+02  0.41800000000E+01 0. -1.
        -11    1    1    2    0    0 -0.51975431497E+02  0.18703796523E+02  0.15742326850E+02  0.57437777971E+02  0.00000000000E+00 0. -1.
         11    1    1    2    0    0 -0.75137115594E+02 -0.10287402813E+02  0.15613021172E+03  0.17357436392E+03  0.00000000000E+00 0.  1.
</event>
<event>
 7    1  0.2641580E-009  0.1615899E+03  0.7561462E-02  0.1186913E+00
         -2   -1    0    0    0  501 -0.00000000000E+00  0.00000000000E+00  0.31235134611E+02  0.31235134611E+02  0.00000000000E+00 0.  1.
          2   -1    0    0  501    0  0.00000000000E+00 -0.00000000000E+00 -0.14501506379E+04  0.14501506379E+04  0.00000000000E+00 0. -1.
         25    2    1    2    0    0 -0.31625120920E+02  0.13090079588E+03 -0.11655203288E+04  0.11799237047E+04  0.12508855110E+03 0.  0.
          5    1    3    3  502    0 -0.80126782995E+02  0.79447642605E+02 -0.70247460252E+03  0.71149158031E+03  0.41800000000E+01 0.  1.
         -5    1    3    3    0  502  0.48501662075E+02  0.51453153272E+02 -0.46304572624E+03  0.46843212443E+03  0.41800000000E+01 0.  1.
        -11    1    1    2    0    0  0.19856112512E+02 -0.12442463757E+03 -0.25811277713E+03  0.28722458348E+03  0.00000000000E+00 0. -1.
         11    1    1    2    0    0  0.11769008408E+02 -0.64761583095E+01  0.47176025830E+01  0.14237484310E+02  0.00000000000E+00 0.  1.
</event>
<event>
 7    1  0.2641580E-009  0.2801055E+03  0.7561462E-02  0.1095631E+00
         -2   -1    0    0    0  501 -0.00000000000E+00  0.00000000000E+00  0.42989758750E+02  0.42989758750E+02  0.00000000000E+00 0.  1.
          2   -1    0    0  501    0  0.00000000000E+00 -0.00000000000E+00 -0.19991920279E+04  0.19991920279E+04  0.00000000000E+00 0. -1.
         25    2    1    2    0    0  0.11055348514E+03 -0.24437075565E+03 -0.11569286422E+04  0.11941822062E+04  0.12509244235E+03 0.  0.
          5    1    3    3  502    0 -0.56563383370E+01 -0.78506098727E+02 -0.51654824963E+03  0.52252728952E+03  0.41800000000E+01 0. -1.
         -5    1    3    3    0  502  0.11620982348E+03 -0.16586465692E+03 -0.64038039258E+03  0.67165491667E+03  0.41800000000E+01 0. -1.
        -11    1    1    2    0    0 -0.12921831056E+02  0.12007771422E+03 -0.27337224857E+03  0.29886120099E+03  0.00000000000E+00 0.  1.
         11    1    1    2    0    0 -0.97631654086E+02  0.12429304143E+03 -0.52590137833E+03  0.54913837942E+03  0.00000000000E+00 0. -1.
</event>
<event>
 7    1  0.2641580E-009  0.9465597E+02  0.7561462E-02  0.1291953E+00
         -1   -1    0    0    0  501 -0.00000000000E+00  0.00000000000E+00  0.19428417324E+02  0.19428417324E+02  0.00000000000E+00 0.  1.
          1   -1    0    0  501    0  0.00000000000E+00 -0.00000000000E+00 -0.68868940533E+03  0.68868940533E+03  0.00000000000E+00 0. -1.
         25    2    1    2    0    0  0.48854329182E+01 -0.35316709720E+02 -0.46076130629E+03  0.47876990389E+03  0.12509397293E+03 0.  0.
          5    1    3    3  502    0  0.60415201483E+02 -0.93583686247E+01 -0.30947769845E+03  0.31548612310E+03  0.41800000000E+01 0. -1.
         -5    1    3    3    0  502 -0.55529768564E+02 -0.25958341096E+02 -0.15128360784E+03  0.16328378079E+03  0.41800000000E+01 0. -1.
        -11    1    1    2    0    0  0.22477678469E+02  0.31891624446E+02 -0.19458766718E+03  0.19846078192E+03  0.00000000000E+00 0. -1.
         11    1    1    2    0    0 -0.27363111387E+02  0.34250852742E+01 -0.13912014536E+02  0.30887136843E+02  0.00000000000E+00 0.  1.
</event>
<event>
 7    1  0.2641580E-009  0.2652662E+03  0.7561462E-02  0.1104020E+00
         -1   -1    0    0    0  501 -0.00000000000E+00  0.00000000000E+00  0.26744944167E+03  0.26744944167E+03  0.00000000000E+00 0.  1.
          1   -1    0    0  501    0  0.00000000000E+00 -0.00000000000E+00 -0.34772092542E+03  0.34772092542E+03  0.00000000000E+00 0. -1.
         25    2    1    2    0    0 -0.19245917496E+02  0.24858609644E+03  0.98472376466E+02  0.29581998511E+03  0.12508877641E+03 0.  0.
          5    1    3    3  502    0 -0.15227187615E+02  0.26065274885E+03  0.10433794481E+03  0.28120384395E+03  0.41800000000E+01 0. -1.
         -5    1    3    3    0  502 -0.40187298816E+01 -0.12066652418E+02 -0.58655683423E+01  0.14616141160E+02  0.41800000000E+01 0. -1.
        -11    1    1    2    0    0 -0.20465613498E+02 -0.10824864396E+03 -0.37644990114E+02  0.11642059756E+03  0.00000000000E+00 0.  1.
         11    1    1    2    0    0  0.39711530994E+02 -0.14033745247E+03 -0.14109887010E+03  0.20292978442E+03  0.00000000000E+00 0. -1.
</event>
<event>
 7    1  0.2641580E-009  0.1435276E+03  0.7561462E-02  0.1208660E+00
          1   -1    0    0  501    0  0.00000000000E+00  0.00000000000E+00  0.55367812185E+03  0.55367812185E+03  0.00000000000E+00 0. -1.
         -1   -1    0    0    0  501 -0.00000000000E+00 -0.00000000000E+00 -0.45078631267E+02  0.45078631267E+02  0.00000000000E+00 0.  1.
         25    2    1    2    0    0 -0.78945529474E+02 -0.66438485236E+02  0.36765350905E+03  0.40181915073E+03  0.12507221206E+03 0.  0.
          5    1    3    3  502    0 -0.96940853416E+02 -0.67675786642E+01  0.18900067778E+03  0.21256071552E+03  0.41800000000E+01 0.  1.
         -5    1    3    3    0  502  0.17995323942E+02 -0.59670906572E+02  0.17865283128E+03  0.18925843521E+03  0.41800000000E+01 0.  1.
        -11    1    1    2    0    0  0.44394434737E+02 -0.81357698048E+01  0.88771461651E+02  0.99586289165E+02  0.00000000000E+00 0. -1.
         11    1    1    2    0    0  0.34551094736E+02  0.74574255041E+02  0.52174519884E+02  0.97351313229E+02  0.00000000000E+00 0.  1.
</event>
<event>
 7    1  0.2641580E-009  0.1117299E+03  0.7561462E-02  0.1257400E+00
         -2   -1    0    0    0  501 -0.00000000000E+00  0.00000000000E+00  0.18497211205E+02  0.18497211205E+02  0.00000000000E+00 0.  1.
          2   -1    0    0  501    0  0.00000000000E+00 -0.00000000000E+00 -0.80516886556E+03  0.80516886556E+03  0.00000000000E+00 0. -1.
         25    2    1    2    0    0 -0.27379466704E+02  0.29925204751E+02 -0.56235295725E+03  0.57752306572E+03  0.12508752868E+03 0.  0.
          5    1    3    3  502    0 -0.68918923639E+02  0.49844386093E+02 -0.35442374707E+03  0.36451055642E+03  0.41800000000E+01 0.  1.
         -5    1    3    3    0  502  0.41539456934E+02 -0.19919181342E+02 -0.20792921018E+03  0.21301250929E+03  0.41800000000E+01 0.  1.
        -11    1    1    2    0    0  0.12309477747E+02  0.28851088672E+02 -0.13195107246E+03  0.13562814636E+03  0.00000000000E+00 0. -1.
         11    1    1    2    0    0  0.15069988958E+02 -0.58776293423E+02 -0.92367624645E+02  0.11051486469E+03  0.00000000000E+00 0.  1.
</event>
<event>
 7    1  0.2641580E-009  0.6630961E+02  0.7561462E-02  0.1373112E+00
          2   -1    0    0  501    0  0.00000000000E+00  0.00000000000E+00  0.23025480993E+03  0.23025480993E+03  0.00000000000E+00 0. -1.
         -2   -1    0    0    0  501 -0.00000000000E+00 -0.00000000000E+00 -0.55245165280E+02  0.55245165280E+02  0.00000000000E+00 0.  1.
         25    2    1    2    0    0 -0.25995978387E+02  0.15767687788E+02  0.87432458695E+02  0.15561627943E+03  0.12509029027E+03 0.  0.
          5    1    3    3  502    0 -0.32028993494E+02  0.38258443038E+02  0.11127923728E+03  0.12202502176E+03  0.41800000000E+01 0. -1.
         -5    1    3    3    0  502  0.60330151071E+01 -0.22490755250E+02 -0.23846778581E+02  0.33591257667E+02  0.41800000000E+01 0. -1.
        -11    1    1    2    0    0  0.14283108918E+02 -0.34193834287E+02  0.98665959238E+02  0.10539543167E+03  0.00000000000E+00 0. -1.
         11    1    1    2    0    0  0.11712869469E+02  0.18426146499E+02 -0.11088773288E+02  0.24488264108E+02  0.00000000000E+00 0.  1.
</event>
<event>
 7    1  0.2641580E-009  0.1028130E+03  0.7561462E-02  0.1274489E+00
         -1   -1    0    0    0  501 -0.00000000000E+00  0.00000000000E+00  0.76658153640E+02  0.76658153640E+02  0.00000000000E+00 0.  1.
          1   -1    0    0  501    0  0.00000000000E+00 -0.00000000000E+00 -0.20738945438E+03  0.20738945438E+03  0.00000000000E+00 0. -1.
         25    2    1    2    0    0  0.70064961986E+01  0.49698066115E+02 -0.10810409525E+03  0.17277935439E+03  0.12508885294E+03 0.  0.
          5    1    3    3  502    0  0.16693656371E+02 -0.20026017449E+02 -0.98056491530E+02  0.10154933515E+03  0.41800000000E+01 0. -1.
         -5    1    3    3    0  502 -0.96871601724E+01  0.69724083564E+02 -0.10047603725E+02  0.71230019245E+02  0.41800000000E+01 0. -1.
        -11    1    1    2    0    0  0.18396777949E+01  0.29226825815E+02 -0.93919812945E+01  0.30753879011E+02  0.00000000000E+00 0. -1.
         11    1    1    2    0    0 -0.88461739934E+01 -0.78924891929E+02 -0.13235224189E+02  0.80514374615E+02  0.00000000000E+00 0.  1.
</event>
<event>
 7    1  0.2641580E-009  0.1287303E+03  0.7561462E-02  0.1229352E+00
         -1   -1    0    0    0  501 -0.00000000000E+00  0.00000000000E+00  0.22649540059E+03  0.22649540059E+03  0.00000000000E+00 0.  1.
          1   -1    0    0  501    0  0.00000000000E+00 -0.00000000000E+00 -0.12781103290E+03  0.12781103290E+03  0.00000000000E+00 0. -1.
         25    2    1    2    0    0 -0.91638318762E+02 -0.97164066678E+01  0.14728097445E+03  0.21408133743E+03  0.12508854294E+03 0.  0.
          5    1    3    3  502    0 -0.18829679897E+02 -0.61696995580E+02  0.48986079176E+02  0.81106007556E+02  0.41800000000E+01 0.  1.
         -5    1    3    3    0  502 -0.72808638864E+02  0.51980588912E+02  0.98294895277E+02  0.13297532987E+03  0.41800000000E+01 0.  1.
        -11    1    1    2    0    0  0.58789731512E+02 -0.16692122510E+02  0.15927563043E+02  0.63154942400E+02  0.00000000000E+00 0.  1.
         11    1    1    2    0    0  0.32848587250E+02  0.26408529177E+02 -0.64524169800E+02  0.77070153666E+02  0.00000000000E+00 0. -1.
</event>
<event>
 7    1  0.2641580E-009  0.8855627E+02  0.7561462E-02  0.1306386E+00
          1   -1    0    0  501    0  0.00000000000E+00  0.00000000000E+00  0.54464310905E+03  0.54464310905E+03  0.00000000000E+00 0. -1.
         -1   -1    0    0    0  501 -0.00000000000E+00 -0.00000000000E+00 -0.26380160400E+02  0.26380160400E+02  0.00000000000E+00 0.  1.
         25    2    1    2    0    0 -0.42904341331E+02  0.21455352444E+02  0.32567046802E+03  0.35214941382E+03  0.12508733454E+03 0.  0.
          5    1    3    3  502    0 -0.59137709422E+02  0.34838996527E+02  0.79779346986E+02  0.10532445566E+03  0.41800000000E+01 0.  1.
         -5    1    3    3    0  502  0.16233368092E+02 -0.13383644082E+02  0.24589112103E+03  0.24682495816E+03  0.41800000000E+01 0.  1.
        -11    1    1    2    0    0 -0.14030349800E+02 -0.26247537580E+02  0.17122706443E+02  0.34336147432E+02  0.00000000000E+00 0.  1.
         11    1    1    2    0    0  0.56934691131E+02  0.47921851356E+01  0.17546977419E+03  0.18453770819E+03  0.00000000000E+00 0. -1.
</event>
<event>
 7    1  0.2641580E-009  0.1117587E+03  0.7561462E-02  0.1257347E+00
         -2   -1    0    0    0  501 -0.00000000000E+00  0.00000000000E+00  0.14197337698E+02  0.14197337698E+02  0.00000000000E+00 0.  1.
          2   -1    0    0  501    0  0.00000000000E+00 -0.00000000000E+00 -0.89484546082E+03  0.89484546082E+03  0.00000000000E+00 0. -1.
         25    2    1    2    0    0 -0.19912620442E+02  0.24848639723E+02 -0.52053047804E+03  0.53629511316E+03  0.12508598034E+03 0.  0.
          5    1    3    3  502    0 -0.70516670197E+02  0.31767572403E+02 -0.33295871102E+03  0.34184902380E+03  0.41800000000E+01 0. -1.
         -5    1    3    3    0  502  0.50604049755E+02 -0.69189326798E+01 -0.18757176703E+03  0.19444608936E+03  0.41800000000E+01 0. -1.
        -11    1    1    2    0    0  0.55454162241E+02 -0.10247464523E+02 -0.18217150136E+03  0.19070036850E+03  0.00000000000E+00 0.  1.
         11    1    1    2    0    0 -0.35541541799E+02 -0.14601175200E+02 -0.17794614372E+03  0.18204731686E+03  0.00000000000E+00 0. -1.
</event>
<event>
 7    1  0.2641580E-009  0.1187022E+03  0.7561462E-02  0.1245254E+00
         -1   -1    0    0    0  501 -0.00000000000E+00  0.00000000000E+00  0.70695461874E+02  0.70695461874E+02  0.00000000000E+00 0.  1.
          1   -1    0    0  501    0  0.00000000000E+00 -0.00000000000E+00 -0.21354290852E+03  0.21354290852E+03  0.00000000000E+00 0. -1.
         25    2    1    2    0    0 -0.15192171395E+02 -0.56026352624E+02 -0.88095555928E+02  0.16363957227E+03  0.12508928163E+03 0.  0.
          5    1    3    3  502    0  0.27428686683E+02  0.30576693977E+02 -0.26634048848E+02  0.49133614011E+02  0.41800000000E+01 0. -1.
         -5    1    3    3    0  502 -0.42620858079E+02 -0.86603046601E+02 -0.61461507080E+02  0.11450595826E+03  0.41800000000E+01 0. -1.
        -11    1    1    2    0    0 -0.58236519364E+01  0.72541084967E+02 -0.17671452647E+02  0.74889279398E+02  0.00000000000E+00 0.  1.
         11    1    1    2    0    0  0.21015823332E+02 -0.16514732344E+02 -0.37080438067E+02  0.45709518723E+02  0.00000000000E+00 0. -1.
</event>
<event>
 7    1  0.2641580E-009  0.1564214E+03  0.7561462E-02  0.1192797E+00
          2   -1    0    0  501    0  0.00000000000E+00  0.00000000000E+00  0.12192154961E+03  0.12192154961E+03  0.00000000000E+00 0. -1.
         -2   -1    0    0    0  501 -0.00000000000E+00 -0.00000000000E+00 -0.30331355094E+03  0.30331355094E+03  0.00000000000E+00 0.  1.
         25    2    1    2    0    0 -0.55511349730E+02 -0.11436649485E+03  0.13582346047E+02  0.17886380347E+03  0.12508627012E+03 0.  0.
          5    1    3    3  502    0 -0.59596637041E+02 -0.57311120026E+00  0.24127142534E+02  0.64433523960E+02  0.41800000000E+01 0. -1.
         -5    1    3    3    0  502  0.40852873110E+01 -0.11379338365E+03 -0.10544796487E+02  0.11443027951E+03  0.41800000000E+01 0. -1.
        -11    1    1    2    0    0  0.41551879840E+01  0.73245165775E+02 -0.14908372100E+03  0.16615678067E+03  0.00000000000E+00 0.  1.
         11    1    1    2    0    0  0.51356161746E+02  0.41121329075E+02 -0.45890626375E+02  0.80214516412E+02  0.00000000000E+00 0. -1.
</event>
<event>
 7    1  0.2641580E-009  0.1121101E+03  0.7561462E-02  0.1256712E+00
         -1   -1    0    0    0  501 -0.00000000000E+00  0.00000000000E+00  0.13603554574E+03  0.13603554574E+03  0.00000000000E+00 0.  1.
          1   -1    0    0  501    0  0.00000000000E+00 -0.00000000000E+00 -0.45785347870E+03  0.45785347870E+03  0.00000000000E+00 0. -1.
         25    2    1    2    0    0 -0.55129716753E+02  0.25352629552E+02 -0.42249499690E+03  0.44478250201E+03  0.12508960869E+03 0.  0.
          5    1    3    3  502    0  0.38756018087E+02  0.16625342938E+01 -0.82799789851E+02  0.91531800800E+02  0.41800000000E+01 0. -1.
         -5    1    3    3    0  502 -0.93885734839E+02  0.23690095259E+02 -0.33969520704E+03  0.35325070121E+03  0.41800000000E+01 0. -1.
        -11    1    1    2    0    0  0.45731208628E+02 -0.46453193789E+02  0.24721953068E+02  0.69716695412E+02  0.00000000000E+00 0. -1.
         11    1    1    2    0    0  0.93985081250E+01  0.21100564236E+02  0.75955110865E+02  0.79389827009E+02  0.00000000000E+00 0.  1.
</event>
<event>
 7    1  0.2641580E-009  0.1118684E+03  0.7561462E-02  0.1257148E+00
          1   -1    0    0  501    0  0.00000000000E+00  0.00000000000E+00  0.93327976319E+03  0.93327976319E+03  0.00000000000E+00 0. -1.
         -1   -1    0    0    0  501 -0.00000000000E+00 -0.00000000000E+00 -0.22333402948E+02  0.22333402948E+02  0.00000000000E+00 0.  1.
         25    2    1    2    0    0  0.14053804335E+02 -0.87324027330E+02  0.54082868373E+03  0.56210834813E+03  0.12508850753E+03 0.  0.
          5    1    3    3  502    0  0.17167235811E+02 -0.26797929283E+02  0.45937454960E+03  0.46049461693E+03  0.41800000000E+01 0.  1.
         -5    1    3    3    0  502 -0.31134314760E+01 -0.60526098047E+02  0.81454134135E+02  0.10161373120E+03  0.41800000000E+01 0.  1.
        -11    1    1    2    0    0 -0.46434461609E+02  0.10625582451E+02  0.17501575769E+03  0.18138240727E+03  0.00000000000E+00 0.  1.
         11    1    1    2    0    0  0.32380657274E+02  0.76698444879E+02  0.19510191882E+03  0.21212241074E+03  0.00000000000E+00 0. -1.
</event>
<event>
 7    1  0.2641580E-009  0.1304009E+03  0.7561462E-02  0.1226862E+00
          2   -1    0    0  501    0  0.00000000000E+00  0.00000000000E+00  0.88430161575E+02  0.88430161575E+02  0.00000000000E+00 0. -1.
         -2   -1    0    0    0  501 -0.00000000000E+00 -0.00000000000E+00 -0.22459062477E+03  0.22459062477E+03  0.00000000000E+00 0.  1.
         25    2    1    2    0    0  0.39097155101E+02  0.76439795478E+02 -0.49922753550E+02  0.15972084760E+03  0.12508732137E+03 0.  0.
          5    1    3    3  502    0  0.73014708627E+02  0.35670167658E+02  0.71701782478E+01  0.81684713336E+02  0.41800000000E+01 0. -1.
         -5    1    3    3    0  502 -0.33917553526E+02  0.40769627819E+02 -0.57092931798E+02  0.78036134265E+02  0.41800000000E+01 0.  1.
        -11    1    1    2    0    0  0.30681022763E+02 -0.23416762133E+02 -0.32830921898E+02  0.50670892426E+02  0.00000000000E+00 0.  1.
         11    1    1    2    0    0 -0.69778177863E+02 -0.53023033345E+02 -0.53406787747E+02  0.10262904632E+03  0.00000000000E+00 0. -1.
</event>
<event>
 7    1  0.2641580E-009  0.9815188E+02  0.7561462E-02  0.1284231E+00
         -4   -1    0    0    0  501 -0.00000000000E+00  0.00000000000E+00  0.21077785047E+03  0.21077785047E+03  0.00000000000E+00 0.  1.
          4   -1    0    0  501    0  0.00000000000E+00 -0.00000000000E+00 -0.70254402516E+02  0.70254402516E+02  0.00000000000E+00 0. -1.
         25    2    1    2    0    0  0.15107233679E+01  0.51691411968E+02  0.88236876715E+02  0.16157262084E+03  0.12508269679E+03 0.  0.
          5    1    3    3  502    0 -0.32492241546E+02  0.73395375866E+02  0.21035055639E+02  0.83081724374E+02  0.41800000000E+01 0.  1.
         -5    1    3    3    0  502  0.34002964914E+02 -0.21703963898E+02  0.67201821076E+02  0.78490896464E+02  0.41800000000E+01 0.  1.
        -11    1    1    2    0    0 -0.16041658755E+02 -0.57521727743E+02  0.72477171982E+02  0.93909661040E+02  0.00000000000E+00 0.  1.
         11    1    1    2    0    0  0.14530935387E+02  0.58303157753E+01 -0.20190600742E+02  0.25549971107E+02  0.00000000000E+00 0. -1.
</event>
<event>
 7    1  0.3261791E-009  0.8990012E+02  0.7561462E-02  0.1303094E+00
          2   -1    0    0  501    0  0.00000000000E+00  0.00000000000E+00  0.17685264641E+03  0.17685264641E+03  0.00000000000E+00 0. -1.
         -2   -1    0    0    0  501 -0.00000000000E+00 -0.00000000000E+00 -0.93871650956E+02  0.93871650956E+02  0.00000000000E+00 0.  1.
         25    2    1    2    0    0 -0.29008537137E+02 -0.25669043539E+02 -0.14526817716E+02  0.13175979007E+03  0.12509683779E+03 0.  0.
          5    1    3    3  502    0 -0.66506366638E+02 -0.34038072721E+02  0.22602814164E+02  0.78166788383E+02  0.41800000000E+01 0. -1.
         -5    1    3    3    0  502  0.37497829501E+02  0.83690291825E+01 -0.37129631880E+02  0.53593001691E+02  0.41800000000E+01 0. -1.
        -11    1    1    2    0    0  0.47266135913E+01  0.38549985084E+02  0.10374687005E+03  0.11077840616E+03  0.00000000000E+00 0. -1.
         11    1    1    2    0    0  0.24281923546E+02 -0.12880941545E+02 -0.62390568806E+01  0.28186101131E+02  0.00000000000E+00 0.  1.
</event>
<event>
 7    1  0.2641580E-009  0.1035526E+03  0.7561462E-02  0.1272998E+00
         -3   -1    0    0    0  501 -0.00000000000E+00  0.00000000000E+00  0.14978885630E+03  0.14978885630E+03  0.00000000000E+00 0.  1.
          3   -1    0    0  501    0  0.00000000000E+00 -0.00000000000E+00 -0.20367145984E+03  0.20367145984E+03  0.00000000000E+00 0. -1.
         25    2    1    2    0    0  0.56906729520E+02 -0.26995791760E+02  0.94133887689E+02  0.16874511917E+03  0.12508628140E+03 0.  0.
          5    1    3    3  502    0  0.52308969469E+02  0.17809755150E+02 -0.89867422457E+01  0.56139554697E+02  0.41800000000E+01 0.  1.
         -5    1    3    3    0  502  0.45977600510E+01 -0.44805546910E+02  0.10312062993E+03  0.11260556447E+03  0.41800000000E+01 0.  1.
        -11    1    1    2    0    0  0.14745991082E+02  0.31376304419E+02 -0.73387574907E+02  0.81164357219E+02  0.00000000000E+00 0. -1.
         11    1    1    2    0    0 -0.71652720602E+02 -0.43805126598E+01 -0.74628916321E+02  0.10355083975E+03  0.00000000000E+00 0.  1.
</event>
<event>
 7    1  0.2641580E-009  0.1331890E+03  0.7561462E-02  0.1222799E+00
         -3   -1    0    0    0  501 -0.00000000000E+00  0.00000000000E+00  0.18045194723E+03  0.18045194723E+03  0.00000000000E+00 0.  1.
          3   -1    0    0  501    0  0.00000000000E+00 -0.00000000000E+00 -0.12046263954E+03  0.12046263954E+03  0.00000000000E+00 0. -1.
         25    2    1    2    0    0  0.26929464807E+02  0.89610177528E+02  0.12297358074E+02  0.15669651875E+03  0.12508954385E+03 0.  0.
          5    1    3    3  502    0  0.62720443700E+02  0.96420661364E+02 -0.68917210876E+01  0.11530726870E+03  0.41800000000E+01 0.  1.
         -5    1    3    3    0  502 -0.35790978892E+02 -0.68104838358E+01  0.19189079161E+02  0.41389250044E+02  0.41800000000E+01 0.  1.
        -11    1    1    2    0    0  0.22257320713E+02 -0.27957420731E+02 -0.19409484445E+02  0.40666125777E+02  0.00000000000E+00 0. -1.
         11    1    1    2    0    0 -0.49186785520E+02 -0.61652756797E+02  0.67101434057E+02  0.10355194225E+03  0.00000000000E+00 0.  1.
</event>
<event>
 7    1  0.2641580E-009  0.2332013E+03  0.7561462E-02  0.1124407E+00
          2   -1    0    0  501    0  0.00000000000E+00  0.00000000000E+00  0.19280676349E+04  0.19280676349E+04  0.00000000000E+00 0.  1.
         -2   -1    0    0    0  501 -0.00000000000E+00 -0.00000000000E+00 -0.28908214801E+02  0.28908214801E+02  0.00000000000E+00 0. -1.
         25    2    1    2    0    0  0.15657817368E+02  0.21031442068E+03  0.96110062209E+03  0.99188570595E+03  0.12508207339E+03 0.  0.
          5    1    3    3  502    0  0.32819112369E+02 -0.10385342831E+01  0.13273439777E+03  0.13679936199E+03  0.41800000000E+01 0. -1.
         -5    1    3    3    0  502 -0.17161295001E+02  0.21135295496E+03  0.82836622432E+03  0.85508634395E+03  0.41800000000E+01 0. -1.
        -11    1    1    2    0    0  0.19146016773E+02 -0.15274402224E+03  0.74231560229E+03  0.75810933228E+03  0.00000000000E+00 0.  1.
         11    1    1    2    0    0 -0.34803834141E+02 -0.57570398445E+02  0.19574319567E+03  0.20698081142E+03  0.00000000000E+00 0. -1.
</event>
<event>
 7    1  0.2641580E-009  0.1093637E+03  0.7561462E-02  0.1261753E+00
          3   -1    0    0  501    0  0.00000000000E+00  0.00000000000E+00  0.19029055271E+03  0.19029055271E+03  0.00000000000E+00 0. -1.
         -3   -1    0    0    0  501 -0.00000000000E+00 -0.00000000000E+00 -0.80485215864E+02  0.80485215864E+02  0.00000000000E+00 0.  1.
         25    2    1    2    0    0 -0.26905182241E+02  0.53123638161E+02  0.83099144881E+02  0.16155315078E+03  0.12509173788E+03 0.  0.
          5    1    3    3  502    0 -0.30952252828E+02  0.88997315479E+02  0.82338923200E+02  0.12520277469E+03  0.41800000000E+01 0. -1.
         -5    1    3    3    0  502  0.40470705867E+01 -0.35873677318E+02  0.76022168060E+00  0.36350376087E+02  0.41800000000E+01 0. -1.
        -11    1    1    2    0    0 -0.11692969073E+02 -0.47671925653E+02 -0.15783824758E+02  0.51560325301E+02  0.00000000000E+00 0.  1.
         11    1    1    2    0    0  0.38598151314E+02 -0.54517125081E+01  0.42490016722E+02  0.57662292490E+02  0.00000000000E+00 0. -1.
</event>
<event>
 7    1  0.2641580E-009  0.1066100E+03  0.7561462E-02  0.1266980E+00
         -2   -1    0    0    0  501 -0.00000000000E+00  0.00000000000E+00  0.23491338434E+02  0.23491338434E+02  0.00000000000E+00 0.  1.
          2   -1    0    0  501    0  0.00000000000E+00 -0.00000000000E+00 -0.55342087068E+03  0.55342087068E+03  0.00000000000E+00 0. -1.
         25    2    1    2    0    0  0.33887244998E+02  0.89368610109E+01 -0.30307734516E+03  0.32974487952E+03  0.12509034959E+03 0.  0.
          5    1    3    3  502    0  0.63419371207E+02 -0.28269114964E+02 -0.24455150633E+03  0.25425198357E+03  0.41800000000E+01 0.  1.
         -5    1    3    3    0  502 -0.29532126209E+02  0.37205975975E+02 -0.58525838836E+02  0.75492895945E+02  0.41800000000E+01 0.  1.
        -11    1    1    2    0    0 -0.64704534733E+02 -0.48320460842E+01 -0.12743596447E+03  0.14300332347E+03  0.00000000000E+00 0.  1.
         11    1    1    2    0    0  0.30817289735E+02 -0.41048149267E+01 -0.99416222621E+02  0.10416400613E+03  0.00000000000E+00 0. -1.
</event>
<event>
 6    1  0.2641580E-009  0.1261587E+03  0.7561462E-02  0.1233269E+00
          1   -1    0    0  501    0  0.00000000000E+00  0.00000000000E+00  0.32221939153E+03  0.32221939153E+03  0.00000000000E+00 0. -1.
         -1   -1    0    0    0  501 -0.00000000000E+00 -0.00000000000E+00 -0.60080556249E+02  0.60080556249E+02  0.00000000000E+00 0.  1.
          5    1    1    2  502    0 -0.15955144225E+02 -0.94287879784E+02  0.16133899815E+03  0.18759668341E+03  0.41800000000E+01 0.  1.
         -5    1    1    2    0  502  0.41366710243E+02  0.19436098721E+02  0.32217364762E+02  0.56074928819E+02  0.41800000000E+01 0.  1.
        -11    1    1    2    0    0 -0.10020784400E+02 -0.15823525032E+02 -0.65781047298E+01  0.19851234880E+02  0.00000000000E+00 0.  1.
         11    1    1    2    0    0 -0.15390781618E+02  0.90675306094E+02  0.75160577095E+02  0.11877710067E+03  0.00000000000E+00 0. -1.
</event>
<event>
 7    1  0.2641580E-009  0.1189507E+03  0.7561462E-02  0.1244838E+00
         -1   -1    0    0    0  501 -0.00000000000E+00  0.00000000000E+00  0.18358144540E+02  0.18358144540E+02  0.00000000000E+00 0.  1.
          1   -1    0    0  501    0  0.00000000000E+00 -0.00000000000E+00 -0.13086406618E+04  0.13086406618E+04  0.00000000000E+00 0. -1.
         25    2    1    2    0    0  0.41579500312E+02  0.67654894866E+02 -0.10149197446E+04  0.10256780995E+04  0.12508971286E+03 0.  0.
          5    1    3    3  502    0 -0.42451105897E+01 -0.17650147989E+02 -0.57085093893E+03  0.57115480875E+03  0.41800000000E+01 0. -1.
         -5    1    3    3    0  502  0.45824610902E+02  0.85305042855E+02 -0.44406880566E+03  0.45452329078E+03  0.41800000000E+01 0. -1.
        -11    1    1    2    0    0  0.22721673922E+02  0.70416559359E+01 -0.54117608062E+02  0.59114929473E+02  0.00000000000E+00 0.  1.
         11    1    1    2    0    0 -0.64301174234E+02 -0.74696550802E+02 -0.22124516458E+03  0.24220577731E+03  0.00000000000E+00 0. -1.
</event>
<event>
 7    1  0.2641580E-009  0.8439810E+02  0.7561462E-02  0.1317014E+00
         -3   -1    0    0    0  501 -0.00000000000E+00  0.00000000000E+00  0.38142384095E+02  0.38142384095E+02  0.00000000000E+00 0.  1.
          3   -1    0    0  501    0  0.00000000000E+00 -0.00000000000E+00 -0.33150177887E+03  0.33150177887E+03  0.00000000000E+00 0. -1.
         25    2    1    2    0    0  0.15392853439E+01 -0.28891087911E+02 -0.16891397563E+03  0.21216579275E+03  0.12508128594E+03 0.  0.
          5    1    3    3  502    0 -0.26307354078E+02 -0.56433677096E+02 -0.32865003109E+02  0.70529551385E+02  0.41800000000E+01 0. -1.
         -5    1    3    3    0  502  0.27846639422E+02  0.27542589185E+02 -0.13604897252E+03  0.14163624137E+03  0.41800000000E+01 0. -1.
        -11    1    1    2    0    0 -0.16556630128E+02  0.43197415052E+02 -0.18998260844E+02  0.50010724685E+02  0.00000000000E+00 0.  1.
         11    1    1    2    0    0  0.15017344784E+02 -0.14306327141E+02 -0.10544715831E+03  0.10746764553E+03  0.00000000000E+00 0. -1.
</event>
<event>
 7    1  0.2641580E-009  0.1653586E+03  0.7561462E-02  0.1182776E+00
         -2   -1    0    0    0  501 -0.00000000000E+00  0.00000000000E+00  0.71454605041E+02  0.71454605041E+02  0.00000000000E+00 0.  1.
          2   -1    0    0  501    0  0.00000000000E+00 -0.00000000000E+00 -0.50112375669E+03  0.50112375669E+03  0.00000000000E+00 0. -1.
         25    2    1    2    0    0  0.85310939778E+02 -0.12412835911E+03 -0.17254334305E+03  0.26096110880E+03  0.12507473404E+03 0.  0.
          5    1    3    3  502    0  0.33831308891E+02 -0.12161742764E+03 -0.65947051048E+02  0.14248453288E+03  0.41800000000E+01 0. -1.
         -5    1    3    3    0  502  0.51479630886E+02 -0.25109314621E+01 -0.10659629201E+03  0.11847657592E+03  0.41800000000E+01 0. -1.
        -11    1    1    2    0    0 -0.17872633232E+02  0.46810629729E+02 -0.16931613151E+03  0.17657468240E+03  0.00000000000E+00 0.  1.
         11    1    1    2    0    0 -0.67438306546E+02  0.77317729377E+02 -0.87809677089E+02  0.13504257053E+03  0.00000000000E+00 0. -1.
</event>
<event>
 7    1  0.2641580E-009  0.1365391E+03  0.7561462E-02  0.1218063E+00
          2   -1    0    0  501    0  0.00000000000E+00  0.00000000000E+00  0.15011574921E+03  0.15011574921E+03  0.00000000000E+00 0. -1.
         -2   -1    0    0    0  501 -0.00000000000E+00 -0.00000000000E+00 -0.19421799860E+03  0.19421799860E+03  0.00000000000E+00 0.  1.
         25    2    1    2    0    0 -0.12315422892E+03 -0.41441619853E+02 -0.50909853816E+02  0.18740801256E+03  0.12508228491E+03 0.  0.
          5    1    3    3  502    0 -0.35939585119E+02  0.22555028930E+01  0.40011080790E+02  0.53991666559E+02  0.41800000000E+01 0. -1.
         -5    1    3    3    0  502 -0.87214643806E+02 -0.43697122746E+02 -0.90920934607E+02  0.13341634600E+03  0.41800000000E+01 0. -1.
        -11    1    1    2    0    0  0.83266467594E+02  0.22932658926E+01 -0.31622749026E+02  0.89098608014E+02  0.00000000000E+00 0.  1.
         11    1    1    2    0    0  0.39887761331E+02  0.39148353961E+02  0.38430353462E+02  0.67827127236E+02  0.00000000000E+00 0. -1.
</event>
<event>
 7    1  0.2641580E-009  0.7365111E+02  0.7561462E-02  0.1348100E+00
         -1   -1    0    0    0  501 -0.00000000000E+00  0.00000000000E+00  0.34363219983E+02  0.34363219983E+02  0.00000000000E+00 0.  1.
          1   -1    0    0  501    0  0.00000000000E+00 -0.00000000000E+00 -0.51931872196E+03  0.51931872196E+03  0.00000000000E+00 0. -1.
         25    2    1    2    0    0 -0.23841728260E+02 -0.63540057256E+01 -0.11357726550E+03  0.17075463336E+03  0.12509415726E+03 0.  0.
          5    1    3    3  502    0 -0.25533423404E+02  0.19688107654E+02 -0.13366202989E+03  0.13755939782E+03  0.41800000000E+01 0. -1.
         -5    1    3    3    0  502  0.16916951437E+01 -0.26042113380E+02  0.20084764396E+02  0.33195235540E+02  0.41800000000E+01 0. -1.
        -11    1    1    2    0    0 -0.65790355132E+01 -0.35786809525E+02 -0.95521183677E+02  0.10221680867E+03  0.00000000000E+00 0.  1.
         11    1    1    2    0    0  0.30420763773E+02  0.42140815250E+02 -0.27585705280E+03  0.28071049991E+03  0.00000000000E+00 0. -1.
</event>
<event>
 7    1  0.2641580E-009  0.8014129E+02  0.7561462E-02  0.1328651E+00
         -1   -1    0    0    0  501 -0.00000000000E+00  0.00000000000E+00  0.15448208478E+03  0.15448208478E+03  0.00000000000E+00 0.  1.
          1   -1    0    0  501    0  0.00000000000E+00 -0.00000000000E+00 -0.92138046584E+02  0.92138046584E+02  0.00000000000E+00 0. -1.
         25    2    1    2    0    0  0.14881256838E+02 -0.30969553587E+01 -0.65591650141E+01  0.12618167554E+03  0.12509096554E+03 0.  0.
          5    1    3    3  502    0  0.22274515666E+02  0.29713779817E+02  0.48682392030E+02  0.61371902797E+02  0.41800000000E+01 0.  1.
         -5    1    3    3    0  502 -0.73932588280E+01 -0.32810735176E+02 -0.55241557044E+02  0.64809772747E+02  0.41800000000E+01 0.  1.
        -11    1    1    2    0    0  0.32074084603E+02 -0.18834856760E+02  0.40401077451E+01  0.37414184515E+02  0.00000000000E+00 0. -1.
         11    1    1    2    0    0 -0.46955341442E+02  0.21931812119E+02  0.64863095469E+02  0.83024271310E+02  0.00000000000E+00 0.  1.
</event>
<event>
 7    1  0.2641580E-009  0.1291488E+03  0.7561462E-02  0.1228724E+00
          1   -1    0    0  501    0  0.00000000000E+00  0.00000000000E+00  0.28361112573E+03  0.28361112573E+03  0.00000000000E+00 0. -1.
         -1   -1    0    0    0  501 -0.00000000000E+00 -0.00000000000E+00 -0.74533139432E+02  0.74533139432E+02  0.00000000000E+00 0.  1.
         25    2    1    2    0    0 -0.54054349618E+02 -0.70668460139E+02  0.15891270018E+03  0.22094906973E+03  0.12509732677E+03 0.  0.
          5    1    3    3  502    0 -0.84597388370E+02 -0.31844316438E+02  0.14235782289E+03  0.16868313711E+03  0.41800000000E+01 0. -1.
         -5    1    3    3    0  502  0.30543038753E+02 -0.38824143702E+02  0.16554877290E+02  0.52265932619E+02  0.41800000000E+01 0. -1.
        -11    1    1    2    0    0 -0.12967062416E+02  0.44389298224E+02  0.45780680498E+02  0.65072461237E+02  0.00000000000E+00 0. -1.
         11    1    1    2    0    0  0.67021412034E+02  0.26279161916E+02  0.43846056268E+01  0.72122734200E+02  0.00000000000E+00 0.  1.
</event>
<event>
 7    1  0.2641580E-009  0.1171365E+03  0.7561462E-02  0.1247897E+00
         -2   -1    0    0    0  501 -0.00000000000E+00  0.00000000000E+00  0.25934895927E+02  0.25934895927E+02  0.00000000000E+00 0.  1.
          2   -1    0    0  501    0  0.00000000000E+00 -0.00000000000E+00 -0.55192984934E+03  0.55192984934E+03  0.00000000000E+00 0. -1.
         25    2    1    2    0    0  0.36017055880E+01  0.54006701130E+02 -0.30319304034E+03  0.33242094306E+03  0.12509183675E+03 0.  0.
          5    1    3    3  502    0 -0.40713620210E+02 -0.20940418875E+02 -0.14074500357E+03  0.14806325825E+03  0.41800000000E+01 0. -1.
         -5    1    3    3    0  502  0.44315325798E+02  0.74947120005E+02 -0.16244803677E+03  0.18435768481E+03  0.41800000000E+01 0. -1.
        -11    1    1    2    0    0 -0.34395785354E+02 -0.60560709257E+02 -0.13052975693E+03  0.14794825784E+03  0.00000000000E+00 0.  1.
         11    1    1    2    0    0  0.30794079766E+02  0.65540081276E+01 -0.92272156150E+02  0.97495544369E+02  0.00000000000E+00 0. -1.
</event>
<event>
 7    1  0.2641580E-009  0.1192926E+03  0.7561462E-02  0.1244269E+00
          2   -1    0    0  501    0  0.00000000000E+00  0.00000000000E+00  0.14121519155E+04  0.14121519155E+04  0.00000000000E+00 0. -1.
         -2   -1    0    0    0  501 -0.00000000000E+00 -0.00000000000E+00 -0.15981985797E+02  0.15981985797E+02  0.00000000000E+00 0.  1.
         25    2    1    2    0    0 -0.69028894762E+02  0.44283238648E+01  0.11175605647E+04  0.11266654055E+04  0.12509485159E+03 0.  0.
          5    1    3    3  502    0 -0.12343196221E+02 -0.55913787248E+02  0.56695293694E+03  0.56985244687E+03  0.41800000000E+01 0.  1.
         -5    1    3    3    0  502 -0.56685698541E+02  0.60342111112E+02  0.55060762773E+03  0.55681295864E+03  0.41800000000E+01 0.  1.
        -11    1    1    2    0    0  0.43650176850E+02  0.31826568668E+02  0.22766542882E+03  0.23398678572E+03  0.00000000000E+00 0. -1.
         11    1    1    2    0    0  0.25378717913E+02 -0.36254892533E+02  0.50943936168E+02  0.67481710023E+02  0.00000000000E+00 0.  1.
</event>
<event>
 7    1  0.2641580E-009  0.1145378E+03  0.7561462E-02  0.1252390E+00
         -1   -1    0    0    0  501 -0.00000000000E+00  0.00000000000E+00  0.64240890079E+02  0.64240890079E+02  0.00000000000E+00 0.  1.
          1   -1    0    0  501    0  0.00000000000E+00 -0.00000000000E+00 -0.30714628698E+03  0.30714628698E+03  0.00000000000E+00 0. -1.
         25    2    1    2    0    0  0.73783451390E+02 -0.40922807620E+02 -0.16873075147E+03  0.22635352701E+03  0.12508868380E+03 0.  0.
          5    1    3    3  502    0  0.71086916798E+02 -0.72037941436E+02 -0.16633782178E+03  0.19475255608E+03  0.41800000000E+01 0. -1.
         -5    1    3    3    0  502  0.26965345928E+01  0.31115133816E+02 -0.23929296935E+01  0.31600970930E+02  0.41800000000E+01 0. -1.
        -11    1    1    2    0    0  0.82598672966E+00  0.18285499493E+02  0.17060266532E+02  0.25021879224E+02  0.00000000000E+00 0.  1.
         11    1    1    2    0    0 -0.74609438120E+02  0.22637308127E+02 -0.91234911964E+02  0.12001177083E+03  0.00000000000E+00 0. -1.
</event>
<event>
 7    1  0.2641580E-009  0.1003669E+03  0.7561462E-02  0.1279526E+00
          2   -1    0    0  501    0  0.00000000000E+00  0.00000000000E+00  0.96396659986E+03  0.96396659986E+03  0.00000000000E+00 0. -1.
         -2   -1    0    0    0  501 -0.00000000000E+00 -0.00000000000E+00 -0.13161116468E+02  0.13161116468E+02  0.00000000000E+00 0.  1.
         25    2    1    2    0    0  0.13523561659E+01  0.32165950015E+02  0.52332305193E+03  0.53902758140E+03  0.12508892686E+03 0.  0.
          5    1    3    3  502    0 -0.68545867935E+01 -0.35648623834E+02  0.56985977667E+02  0.67695522688E+02  0.41800000000E+01 0. -1.
         -5    1    3    3    0  502  0.82069429594E+01  0.67814573849E+02  0.46633707426E+03  0.47133205871E+03  0.41800000000E+01 0. -1.
        -11    1    1    2    0    0  0.27982944954E+02  0.21031639230E+02  0.14621785710E+03  0.15034971497E+03  0.00000000000E+00 0. -1.
         11    1    1    2    0    0 -0.29335301119E+02 -0.53197589245E+02  0.28126457436E+03  0.28775041996E+03  0.00000000000E+00 0.  1.
</event>
<event>
 7    1  0.2641580E-009  0.1013130E+03  0.7561462E-02  0.1277559E+00
          2   -1    0    0  501    0  0.00000000000E+00  0.00000000000E+00  0.63283617127E+03  0.63283617127E+03  0.00000000000E+00 0.  1.
         -2   -1    0    0    0  501 -0.00000000000E+00 -0.00000000000E+00 -0.30656685185E+02  0.30656685185E+02  0.00000000000E+00 0. -1.
         25    2    1    2    0    0 -0.34094556991E+02  0.38329141887E+02  0.51903713665E+03  0.53636057058E+03  0.12510615697E+03 0.  0.
          5    1    3    3  502    0  0.37767460319E+02  0.11435114310E+02  0.32885923189E+03  0.33124463723E+03  0.41800000000E+01 0. -1.
         -5    1    3    3    0  502 -0.71862017311E+02  0.26894027577E+02  0.19017790476E+03  0.20511593334E+03  0.41800000000E+01 0. -1.
        -11    1    1    2    0    0 -0.13176057351E+02 -0.36488775234E+02  0.66490520534E+02  0.76980702298E+02  0.00000000000E+00 0.  1.
         11    1    1    2    0    0  0.47270614343E+02 -0.18403666524E+01  0.16651828899E+02  0.50151583579E+02  0.00000000000E+00 0. -1.
</event>
<event>
 7    1  0.2641580E-009  0.1532315E+03  0.7561462E-02  0.1196557E+00
         -1   -1    0    0    0  501 -0.00000000000E+00  0.00000000000E+00  0.28141392663E+02  0.28141392663E+02  0.00000000000E+00 0.  1.
          1   -1    0    0  501    0  0.00000000000E+00 -0.00000000000E+00 -0.11016366315E+04  0.11016366315E+04  0.00000000000E+00 0. -1.
         25    2    1    2    0    0 -0.55781336193E+02 -0.10908595400E+03 -0.36065004844E+03  0.40090445791E+03  0.12507847178E+03 0.  0.
          5    1    3    3  502    0  0.75552973329E+01 -0.88016041164E+02 -0.10819622028E+03  0.13974190675E+03  0.41800000000E+01 0.  1.
         -5    1    3    3    0  502 -0.63336633526E+02 -0.21069912839E+02 -0.25245382816E+03  0.26116255116E+03  0.41800000000E+01 0.  1.
        -11    1    1    2    0    0  0.55389591534E+02  0.15445121901E+02 -0.23435223389E+03  0.24130380886E+03  0.00000000000E+00 0. -1.
         11    1    1    2    0    0  0.39174465898E+00  0.93640832102E+02 -0.47849295655E+03  0.48756975744E+03  0.00000000000E+00 0.  1.
</event>
<event>
 7    1  0.2641580E-009  0.2364427E+03  0.7561462E-02  0.1122186E+00
         -2   -1    0    0    0  501 -0.00000000000E+00  0.00000000000E+00  0.44507726982E+03  0.44507726982E+03  0.00000000000E+00 0.  1.
          2   -1    0    0  501    0  0.00000000000E+00 -0.00000000000E+00 -0.21306234774E+03  0.21306234774E+03  0.00000000000E+00 0. -1.
         25    2    1    2    0    0 -0.21790697034E+03 -0.30634455829E+01 -0.83028634325E+02  0.26463892356E+03  0.12508866185E+03 0.  0.
          5    1    3    3  502    0 -0.26107610898E+02  0.45935729698E+02 -0.12560469442E+02  0.54469591537E+02  0.41800000000E+01 0.  1.
         -5    1    3    3    0  502 -0.19179935944E+03 -0.48999175281E+02 -0.70468164883E+02  0.21016933202E+03  0.41800000000E+01 0.  1.
        -11    1    1    2    0    0  0.98906361179E+02 -0.19365662775E+02  0.78452084070E+02  0.12771932771E+03  0.00000000000E+00 0.  1.
         11    1    1    2    0    0  0.11900060916E+03  0.22429108358E+02  0.23659147234E+03  0.26578136629E+03  0.00000000000E+00 0. -1.
</event>
<event>
 7    1  0.2641580E-009  0.8409193E+02  0.7561462E-02  0.1317824E+00
          2   -1    0    0  501    0  0.00000000000E+00  0.00000000000E+00  0.10780379159E+03  0.10780379159E+03  0.00000000000E+00 0.  1.
         -2   -1    0    0    0  501 -0.00000000000E+00 -0.00000000000E+00 -0.14506091121E+03  0.14506091121E+03  0.00000000000E+00 0. -1.
         25    2    1    2    0    0  0.18721276529E+02  0.45701321097E+02 -0.56657100031E+02  0.14593122926E+03  0.12508716859E+03 0.  0.
          5    1    3    3  502    0  0.19071777444E+01 -0.10829777161E+02 -0.81101971712E+02  0.81950738959E+02  0.41800000000E+01 0. -1.
         -5    1    3    3    0  502  0.16814098785E+02  0.56531098258E+02  0.24444871681E+02  0.63980490305E+02  0.41800000000E+01 0. -1.
        -11    1    1    2    0    0 -0.52310238747E+01  0.24885245176E+02 -0.12467037018E+02  0.28320770651E+02  0.00000000000E+00 0. -1.
         11    1    1    2    0    0 -0.13490252654E+02 -0.70586566273E+02  0.31867017427E+02  0.78612702883E+02  0.00000000000E+00 0.  1.
</event>
<event>
 7    1  0.4030978E-009  0.9073102E+02  0.7561462E-02  0.1301091E+00
         -2   -1    0    0    0  501 -0.00000000000E+00  0.00000000000E+00  0.51093860437E+02  0.51093860437E+02  0.00000000000E+00 0.  1.
          2   -1    0    0  501    0  0.00000000000E+00 -0.00000000000E+00 -0.36017421678E+03  0.36017421678E+03  0.00000000000E+00 0. -1.
         25    2    1    2    0    0  0.60016205389E+02  0.80744159272E+01 -0.87125362400E+02  0.16402954663E+03  0.12509085615E+03 0.  0.
          5    1    3    3  502    0  0.33742496688E+02  0.53063370759E+02 -0.92022368650E+02  0.11153414782E+03  0.41800000000E+01 0.  1.
         -5    1    3    3    0  502  0.26273708701E+02 -0.44988954831E+02  0.48970062504E+01  0.52495398808E+02  0.41800000000E+01 0.  1.
        -11    1    1    2    0    0 -0.34981926760E+02 -0.17881323062E+02 -0.21620299286E+03  0.21974351194E+03  0.00000000000E+00 0. -1.
         11    1    1    2    0    0 -0.25034278629E+02  0.98069071349E+01 -0.57520010779E+01  0.27495018648E+02  0.00000000000E+00 0.  1.
</event>
<event>
 7    1  0.2641580E-009  0.2910038E+03  0.7561462E-02  0.1089826E+00
         -1   -1    0    0    0  501 -0.00000000000E+00  0.00000000000E+00  0.35612623143E+03  0.35612623143E+03  0.00000000000E+00 0.  1.
          1   -1    0    0  501    0  0.00000000000E+00 -0.00000000000E+00 -0.25004215452E+03  0.25004215452E+03  0.00000000000E+00 0. -1.
         25    2    1    2    0    0 -0.97950694410E+02  0.25841721175E+03  0.35036697938E+02  0.30536734989E+03  0.12509138385E+03 0.  0.
          5    1    3    3  502    0 -0.54023982751E+02  0.24994142169E+03  0.15047567586E+02  0.25618978645E+03  0.41800000000E+01 0. -1.
         -5    1    3    3    0  502 -0.43926711659E+02  0.84757900590E+01  0.19989130353E+02  0.49177563447E+02  0.41800000000E+01 0. -1.
        -11    1    1    2    0    0  0.15609785724E+02 -0.11418557980E+03  0.69758276023E+02  0.13471536333E+03  0.00000000000E+00 0.  1.
         11    1    1    2    0    0  0.82340908686E+02 -0.14423163195E+03  0.12891029524E+01  0.16608567273E+03  0.00000000000E+00 0. -1.
</event>
<event>
 7    1  0.2641580E-009  0.7366454E+02  0.7561462E-02  0.1348057E+00
         -2   -1    0    0    0  501 -0.00000000000E+00  0.00000000000E+00  0.84259950803E+02  0.84259950803E+02  0.00000000000E+00 0.  1.
          2   -1    0    0  501    0  0.00000000000E+00 -0.00000000000E+00 -0.16160291892E+03  0.16160291892E+03  0.00000000000E+00 0. -1.
         25    2    1    2    0    0 -0.29712632917E+01  0.38890728057E+02 -0.72899777461E+02  0.14994431255E+03  0.12509037604E+03 0.  0.
          5    1    3    3  502    0 -0.42918302614E+02  0.42021641274E+02 -0.88248991365E+02  0.10683237296E+03  0.41800000000E+01 0. -1.
         -5    1    3    3    0  502  0.39947039322E+02 -0.31309132171E+01  0.15349213904E+02  0.43111939595E+02  0.41800000000E+01 0. -1.
        -11    1    1    2    0    0 -0.11096914432E+02 -0.23451668483E+02  0.39503027464E+02  0.47261098626E+02  0.00000000000E+00 0.  1.
         11    1    1    2    0    0  0.14068177724E+02 -0.15439059574E+02 -0.43946218118E+02  0.48657458543E+02  0.00000000000E+00 0. -1.
</event>
<event>
 7    1  0.2641580E-009  0.1205871E+03  0.7561462E-02  0.1242132E+00
         -3   -1    0    0    0  501 -0.00000000000E+00  0.00000000000E+00  0.20041395029E+02  0.20041395029E+02  0.00000000000E+00 0.  1.
          3   -1    0    0  501    0  0.00000000000E+00 -0.00000000000E+00 -0.80996435277E+03  0.80996435277E+03  0.00000000000E+00 0. -1.
         25    2    1    2    0    0 -0.18960455609E+00 -0.56637088287E+02 -0.54143203782E+03  0.55857334569E+03  0.12509090785E+03 0.  0.
          5    1    3    3  502    0  0.54697157623E+02 -0.60569854279E+02 -0.34404528343E+03  0.35361718814E+03  0.41800000000E+01 0. -1.
         -5    1    3    3    0  502 -0.54886762179E+02  0.39327659925E+01 -0.19738675439E+03  0.20495615755E+03  0.41800000000E+01 0. -1.
        -11    1    1    2    0    0  0.43859126254E+02  0.27330512122E+02 -0.82878442973E+02  0.97669934772E+02  0.00000000000E+00 0. -1.
         11    1    1    2    0    0 -0.43669521698E+02  0.29306576164E+02 -0.16561247695E+03  0.17376246733E+03  0.00000000000E+00 0.  1.
</event>
<event>
 7    1  0.2641580E-009  0.9925742E+02  0.7561462E-02  0.1281865E+00
         -2   -1    0    0    0  501 -0.00000000000E+00  0.00000000000E+00  0.70763503921E+03  0.70763503921E+03  0.00000000000E+00 0.  1.
          2   -1    0    0  501    0  0.00000000000E+00 -0.00000000000E+00 -0.30599634210E+02  0.30599634210E+02  0.00000000000E+00 0. -1.
         25    2    1    2    0    0  0.20560964734E+02 -0.75142978125E+02  0.52022901697E+03  0.54070032798E+03  0.12509753854E+03 0.  0.
          5    1    3    3  502    0 -0.12127868163E+02 -0.35987101111E+02  0.32112983288E+02  0.49908643823E+02  0.41800000000E+01 0. -1.
         -5    1    3    3    0  502  0.32688832897E+02 -0.39155877014E+02  0.48811603369E+03  0.49079168416E+03  0.41800000000E+01 0. -1.
        -11    1    1    2    0    0 -0.45816465019E+02  0.23158449680E+02  0.33346514395E+02  0.61216437994E+02  0.00000000000E+00 0. -1.
         11    1    1    2    0    0  0.25255500285E+02  0.51984528446E+02  0.12345987364E+03  0.13631790745E+03  0.00000000000E+00 0.  1.
</event>
<event>
 7    1  0.2641580E-009  0.1076841E+03  0.7561462E-02  0.1264920E+00
          1   -1    0    0  501    0  0.00000000000E+00  0.00000000000E+00  0.47561122250E+03  0.47561122250E+03  0.00000000000E+00 0. -1.
         -1   -1    0    0    0  501 -0.00000000000E+00 -0.00000000000E+00 -0.37018441686E+02  0.37018441686E+02  0.00000000000E+00 0.  1.
         25    2    1    2    0    0  0.60805371577E+02  0.36523413138E+02  0.19025688452E+03  0.23849955721E+03  0.12511236455E+03 0.  0.
          5    1    3    3  502    0 -0.22239697486E+02 -0.37155638697E+01 -0.41106528428E+01  0.23297627045E+02  0.41800000000E+01 0. -1.
         -5    1    3    3    0  502  0.83045069063E+02  0.40238977008E+02  0.19436753736E+03  0.21520193016E+03  0.41800000000E+01 0. -1.
        -11    1    1    2    0    0 -0.24228642853E+02 -0.54250551838E+02  0.72891675096E+02  0.94039065326E+02  0.00000000000E+00 0.  1.
         11    1    1    2    0    0 -0.36576728724E+02  0.17727138700E+02  0.17544422120E+03  0.18009104165E+03  0.00000000000E+00 0. -1.
</event>
<event>
 7    1  0.2641580E-009  0.1355100E+03  0.7561462E-02  0.1219502E+00
          2   -1    0    0  501    0  0.00000000000E+00  0.00000000000E+00  0.25438401818E+03  0.25438401818E+03  0.00000000000E+00 0.  1.
         -2   -1    0    0    0  501 -0.00000000000E+00 -0.00000000000E+00 -0.10326336636E+03  0.10326336636E+03  0.00000000000E+00 0. -1.
         25    2    1    2    0    0  0.98220114186E+02  0.35920173437E+02  0.14857400268E+02  0.16372499142E+03  0.12509069023E+03 0.  0.
          5    1    3    3  502    0  0.15248099188E+02 -0.41762984695E+02 -0.13221064566E+02  0.46571669153E+02  0.41800000000E+01 0.  1.
         -5    1    3    3    0  502  0.82972014998E+02  0.77683158132E+02  0.28078464835E+02  0.11715332226E+03  0.41800000000E+01 0.  1.
        -11    1    1    2    0    0 -0.24497654873E+02  0.92267633239E+01  0.94227502936E+02  0.97796168459E+02  0.00000000000E+00 0.  1.
         11    1    1    2    0    0 -0.73722459313E+02 -0.45146936761E+02  0.42035748620E+02  0.96126224664E+02  0.00000000000E+00 0. -1.
</event>
<event>
 7    1  0.2641580E-009  0.9467002E+02  0.7561462E-02  0.1291921E+00
          3   -1    0    0  501    0  0.00000000000E+00  0.00000000000E+00  0.13708201942E+03  0.13708201942E+03  0.00000000000E+00 0. -1.
         -3   -1    0    0    0  501 -0.00000000000E+00 -0.00000000000E+00 -0.10298256844E+03  0.10298256844E+03  0.00000000000E+00 0.  1.
         25    2    1    2    0    0  0.18070369707E+02  0.44245215553E+02  0.13178808060E+02  0.13454613957E+03  0.12507919623E+03 0.  0.
          5    1    3    3  502    0  0.18214726708E+02  0.68863654975E+02 -0.35603710422E+02  0.79743813812E+02  0.41800000000E+01 0. -1.
         -5    1    3    3    0  502 -0.14435700086E+00 -0.24618439422E+02  0.48782518482E+02  0.54802325753E+02  0.41800000000E+01 0. -1.
        -11    1    1    2    0    0 -0.49138331306E+02 -0.17956062278E+02  0.34438685648E+02  0.62634007099E+02  0.00000000000E+00 0.  1.
         11    1    1    2    0    0  0.31067961599E+02 -0.26289153275E+02 -0.13518042732E+02  0.42884441201E+02  0.00000000000E+00 0. -1.
</event>
<event>
 6    1  0.2641580E-009  0.1505475E+03  0.7561462E-02  0.1199802E+00
          1   -1    0    0  501    0  0.00000000000E+00  0.00000000000E+00  0.73716619325E+03  0.73716619325E+03  0.00000000000E+00 0. -1.
         -1   -1    0    0    0  501 -0.00000000000E+00 -0.00000000000E+00 -0.37052326223E+02  0.37052326223E+02  0.00000000000E+00 0.  1.
          5    1    1    2  502    0 -0.44959870660E+02 -0.10413148076E+02  0.62382030190E+02  0.77709804485E+02  0.41800000000E+01 0.  1.
         -5    1    1    2    0  502 -0.18384424130E+02  0.10765897440E+03  0.41682224942E+03  0.43091379861E+03  0.41800000000E+01 0.  1.
        -11    1    1    2    0    0 -0.16746813127E+02 -0.49406867662E+02  0.59207797060E+02  0.78911707336E+02  0.00000000000E+00 0.  1.
         11    1    1    2    0    0  0.80091107917E+02 -0.47838958665E+02  0.16170179036E+03  0.18668320905E+03  0.00000000000E+00 0. -1.
</event>
<event>
 7    1  0.2641580E-009  0.1393004E+03  0.7561462E-02  0.1214273E+00
          2   -1    0    0  501    0  0.00000000000E+00  0.00000000000E+00  0.49771197858E+03  0.49771197858E+03  0.00000000000E+00 0. -1.
         -2   -1    0    0    0  501 -0.00000000000E+00 -0.00000000000E+00 -0.52625193171E+02  0.52625193171E+02  0.00000000000E+00 0.  1.
         25    2    1    2    0    0  0.11357088526E+03  0.25881204902E+02  0.28208864348E+03  0.32983260762E+03  0.12508942210E+03 0.  0.
          5    1    3    3  502    0 -0.16952589949E+02 -0.13843021174E+02  0.80698899124E+01  0.23698419027E+02  0.41800000000E+01 0.  1.
         -5    1    3    3    0  502  0.13052347521E+03  0.39724226076E+02  0.27401875356E+03  0.30613418859E+03  0.41800000000E+01 0.  1.
        -11    1    1    2    0    0 -0.91515646826E+02 -0.88268150309E+01  0.51102362602E+02  0.10518782126E+03  0.00000000000E+00 0.  1.
         11    1    1    2    0    0 -0.22055238432E+02 -0.17054389871E+02  0.11189577933E+03  0.11531674288E+03  0.00000000000E+00 0. -1.
</event>
<event>
 7    1  0.2641580E-009  0.1324450E+03  0.7561462E-02  0.1223872E+00
         -1   -1    0    0    0  501 -0.00000000000E+00  0.00000000000E+00  0.24788320494E+02  0.24788320494E+02  0.00000000000E+00 0.  1.
          1   -1    0    0  501    0  0.00000000000E+00 -0.00000000000E+00 -0.71805584618E+03  0.71805584618E+03  0.00000000000E+00 0. -1.
         25    2    1    2    0    0 -0.21971780164E+02  0.72845723302E+02 -0.42196374833E+03  0.44664725153E+03  0.12510437189E+03 0.  0.
          5    1    3    3  502    0 -0.62329927119E+02 -0.29743535721E+00 -0.19494604446E+03  0.20471087156E+03  0.41800000000E+01 0.  1.
         -5    1    3    3    0  502  0.40358146955E+02  0.73143158659E+02 -0.22701770387E+03  0.24193637997E+03  0.41800000000E+01 0.  1.
        -11    1    1    2    0    0 -0.35897109672E+02 -0.26027993630E+02 -0.96060213641E+02  0.10579992240E+03  0.00000000000E+00 0. -1.
         11    1    1    2    0    0  0.57868889836E+02 -0.46817729671E+02 -0.17524356371E+03  0.19039699274E+03  0.00000000000E+00 0.  1.
</event>
<event>
 6    1  0.2641580E-009  0.1092290E+03  0.7561462E-02  0.1262004E+00
         -2   -1    0    0    0  501 -0.00000000000E+00  0.00000000000E+00  0.85069020684E+02  0.85069020684E+02  0.00000000000E+00 0.  1.
          2   -1    0    0  501    0  0.00000000000E+00 -0.00000000000E+00 -0.17595415928E+03  0.17595415928E+03  0.00000000000E+00 0. -1.
          5    1    1    2  502    0 -0.76560807375E+02 -0.23605146950E+02 -0.24077622803E+02  0.83761354504E+02  0.41800000000E+01 0.  1.
         -5    1    1    2    0  502  0.34327435565E+02  0.15949173084E+02 -0.65978958761E+02  0.76180340993E+02  0.41800000000E+01 0.  1.
        -11    1    1    2    0    0  0.45382893916E+02 -0.35041359333E+02 -0.72351998281E+01  0.57791453007E+02  0.00000000000E+00 0. -1.
         11    1    1    2    0    0 -0.31495221068E+01  0.42697333199E+02  0.64066427974E+01  0.43290031459E+02  0.00000000000E+00 0.  1.
</event>
<event>
 7    1  0.2641580E-009  0.9136689E+02  0.7561462E-02  0.1299575E+00
         -2   -1    0    0    0  501 -0.00000000000E+00  0.00000000000E+00  0.12687297006E+02  0.12687297006E+02  0.00000000000E+00 0. -1.
          2   -1    0    0  501    0  0.00000000000E+00 -0.00000000000E+00 -0.78115436424E+03  0.78115436424E+03  0.00000000000E+00 0.  1.
         25    2    1    2    0    0 -0.23645928048E+02  0.53043415069E+01 -0.61390732200E+03  0.62699061595E+03  0.12509103296E+03 0.  0.
          5    1    3    3  502    0  0.44732761687E+02  0.28538593389E+02 -0.20892016192E+03  0.21559354753E+03  0.41800000000E+01 0. -1.
         -5    1    3    3    0  502 -0.68378689734E+02 -0.23234251882E+02 -0.40498716008E+03  0.41139706842E+03  0.41800000000E+01 0. -1.
        -11    1    1    2    0    0  0.23220044692E+02  0.20732538290E+02 -0.48415801061E+02  0.57559520601E+02  0.00000000000E+00 0. -1.
         11    1    1    2    0    0  0.42588335519E+00 -0.26036879796E+02 -0.10614394417E+03  0.10929152469E+03  0.00000000000E+00 0.  1.
</event>
<event>
 7    1  0.2641580E-009  0.1063989E+03  0.7561462E-02  0.1267388E+00
         -2   -1    0    0    0  501 -0.00000000000E+00  0.00000000000E+00  0.25246856946E+02  0.25246856946E+02  0.00000000000E+00 0.  1.
          2   -1    0    0  501    0  0.00000000000E+00 -0.00000000000E+00 -0.55739318516E+03  0.55739318516E+03  0.00000000000E+00 0. -1.
         25    2    1    2    0    0  0.45859947567E+01  0.30570001314E+02 -0.20441265386E+03  0.24163510515E+03  0.12508970642E+03 0.  0.
          5    1    3    3  502    0  0.33503206857E+02  0.66797081867E+02 -0.16289555914E+03  0.17926726026E+03  0.41800000000E+01 0. -1.
         -5    1    3    3    0  502 -0.28917212101E+02 -0.36227080553E+02 -0.41517094725E+02  0.62367844884E+02  0.41800000000E+01 0. -1.
        -11    1    1    2    0    0 -0.16662026830E+02 -0.58582995321E+02 -0.17615471148E+03  0.18638689025E+03  0.00000000000E+00 0.  1.
         11    1    1    2    0    0  0.12076032073E+02  0.28012994007E+02 -0.15157896287E+03  0.15461804671E+03  0.00000000000E+00 0. -1.
</event>
<event>
 7    1  0.2641580E-009  0.1192889E+03  0.7561462E-02  0.1244275E+00
          1   -1    0    0  501    0  0.00000000000E+00  0.00000000000E+00  0.34387927379E+03  0.34387927379E+03  0.00000000000E+00 0. -1.
         -1   -1    0    0    0  501 -0.00000000000E+00 -0.00000000000E+00 -0.44042872580E+02  0.44042872580E+02  0.00000000000E+00 0.  1.
         25    2    1    2    0    0  0.22645126504E+02 -0.53797057237E+02  0.17040052587E+03  0.21929627247E+03  0.12509033049E+03 0.  0.
          5    1    3    3  502    0 -0.16338905263E+02 -0.84680450765E+02  0.12434784254E+03  0.15138559017E+03  0.41800000000E+01 0. -1.
         -5    1    3    3    0  502  0.38984031767E+02  0.30883393528E+02  0.46052683332E+02  0.67910682302E+02  0.41800000000E+01 0. -1.
        -11    1    1    2    0    0 -0.92182401781E+00 -0.22742773825E+02  0.94224339907E+01  0.24634645991E+02  0.00000000000E+00 0.  1.
         11    1    1    2    0    0 -0.21723302486E+02  0.76539831063E+02  0.12001344135E+03  0.14399122791E+03  0.00000000000E+00 0. -1.
</event>
<event>
 7    1  0.2641580E-009  0.1240333E+03  0.7561462E-02  0.1236588E+00
         -2   -1    0    0    0  501 -0.00000000000E+00  0.00000000000E+00  0.55051778684E+03  0.55051778684E+03  0.00000000000E+00 0.  1.
          2   -1    0    0  501    0  0.00000000000E+00 -0.00000000000E+00 -0.49813940557E+02  0.49813940557E+02  0.00000000000E+00 0. -1.
         25    2    1    2    0    0  0.91712524556E+02 -0.31744333861E+02  0.40860077179E+03  0.43820222315E+03  0.12509079814E+03 0.  0.
          5    1    3    3  502    0  0.47461697053E+01  0.34991371903E+02  0.19353056782E+03  0.19677010778E+03  0.41800000000E+01 0. -1.
         -5    1    3    3    0  502  0.86966354851E+02 -0.66735705764E+02  0.21507020397E+03  0.24143211538E+03  0.41800000000E+01 0. -1.
        -11    1    1    2    0    0 -0.54991322253E+02  0.36170212407E+02  0.10417144544E+03  0.12322345488E+03  0.00000000000E+00 0.  1.
         11    1    1    2    0    0 -0.36721202303E+02 -0.44258785463E+01 -0.12068370944E+02  0.38906049359E+02  0.00000000000E+00 0. -1.
</event>
<event>
 7    1  0.2641580E-009  0.1690255E+03  0.7561462E-02  0.1178868E+00
          2   -1    0    0  501    0  0.00000000000E+00  0.00000000000E+00  0.18866592045E+04  0.18866592045E+04  0.00000000000E+00 0. -1.
         -2   -1    0    0    0  501 -0.00000000000E+00 -0.00000000000E+00 -0.34684689940E+02  0.34684689940E+02  0.00000000000E+00 0.  1.
         25    2    1    2    0    0 -0.33499347274E+02 -0.14618489643E+03  0.16593865207E+04  0.16708395982E+04  0.12509639344E+03 0.  0.
          5    1    3    3  502    0 -0.37497482711E+02 -0.26534324375E+01  0.67143903359E+03  0.67250349452E+03  0.41800000000E+01 0. -1.
         -5    1    3    3    0  502  0.39981354361E+01 -0.14353146399E+03  0.98794748714E+03  0.99833610372E+03  0.41800000000E+01 0. -1.
        -11    1    1    2    0    0  0.39933500472E+02  0.73813216174E+02  0.12930378000E+03  0.15415103912E+03  0.00000000000E+00 0. -1.
         11    1    1    2    0    0 -0.64341531972E+01  0.72371680255E+02  0.63284213860E+02  0.96353257102E+02  0.00000000000E+00 0.  1.
</event>
<event>
 7    1  0.2641580E-009  0.9593479E+02  0.7561462E-02  0.1289084E+00
         -1   -1    0    0    0  501 -0.00000000000E+00  0.00000000000E+00  0.41762708766E+02  0.41762708766E+02  0.00000000000E+00 0.  1.
          1   -1    0    0  501    0  0.00000000000E+00 -0.00000000000E+00 -0.28973668486E+03  0.28973668486E+03  0.00000000000E+00 0. -1.
         25    2    1    2    0    0  0.16046621775E+02 -0.81929272006E+01 -0.14677710503E+03  0.19368754534E+03  0.12508688393E+03 0.  0.
          5    1    3    3  502    0  0.69003342475E+02  0.17601584714E+01 -0.60507747883E+02  0.91886992466E+02  0.41800000000E+01 0. -1.
         -5    1    3    3    0  502 -0.52956720700E+02 -0.99530856720E+01 -0.86269357150E+02  0.10180055287E+03  0.41800000000E+01 0. -1.
        -11    1    1    2    0    0 -0.41769006065E+02  0.97852788725E+01 -0.10339998217E+03  0.11194622755E+03  0.00000000000E+00 0. -1.
         11    1    1    2    0    0  0.25722384290E+02 -0.15923516719E+01  0.22031111125E+01  0.25865620734E+02  0.00000000000E+00 0.  1.
</event>
<event>
 7    1  0.3635941E-009  0.1178686E+03  0.7561462E-02  0.1246655E+00
         -1   -1    0    0    0  501 -0.00000000000E+00  0.00000000000E+00  0.15655238867E+02  0.15655238867E+02  0.00000000000E+00 0.  1.
          1   -1    0    0  501    0  0.00000000000E+00 -0.00000000000E+00 -0.94187893031E+03  0.94187893031E+03  0.00000000000E+00 0. -1.
         25    2    1    2    0    0 -0.52452023208E+02  0.47456139506E+01 -0.58257732028E+03  0.59817857894E+03  0.12509013794E+03 0.  0.
          5    1    3    3  502    0 -0.16981068546E+01 -0.53336270403E+02 -0.32106421766E+03  0.32549553847E+03  0.41800000000E+01 0.  1.
         -5    1    3    3    0  502 -0.50753916353E+02  0.58081884353E+02 -0.26151310262E+03  0.27268304047E+03  0.41800000000E+01 0.  1.
        -11    1    1    2    0    0  0.51821625286E+02  0.36708299855E+02 -0.19929179800E+03  0.20916548682E+03  0.00000000000E+00 0.  1.
         11    1    1    2    0    0  0.63039792239E+00 -0.41453913806E+02 -0.14435457316E+03  0.15019010341E+03  0.00000000000E+00 0. -1.
</event>
<event>
 7    1  0.2641580E-009  0.1475560E+03  0.7561462E-02  0.1203509E+00
          1   -1    0    0  501    0  0.00000000000E+00  0.00000000000E+00  0.25681895547E+03  0.25681895547E+03  0.00000000000E+00 0. -1.
         -1   -1    0    0    0  501 -0.00000000000E+00 -0.00000000000E+00 -0.14366929040E+03  0.14366929040E+03  0.00000000000E+00 0.  1.
         25    2    1    2    0    0 -0.60020373173E+02  0.11236971683E+03 -0.37073468347E+02  0.18235226786E+03  0.12509400097E+03 0.  0.
          5    1    3    3  502    0 -0.44860469134E+02  0.29822564968E+02 -0.73118976472E+02  0.90915918257E+02  0.41800000000E+01 0.  1.
         -5    1    3    3    0  502 -0.15159904039E+02  0.82547151867E+02  0.36045508125E+02  0.91436349598E+02  0.41800000000E+01 0.  1.
        -11    1    1    2    0    0  0.23192464195E+02 -0.11758836070E+03  0.12511479005E+03  0.17325883428E+03  0.00000000000E+00 0.  1.
         11    1    1    2    0    0  0.36827908978E+02  0.52186438622E+01  0.25108343361E+02  0.44877143735E+02  0.00000000000E+00 0. -1.
</event>
<event>
 7    1  0.2641580E-009  0.1432486E+03  0.7561462E-02  0.1209023E+00
         -2   -1    0    0    0  501 -0.00000000000E+00  0.00000000000E+00  0.68562955978E+02  0.68562955978E+02  0.00000000000E+00 0.  1.
          2   -1    0    0  501    0  0.00000000000E+00 -0.00000000000E+00 -0.33812062345E+03  0.33812062345E+03  0.00000000000E+00 0. -1.
         25    2    1    2    0    0 -0.58227759880E+02  0.88307345109E+02 -0.13329105524E+03  0.21119407621E+03  0.12509105964E+03 0.  0.
          5    1    3    3  502    0 -0.15754627808E+02 -0.24828170161E+02  0.19686480102E+01  0.29765656484E+02  0.41800000000E+01 0. -1.
         -5    1    3    3    0  502 -0.42473132072E+02  0.11313551527E+03 -0.13525970325E+03  0.18142841973E+03  0.41800000000E+01 0. -1.
        -11    1    1    2    0    0 -0.18624503003E+02 -0.42522339434E+02 -0.25015523349E+02  0.52733271010E+02  0.00000000000E+00 0.  1.
         11    1    1    2    0    0  0.76852262884E+02 -0.45785005675E+02 -0.11125108889E+03  0.14275623221E+03  0.00000000000E+00 0. -1.
</event>
<event>
 7    1  0.2641580E-009  0.2077442E+03  0.7561462E-02  0.1143365E+00
         -1   -1    0    0    0  501 -0.00000000000E+00  0.00000000000E+00  0.14311233855E+03  0.14311233855E+03  0.00000000000E+00 0.  1.
          1   -1    0    0  501    0  0.00000000000E+00 -0.00000000000E+00 -0.40027534735E+03  0.40027534735E+03  0.00000000000E+00 0. -1.
         25    2    1    2    0    0 -0.16505782715E+03  0.67851900957E+02 -0.78637467527E+00  0.21793391414E+03  0.12508639327E+03 0.  0.
          5    1    3    3  502    0 -0.10021079587E+03 -0.23718973316E+02  0.16336980441E+02  0.10435115061E+03  0.41800000000E+01 0. -1.
         -5    1    3    3    0  502 -0.64847031277E+02  0.91570874273E+02 -0.17123355116E+02  0.11358276353E+03  0.41800000000E+01 0. -1.
        -11    1    1    2    0    0  0.81691390663E+02 -0.81809563856E+02 -0.13870163001E+03  0.18056696878E+03  0.00000000000E+00 0. -1.
         11    1    1    2    0    0  0.83366436484E+02  0.13957662900E+02 -0.11767500412E+03  0.14488680299E+03  0.00000000000E+00 0.  1.
</event>
<event>
 7    1  0.2641580E-009  0.1265235E+03  0.7561462E-02  0.1232707E+00
         -3   -1    0    0    0  501 -0.00000000000E+00  0.00000000000E+00  0.50239685518E+03  0.50239685518E+03  0.00000000000E+00 0.  1.
          3   -1    0    0  501    0  0.00000000000E+00 -0.00000000000E+00 -0.38804407318E+02  0.38804407318E+02  0.00000000000E+00 0. -1.
         25    2    1    2    0    0  0.15288902629E+02  0.81494087354E+02  0.19381536450E+03  0.24513584109E+03  0.12510854588E+03 0.  0.
          5    1    3    3  502    0  0.11178287080E+02 -0.23331845800E+02  0.10311647682E+03  0.10639459254E+03  0.41800000000E+01 0. -1.
         -5    1    3    3    0  502  0.41106155489E+01  0.10482593315E+03  0.90698887676E+02  0.13874124854E+03  0.41800000000E+01 0. -1.
        -11    1    1    2    0    0  0.20255334666E+02  0.10795599913E+02  0.55955342287E+02  0.60479946184E+02  0.00000000000E+00 0.  1.
         11    1    1    2    0    0 -0.35544237295E+02 -0.92289687267E+02  0.21382174108E+03  0.23558547523E+03  0.00000000000E+00 0. -1.
</event>
<event>
 7    1  0.2641580E-009  0.9162887E+02  0.7561462E-02  0.1298954E+00
         -1   -1    0    0    0  501 -0.00000000000E+00  0.00000000000E+00  0.20039967031E+02  0.20039967031E+02  0.00000000000E+00 0. -1.
          1   -1    0    0  501    0  0.00000000000E+00 -0.00000000000E+00 -0.10286309968E+04  0.10286309968E+04  0.00000000000E+00 0.  1.
         25    2    1    2    0    0  0.12879963431E+02  0.28965504859E+02 -0.84964808014E+03  0.85939193094E+03  0.12509091471E+03 0.  0.
          5    1    3    3  502    0 -0.23141971679E+02  0.50940703083E+02 -0.18326719624E+03  0.19166336035E+03  0.41800000000E+01 0.  1.
         -5    1    3    3    0  502  0.36021935110E+02 -0.21975198224E+02 -0.66638088390E+03  0.66772857059E+03  0.41800000000E+01 0.  1.
        -11    1    1    2    0    0 -0.35665449483E+02  0.12202804273E+02 -0.12682682292E+03  0.13231014977E+03  0.00000000000E+00 0.  1.
         11    1    1    2    0    0  0.22785486052E+02 -0.41168309132E+02 -0.32116126732E+02  0.56968883153E+02  0.00000000000E+00 0. -1.
</event>
<event>
 7    1  0.2641580E-009  0.1147512E+03  0.7561462E-02  0.1252016E+00
         -2   -1    0    0    0  501 -0.00000000000E+00  0.00000000000E+00  0.24994533780E+02  0.24994533780E+02  0.00000000000E+00 0.  1.
          2   -1    0    0  501    0  0.00000000000E+00 -0.00000000000E+00 -0.67214361679E+03  0.67214361679E+03  0.00000000000E+00 0. -1.
         25    2    1    2    0    0 -0.26731046087E+02 -0.63979502367E+02 -0.42378612016E+03  0.44727075344E+03  0.12509406738E+03 0.  0.
          5    1    3    3  502    0  0.13676912203E+02  0.20575996015E+02 -0.23631028624E+03  0.23763512645E+03  0.41800000000E+01 0.  1.
         -5    1    3    3    0  502 -0.40407958289E+02 -0.84555498382E+02 -0.18747583392E+03  0.20963562699E+03  0.41800000000E+01 0.  1.
        -11    1    1    2    0    0  0.42545103733E+02 -0.21922037651E+01 -0.10551295134E+03  0.11378872751E+03  0.00000000000E+00 0. -1.
         11    1    1    2    0    0 -0.15814057646E+02  0.66171706132E+02 -0.11785001151E+03  0.13607866962E+03  0.00000000000E+00 0.  1.
</event>
<event>
 7    1  0.2641580E-009  0.1338383E+03  0.7561462E-02  0.1221869E+00
          1   -1    0    0  501    0  0.00000000000E+00  0.00000000000E+00  0.70943872859E+03  0.70943872859E+03  0.00000000000E+00 0. -1.
         -1   -1    0    0    0  501 -0.00000000000E+00 -0.00000000000E+00 -0.39800217294E+02  0.39800217294E+02  0.00000000000E+00 0.  1.
         25    2    1    2    0    0 -0.40929949991E+02  0.95104350577E+02  0.52615335160E+03  0.55064079168E+03  0.12509130165E+03 0.  0.
          5    1    3    3  502    0 -0.47337134591E+02  0.12078906187E+03  0.36771976941E+03  0.38995653988E+03  0.41800000000E+01 0.  1.
         -5    1    3    3    0  502  0.64071846005E+01 -0.25684711298E+02  0.15843358219E+03  0.16068425179E+03  0.41800000000E+01 0.  1.
        -11    1    1    2    0    0 -0.14878018079E+01 -0.46667453447E+02  0.12215149424E+03  0.13077099185E+03  0.00000000000E+00 0. -1.
         11    1    1    2    0    0  0.42417751799E+02 -0.48436897129E+02  0.21333665452E+02  0.67827162352E+02  0.00000000000E+00 0.  1.
</event>
<event>
 7    1  0.2641580E-009  0.2602116E+03  0.7561462E-02  0.1107016E+00
         -2   -1    0    0    0  501 -0.00000000000E+00  0.00000000000E+00  0.40523125772E+02  0.40523125772E+02  0.00000000000E+00 0.  1.
          2   -1    0    0  501    0  0.00000000000E+00 -0.00000000000E+00 -0.21116561309E+04  0.21116561309E+04  0.00000000000E+00 0. -1.
         25    2    1    2    0    0 -0.98688381338E+02  0.22712854264E+03 -0.14659205968E+04  0.14919444419E+04  0.12509296520E+03 0.  0.
          5    1    3    3  502    0 -0.78994685095E+02  0.48012813780E+02 -0.63437232638E+03  0.64108588460E+03  0.41800000000E+01 0. -1.
         -5    1    3    3    0  502 -0.19693696243E+02  0.17911572886E+03 -0.83154827046E+03  0.85085855729E+03  0.41800000000E+01 0. -1.
        -11    1    1    2    0    0  0.46900466464E+02 -0.10690680963E+03 -0.17355085251E+03  0.20916170325E+03  0.00000000000E+00 0.  1.
         11    1    1    2    0    0  0.51787914874E+02 -0.12022173301E+03 -0.43166155578E+03  0.45107311154E+03  0.00000000000E+00 0. -1.
</event>
<event>
 7    1  0.2641580E-009  0.9458570E+02  0.7561462E-02  0.1292112E+00
          3   -1    0    0  501    0  0.00000000000E+00  0.00000000000E+00  0.21248630110E+03  0.21248630110E+03  0.00000000000E+00 0. -1.
         -3   -1    0    0    0  501 -0.00000000000E+00 -0.00000000000E+00 -0.65204416883E+02  0.65204416883E+02  0.00000000000E+00 0.  1.
         25    2    1    2    0    0 -0.12875393327E+02  0.42748898530E+02  0.92682009730E+02  0.16195684916E+03  0.12508725748E+03 0.  0.
          5    1    3    3  502    0 -0.12801811502E+01 -0.43770922165E+02  0.20144819735E+02  0.48382007535E+02  0.41800000000E+01 0. -1.
         -5    1    3    3    0  502 -0.11595212177E+02  0.86519820695E+02  0.72537189996E+02  0.11357484163E+03  0.41800000000E+01 0. -1.
        -11    1    1    2    0    0  0.15493087476E+02 -0.54326466892E+00 -0.22779201530E+02  0.27554000043E+02  0.00000000000E+00 0.  1.
         11    1    1    2    0    0 -0.26176941494E+01 -0.42205633861E+02  0.77379076020E+02  0.88179868780E+02  0.00000000000E+00 0. -1.
</event>
<event>
 7    1  0.2641580E-009  0.1063253E+03  0.7561462E-02  0.1267530E+00
          1   -1    0    0  501    0  0.00000000000E+00  0.00000000000E+00  0.52581225964E+03  0.52581225964E+03  0.00000000000E+00 0. -1.
         -1   -1    0    0    0  501 -0.00000000000E+00 -0.00000000000E+00 -0.43523706438E+02  0.43523706438E+02  0.00000000000E+00 0.  1.
         25    2    1    2    0    0  0.74499626142E+02 -0.29234583104E+02  0.38807345004E+03  0.41551647360E+03  0.12509229420E+03 0.  0.
          5    1    3    3  502    0  0.89060969934E+02 -0.34002782054E+02  0.38807489065E+03  0.39963438129E+03  0.41800000000E+01 0. -1.
         -5    1    3    3    0  502 -0.14561343791E+02  0.47681989501E+01 -0.14406144958E-02  0.15882092315E+02  0.41800000000E+01 0. -1.
        -11    1    1    2    0    0 -0.23380421171E+02 -0.19705023828E+02  0.74232708853E+02  0.80283417477E+02  0.00000000000E+00 0. -1.
         11    1    1    2    0    0 -0.51119204971E+02  0.48939606931E+02  0.19982394311E+02  0.73536074996E+02  0.00000000000E+00 0.  1.
</event>
<event>
 7    1  0.2641580E-009  0.1391640E+03  0.7561462E-02  0.1214458E+00
         -1   -1    0    0    0  501 -0.00000000000E+00  0.00000000000E+00  0.26514917072E+02  0.26514917072E+02  0.00000000000E+00 0.  1.
          1   -1    0    0  501    0  0.00000000000E+00 -0.00000000000E+00 -0.90742539533E+03  0.90742539533E+03  0.00000000000E+00 0. -1.
         25    2    1    2    0    0  0.72737255905E+02  0.83282500688E+02 -0.53553706638E+03  0.56095875493E+03  0.12509233368E+03 0.  0.
          5    1    3    3  502    0  0.80225042055E+02  0.10450197403E+03 -0.50958549780E+03  0.52635688645E+03  0.41800000000E+01 0. -1.
         -5    1    3    3    0  502 -0.74877861502E+01 -0.21219473338E+02 -0.25951568583E+02  0.34601868476E+02  0.41800000000E+01 0. -1.
        -11    1    1    2    0    0 -0.37638380418E+01 -0.44187099276E+02 -0.48564224718E+02  0.65765873686E+02  0.00000000000E+00 0.  1.
         11    1    1    2    0    0 -0.68973417863E+02 -0.39095401412E+02 -0.29680918716E+03  0.30721568379E+03  0.00000000000E+00 0. -1.
</event>
<event>
 7    1  0.2641580E-009  0.1079785E+03  0.7561462E-02  0.1264360E+00
          1   -1    0    0  501    0  0.00000000000E+00  0.00000000000E+00  0.90477549681E+03  0.90477549681E+03  0.00000000000E+00 0. -1.
         -1   -1    0    0    0  501 -0.00000000000E+00 -0.00000000000E+00 -0.20542759746E+02  0.20542759746E+02  0.00000000000E+00 0.  1.
         25    2    1    2    0    0 -0.53602508446E+02 -0.37385707011E+02  0.66572876421E+03  0.68053171834E+03  0.12513078029E+03 0.  0.
          5    1    3    3  502    0 -0.32007009557E+02  0.30870750731E+02  0.91255346590E+02  0.10159952063E+03  0.41800000000E+01 0. -1.
         -5    1    3    3    0  502 -0.21595498889E+02 -0.68256457742E+02  0.57447341762E+03  0.57893219771E+03  0.41800000000E+01 0. -1.
        -11    1    1    2    0    0  0.28866374273E+01  0.47731694171E+02  0.15843091328E+03  0.16549018577E+03  0.00000000000E+00 0. -1.
         11    1    1    2    0    0  0.50715871018E+02 -0.10345987160E+02  0.60073059574E+02  0.79296352438E+02  0.00000000000E+00 0.  1.
</event>
<event>
 7    1  0.2641580E-009  0.1183862E+03  0.7561462E-02  0.1245783E+00
         -2   -1    0    0    0  501 -0.00000000000E+00  0.00000000000E+00  0.12957973022E+03  0.12957973022E+03  0.00000000000E+00 0.  1.
          2   -1    0    0  501    0  0.00000000000E+00 -0.00000000000E+00 -0.13109064417E+03  0.13109064417E+03  0.00000000000E+00 0. -1.
         25    2    1    2    0    0  0.65082802220E+01 -0.48066360015E+02  0.52671988739E+02  0.14413424177E+03  0.12509040162E+03 0.  0.
          5    1    3    3  502    0 -0.19907651162E+02 -0.85414643590E+02  0.39975721063E+02  0.96475419610E+02  0.41800000000E+01 0.  1.
         -5    1    3    3    0  502  0.26415931384E+02  0.37348283575E+02  0.12696267676E+02  0.47658822161E+02  0.41800000000E+01 0.  1.
        -11    1    1    2    0    0 -0.47468307298E+02  0.38125296845E+02 -0.29002924709E+02  0.67438476399E+02  0.00000000000E+00 0. -1.
         11    1    1    2    0    0  0.40960027077E+02  0.99410631699E+01 -0.25179977987E+02  0.49097656222E+02  0.00000000000E+00 0.  1.
</event>
<event>
 7    1  0.2641580E-009  0.1632437E+03  0.7561462E-02  0.1185083E+00
         -1   -1    0    0    0  501 -0.00000000000E+00  0.00000000000E+00  0.28176440406E+03  0.28176440406E+03  0.00000000000E+00 0.  1.
          1   -1    0    0  501    0  0.00000000000E+00 -0.00000000000E+00 -0.13382119155E+03  0.13382119155E+03  0.00000000000E+00 0. -1.
         25    2    1    2    0    0  0.49784258450E+02  0.13449951517E+03  0.22670101943E+00  0.19030683939E+03  0.12509216504E+03 0.  0.
          5    1    3    3  502    0  0.63913743180E+02  0.70317207458E+02  0.50283979991E+02  0.10758915966E+03  0.41800000000E+01 0.  1.
         -5    1    3    3    0  502 -0.14129484730E+02  0.64182307714E+02 -0.50057278971E+02  0.82717679732E+02  0.41800000000E+01 0.  1.
        -11    1    1    2    0    0  0.22483406580E+02 -0.46492901326E+02  0.23426272950E+02  0.56708762193E+02  0.00000000000E+00 0. -1.
         11    1    1    2    0    0 -0.72267665030E+02 -0.88006613846E+02  0.12429023854E+03  0.16856999403E+03  0.00000000000E+00 0.  1.
</event>
<event>
 7    1  0.2641580E-009  0.1149929E+03  0.7561462E-02  0.1251593E+00
         -2   -1    0    0    0  501 -0.00000000000E+00  0.00000000000E+00  0.19527480454E+02  0.19527480454E+02  0.00000000000E+00 0. -1.
          2   -1    0    0  501    0  0.00000000000E+00 -0.00000000000E+00 -0.10229026884E+04  0.10229026884E+04  0.00000000000E+00 0.  1.
         25    2    1    2    0    0  0.42695973707E+01 -0.46916466761E+02 -0.83026039214E+03  0.84095251084E+03  0.12509765158E+03 0.  0.
          5    1    3    3  502    0  0.42181626983E+02 -0.71418354566E+02 -0.41526217375E+03  0.42348555627E+03  0.41800000000E+01 0. -1.
         -5    1    3    3    0  502 -0.37912029612E+02  0.24501887806E+02 -0.41499821839E+03  0.41746695458E+03  0.41800000000E+01 0. -1.
        -11    1    1    2    0    0  0.33789034337E+02  0.53204732900E+02 -0.12328521019E+03  0.13846185574E+03  0.00000000000E+00 0.  1.
         11    1    1    2    0    0 -0.38058631708E+02 -0.62882661397E+01 -0.49829605597E+02  0.63015802244E+02  0.00000000000E+00 0. -1.
</event>
<event>
 7    1  0.2641580E-009  0.1126595E+03  0.7561462E-02  0.1255723E+00
          4   -1    0    0  501    0  0.00000000000E+00  0.00000000000E+00  0.99691735118E+02  0.99691735118E+02  0.00000000000E+00 0. -1.
         -4   -1    0    0    0  501 -0.00000000000E+00 -0.00000000000E+00 -0.20589396154E+03  0.20589396154E+03  0.00000000000E+00 0.  1.
         25    2    1    2    0    0  0.93783059065E+02  0.17675137396E+02 -0.54375742406E+02  0.16646489334E+03  0.12508463816E+03 0.  0.
          5    1    3    3  502    0  0.10280711112E+03  0.29980621503E+02 -0.81787987508E+02  0.13481426877E+03  0.41800000000E+01 0. -1.
         -5    1    3    3    0  502 -0.90240520552E+01 -0.12305484106E+02  0.27412245102E+02  0.31650624577E+02  0.41800000000E+01 0. -1.
        -11    1    1    2    0    0 -0.47369974060E+01 -0.12228256564E+02  0.20457577748E+02  0.24299833134E+02  0.00000000000E+00 0. -1.
         11    1    1    2    0    0 -0.89046061659E+02 -0.54468808326E+01 -0.72284061762E+02  0.11482097018E+03  0.00000000000E+00 0.  1.
</event>
<event>
 7    1  0.2641580E-009  0.9687394E+02  0.7561462E-02  0.1287010E+00
         -2   -1    0    0    0  501 -0.00000000000E+00  0.00000000000E+00  0.64860828768E+02  0.64860828768E+02  0.00000000000E+00 0.  1.
          2   -1    0    0  501    0  0.00000000000E+00 -0.00000000000E+00 -0.19422567239E+03  0.19422567239E+03  0.00000000000E+00 0. -1.
         25    2    1    2    0    0 -0.13138564368E+02  0.25353717078E+02 -0.68835973409E+02  0.14561111199E+03  0.12509505129E+03 0.  0.
          5    1    3    3  502    0 -0.22330701842E+02  0.61264959746E+02 -0.83065471061E+02  0.10568538414E+03  0.41800000000E+01 0.  1.
         -5    1    3    3    0  502  0.91921374746E+01 -0.35911242668E+02  0.14229497652E+02  0.39925727855E+02  0.41800000000E+01 0.  1.
        -11    1    1    2    0    0 -0.37116180053E+02 -0.13251962702E+02 -0.44306443381E+02  0.59298282119E+02  0.00000000000E+00 0.  1.
         11    1    1    2    0    0  0.50254744421E+02 -0.12101754376E+02 -0.16222426833E+02  0.54177107048E+02  0.00000000000E+00 0. -1.
</event>
<event>
 7    1  0.2641580E-009  0.1106917E+03  0.7561462E-02  0.1259294E+00
          4   -1    0    0  501    0  0.00000000000E+00  0.00000000000E+00  0.87768133917E+02  0.87768133917E+02  0.00000000000E+00 0. -1.
         -4   -1    0    0    0  501 -0.00000000000E+00 -0.00000000000E+00 -0.15613554399E+03  0.15613554399E+03  0.00000000000E+00 0.  1.
         25    2    1    2    0    0  0.46648314932E+02  0.22149869524E+02 -0.36235428223E+02  0.14009664581E+03  0.12508949558E+03 0.  0.
          5    1    3    3  502    0  0.67123941190E+02  0.54873120708E+02  0.27488884213E+00  0.86799947126E+02  0.41800000000E+01 0.  1.
         -5    1    3    3    0  502 -0.20475626258E+02 -0.32723251185E+02 -0.36510317065E+02  0.53296698687E+02  0.41800000000E+01 0.  1.
        -11    1    1    2    0    0 -0.12404639725E+02 -0.50063657937E+02 -0.46710268691E+01  0.51788641850E+02  0.00000000000E+00 0. -1.
         11    1    1    2    0    0 -0.34243675207E+02  0.27913788413E+02 -0.27460954983E+02  0.52018390246E+02  0.00000000000E+00 0.  1.
</event>
<event>
 7    1  0.2641580E-009  0.1507388E+03  0.7561462E-02  0.1199568E+00
         -1   -1    0    0    0  501 -0.00000000000E+00  0.00000000000E+00  0.20847503499E+03  0.20847503499E+03  0.00000000000E+00 0.  1.
          1   -1    0    0  501    0  0.00000000000E+00 -0.00000000000E+00 -0.14970842822E+03  0.14970842822E+03  0.00000000000E+00 0. -1.
         25    2    1    2    0    0 -0.87441868523E+02  0.92278193961E+02 -0.27277450039E+02  0.18042506709E+03  0.12509116717E+03 0.  0.
          5    1    3    3  502    0 -0.27952094443E+01 -0.12819349401E+02  0.30581243647E+02  0.33538541678E+02  0.41800000000E+01 0. -1.
         -5    1    3    3    0  502 -0.84646659078E+02  0.10509754336E+03 -0.57858693686E+02  0.14688652542E+03  0.41800000000E+01 0. -1.
        -11    1    1    2    0    0  0.62612734208E+02 -0.59806634682E+01  0.19038307037E+02  0.65715903367E+02  0.00000000000E+00 0.  1.
         11    1    1    2    0    0  0.24829134315E+02 -0.86297530493E+02  0.67005749764E+02  0.11204249275E+03  0.00000000000E+00 0. -1.
</event>
<event>
 7    1  0.2641580E-009  0.9758079E+02  0.7561462E-02  0.1285467E+00
         -2   -1    0    0    0  501 -0.00000000000E+00  0.00000000000E+00  0.10110367734E+03  0.10110367734E+03  0.00000000000E+00 0. -1.
          2   -1    0    0  501    0  0.00000000000E+00 -0.00000000000E+00 -0.14707291631E+03  0.14707291631E+03  0.00000000000E+00 0.  1.
         25    2    1    2    0    0 -0.35692135924E+02 -0.41532152209E+02 -0.32248878447E+02  0.14031123230E+03  0.12509357903E+03 0.  0.
          5    1    3    3  502    0 -0.34707886031E+02 -0.64383110178E+02 -0.66481112006E+02  0.98929433853E+02  0.41800000000E+01 0.  1.
         -5    1    3    3    0  502 -0.98424989315E+00  0.22850957969E+02  0.34232233560E+02  0.41381798444E+02  0.41800000000E+01 0.  1.
        -11    1    1    2    0    0  0.98620654191E+01  0.63792411826E+02 -0.28673555723E+02  0.70632180617E+02  0.00000000000E+00 0.  1.
         11    1    1    2    0    0  0.25830070505E+02 -0.22260259616E+02  0.14953195203E+02  0.37233180730E+02  0.00000000000E+00 0. -1.
</event>
<event>
 7    1  0.2641580E-009  0.1062902E+03  0.7561462E-02  0.1267598E+00
         -4   -1    0    0    0  501 -0.00000000000E+00  0.00000000000E+00  0.31013571758E+03  0.31013571758E+03  0.00000000000E+00 0.  1.
          4   -1    0    0  501    0  0.00000000000E+00 -0.00000000000E+00 -0.54020625464E+02  0.54020625464E+02  0.00000000000E+00 0. -1.
         25    2    1    2    0    0  0.26892372149E+02  0.61874363090E+02  0.11056148407E+03  0.18006003785E+03  0.12508452736E+03 0.  0.
          5    1    3    3  502    0 -0.46781788887E+02  0.32924107032E+01  0.46143210876E+02  0.65924532988E+02  0.41800000000E+01 0. -1.
         -5    1    3    3    0  502  0.73674161036E+02  0.58581952387E+02  0.64418273194E+02  0.11413550487E+03  0.41800000000E+01 0. -1.
        -11    1    1    2    0    0 -0.24855313970E+02 -0.28394948200E+02  0.14574831263E+03  0.15055440993E+03  0.00000000000E+00 0.  1.
         11    1    1    2    0    0 -0.20370581787E+01 -0.33479414891E+02 -0.19470458538E+00  0.33541895255E+02  0.00000000000E+00 0. -1.
</event>
<event>
 7    1  0.2641580E-009  0.1329127E+03  0.7561462E-02  0.1223197E+00
          1   -1    0    0  501    0  0.00000000000E+00  0.00000000000E+00  0.80553999911E+03  0.80553999911E+03  0.00000000000E+00 0. -1.
         -1   -1    0    0    0  501 -0.00000000000E+00 -0.00000000000E+00 -0.31056399642E+02  0.31056399642E+02  0.00000000000E+00 0.  1.
         25    2    1    2    0    0 -0.26990147457E+02  0.90427228325E+02  0.59114393848E+03  0.61155896121E+03  0.12509058860E+03 0.  0.
          5    1    3    3  502    0 -0.49730976223E+02 -0.12292204946E+02  0.19666663245E+03  0.20327199763E+03  0.41800000000E+01 0.  1.
         -5    1    3    3    0  502  0.22740828766E+02  0.10271943327E+03  0.39447730603E+03  0.40828696358E+03  0.41800000000E+01 0.  1.
        -11    1    1    2    0    0  0.26262675380E+02 -0.90807202812E+01  0.39543410307E+01  0.28068209988E+02  0.00000000000E+00 0.  1.
         11    1    1    2    0    0  0.72747207715E+00 -0.81346508044E+02  0.17938531996E+03  0.19696922756E+03  0.00000000000E+00 0. -1.
</event>
<event>
 7    1  0.2641580E-009  0.1203840E+03  0.7561462E-02  0.1242465E+00
         -2   -1    0    0    0  501 -0.00000000000E+00  0.00000000000E+00  0.86525383805E+02  0.86525383805E+02  0.00000000000E+00 0. -1.
          2   -1    0    0  501    0  0.00000000000E+00 -0.00000000000E+00 -0.28742034767E+03  0.28742034767E+03  0.00000000000E+00 0.  1.
         25    2    1    2    0    0 -0.22113139852E+02  0.67450200600E+02 -0.20708295370E+01  0.14383289458E+03  0.12508034503E+03 0.  0.
          5    1    3    3  502    0  0.32620089451E+02 -0.93130051295E+01 -0.29934240173E+02  0.45434936283E+02  0.41800000000E+01 0.  1.
         -5    1    3    3    0  502 -0.54733229303E+02  0.76763205730E+02  0.27863410636E+02  0.98397958292E+02  0.41800000000E+01 0.  1.
        -11    1    1    2    0    0 -0.15982033724E+02 -0.72090472548E+02 -0.10168266453E+03  0.12566553187E+03  0.00000000000E+00 0.  1.
         11    1    1    2    0    0  0.38095173576E+02  0.46402719480E+01 -0.97141469799E+02  0.10444730503E+03  0.00000000000E+00 0. -1.
</event>
<event>
 7    1  0.2641580E-009  0.1162615E+03  0.7561462E-02  0.1249395E+00
         -2   -1    0    0    0  501 -0.00000000000E+00  0.00000000000E+00  0.39676157173E+02  0.39676157173E+02  0.00000000000E+00 0.  1.
          2   -1    0    0  501    0  0.00000000000E+00 -0.00000000000E+00 -0.85321059850E+03  0.85321059850E+03  0.00000000000E+00 0. -1.
         25    2    1    2    0    0 -0.21347627498E+02  0.84295930017E+02 -0.72148092446E+03  0.73738970759E+03  0.12508929406E+03 0.  0.
          5    1    3    3  502    0 -0.73267483871E+01 -0.15833823921E+02 -0.39903139123E+03  0.39943449377E+03  0.41800000000E+01 0.  1.
         -5    1    3    3    0  502 -0.14020879111E+02  0.10012975394E+03 -0.32244953322E+03  0.33795521382E+03  0.41800000000E+01 0.  1.
        -11    1    1    2    0    0 -0.25250132030E+01 -0.89018340726E+02 -0.95886270993E+02  0.13086182653E+03  0.00000000000E+00 0.  1.
         11    1    1    2    0    0  0.23872640701E+02  0.47224107097E+01  0.38327541195E+01  0.24635221556E+02  0.00000000000E+00 0. -1.
</event>
<event>
 7    1  0.2641580E-009  0.8210978E+02  0.7561462E-02  0.1323169E+00
         -1   -1    0    0    0  501 -0.00000000000E+00  0.00000000000E+00  0.10846259397E+03  0.10846259397E+03  0.00000000000E+00 0.  1.
          1   -1    0    0  501    0  0.00000000000E+00 -0.00000000000E+00 -0.17538215084E+03  0.17538215084E+03  0.00000000000E+00 0. -1.
         25    2    1    2    0    0 -0.35265273195E+01 -0.38083293842E+02  0.39567657886E+02  0.13665607910E+03  0.12508601337E+03 0.  0.
          5    1    3    3  502    0  0.25389886289E+02 -0.39841108390E+02  0.76207240479E+02  0.89760660341E+02  0.41800000000E+01 0.  1.
         -5    1    3    3    0  502 -0.28916413609E+02  0.17578145484E+01 -0.36639582593E+02  0.46895418759E+02  0.41800000000E+01 0.  1.
        -11    1    1    2    0    0 -0.95254263450E+01  0.60681712284E+02 -0.34131631809E+02  0.70270706861E+02  0.00000000000E+00 0.  1.
         11    1    1    2    0    0  0.13051953665E+02 -0.22598418443E+02 -0.72355582945E+02  0.76917958851E+02  0.00000000000E+00 0. -1.
</event>
<event>
 7    1  0.2641580E-009  0.6140546E+02  0.7561462E-02  0.1392027E+00
         -2   -1    0    0    0  501 -0.00000000000E+00  0.00000000000E+00  0.54022878033E+02  0.54022878033E+02  0.00000000000E+00 0.  1.
          2   -1    0    0  501    0  0.00000000000E+00 -0.00000000000E+00 -0.26906186433E+03  0.26906186433E+03  0.00000000000E+00 0. -1.
         25    2    1    2    0    0  0.12215192377E+02  0.77854122647E+01 -0.53779300191E+02  0.13692831093E+03  0.12508927067E+03 0.  0.
          5    1    3    3  502    0 -0.54347602943E+01 -0.11777487462E+02  0.38515439535E+02  0.40855321721E+02  0.41800000000E+01 0.  1.
         -5    1    3    3    0  502  0.17649952671E+02  0.19562899727E+02 -0.92294739726E+02  0.96072989212E+02  0.41800000000E+01 0.  1.
        -11    1    1    2    0    0  0.27915917145E+02  0.19433745667E+02 -0.27061325534E+02  0.43465897441E+02  0.00000000000E+00 0.  1.
         11    1    1    2    0    0 -0.40131109522E+02 -0.27219157931E+02 -0.13419836057E+03  0.14269053398E+03  0.00000000000E+00 0. -1.
</event>
<event>
 7    1  0.2641580E-009  0.2192552E+03  0.7561462E-02  0.1134440E+00
         -1   -1    0    0    0  501 -0.00000000000E+00  0.00000000000E+00  0.12192802823E+03  0.12192802823E+03  0.00000000000E+00 0.  1.
          1   -1    0    0  501    0  0.00000000000E+00 -0.00000000000E+00 -0.50523231249E+03  0.50523231249E+03  0.00000000000E+00 0. -1.
         25    2    1    2    0    0  0.59360054825E+02  0.19267251149E+03 -0.31791328111E+03  0.39669155675E+03  0.12509605948E+03 0.  0.
          5    1    3    3  502    0  0.87568423659E+02  0.74668880588E+02 -0.13946951014E+03  0.18086704291E+03  0.41800000000E+01 0.  1.
         -5    1    3    3    0  502 -0.28208368834E+02  0.11800363091E+03 -0.17844377097E+03  0.21582451385E+03  0.41800000000E+01 0.  1.
        -11    1    1    2    0    0 -0.51244144570E+02 -0.17746417528E+03 -0.24803857318E+02  0.18637254948E+03  0.00000000000E+00 0. -1.
         11    1    1    2    0    0 -0.81159102556E+01 -0.15208336211E+02 -0.40587145831E+02  0.44096234491E+02  0.00000000000E+00 0.  1.
</event>
<event>
 7    1  0.2641580E-009  0.1236773E+03  0.7561462E-02  0.1237151E+00
          2   -1    0    0  501    0  0.00000000000E+00  0.00000000000E+00  0.24549318400E+03  0.24549318400E+03  0.00000000000E+00 0. -1.
         -2   -1    0    0    0  501 -0.00000000000E+00 -0.00000000000E+00 -0.90317732114E+02  0.90317732114E+02  0.00000000000E+00 0.  1.
         25    2    1    2    0    0 -0.83364202805E+02  0.46023620112E+02  0.77541959414E+02  0.17529512819E+03  0.12509141689E+03 0.  0.
          5    1    3    3  502    0  0.62481949577E+00 -0.23874299934E+02  0.59783475412E+02  0.64512858633E+02  0.41800000000E+01 0.  1.
         -5    1    3    3    0  502 -0.83989022301E+02  0.69897920047E+02  0.17758484002E+02  0.11078226956E+03  0.41800000000E+01 0.  1.
        -11    1    1    2    0    0  0.90745199129E+02 -0.29101056063E+02  0.16576012431E+02  0.96728107689E+02  0.00000000000E+00 0.  1.
         11    1    1    2    0    0 -0.73809963245E+01 -0.16922564049E+02  0.61057480037E+02  0.63787680231E+02  0.00000000000E+00 0. -1.
</event>
<event>
 7    1  0.2641580E-009  0.1304950E+03  0.7561462E-02  0.1226723E+00
         -1   -1    0    0    0  501 -0.00000000000E+00  0.00000000000E+00  0.26494288789E+02  0.26494288789E+02  0.00000000000E+00 0.  1.
          1   -1    0    0  501    0  0.00000000000E+00 -0.00000000000E+00 -0.97569679941E+03  0.97569679941E+03  0.00000000000E+00 0. -1.
         25    2    1    2    0    0 -0.63442185584E+02  0.57250803893E+02 -0.76784379234E+03  0.78264582379E+03  0.12509128913E+03 0.  0.
          5    1    3    3  502    0 -0.91644596639E+02  0.74475182196E+02 -0.60422841977E+03  0.61567421621E+03  0.41800000000E+01 0. -1.
         -5    1    3    3    0  502  0.28202411055E+02 -0.17224378303E+02 -0.16361537257E+03  0.16697160758E+03  0.41800000000E+01 0.  1.
        -11    1    1    2    0    0  0.56601370199E+01 -0.51094810330E+02 -0.35323635577E+02  0.62373680540E+02  0.00000000000E+00 0.  1.
         11    1    1    2    0    0  0.57782048564E+02 -0.61559935630E+01 -0.14603508271E+03  0.15717158387E+03  0.00000000000E+00 0. -1.
</event>
<event>
 7    1  0.2641580E-009  0.1146825E+03  0.7561462E-02  0.1252136E+00
          3   -1    0    0  501    0  0.00000000000E+00  0.00000000000E+00  0.62653129344E+02  0.62653129344E+02  0.00000000000E+00 0. -1.
         -3   -1    0    0    0  501 -0.00000000000E+00 -0.00000000000E+00 -0.35594092323E+03  0.35594092323E+03  0.00000000000E+00 0.  1.
         25    2    1    2    0    0 -0.73204131146E+01 -0.92580527711E+02 -0.97028425253E+02  0.18353541596E+03  0.12508393601E+03 0.  0.
          5    1    3    3  502    0  0.28561659170E+02 -0.23842925405E+01  0.17111507339E+02  0.33641184713E+02  0.41800000000E+01 0.  1.
         -5    1    3    3    0  502 -0.35882072284E+02 -0.90196235171E+02 -0.11413993259E+03  0.14989423125E+03  0.41800000000E+01 0.  1.
        -11    1    1    2    0    0 -0.14115692755E+02  0.72518914801E+02 -0.19157597142E+03  0.20532802685E+03  0.00000000000E+00 0.  1.
         11    1    1    2    0    0  0.21436105870E+02  0.20061612911E+02 -0.46833972213E+01  0.29730609764E+02  0.00000000000E+00 0. -1.
</event>
<event>
 7    1  0.2641580E-009  0.2368210E+03  0.7561462E-02  0.1121929E+00
          2   -1    0    0  501    0  0.00000000000E+00  0.00000000000E+00  0.42152709225E+03  0.42152709225E+03  0.00000000000E+00 0. -1.
         -2   -1    0    0    0  501 -0.00000000000E+00 -0.00000000000E+00 -0.14990674605E+03  0.14990674605E+03  0.00000000000E+00 0.  1.
         25    2    1    2    0    0  0.20603045803E+03  0.86020297978E+02  0.10155483075E+03  0.27533403672E+03  0.12508959520E+03 0.  0.
          5    1    3    3  502    0 -0.12250542710E+02  0.10310869239E+02  0.28551294590E+02  0.33000585509E+02  0.41800000000E+01 0. -1.
         -5    1    3    3    0  502  0.21828100074E+03  0.75709428739E+02  0.73003536162E+02  0.24233345121E+03  0.41800000000E+01 0. -1.
        -11    1    1    2    0    0 -0.74834156068E+02 -0.13273300576E+02  0.98880521062E+01  0.76642710006E+02  0.00000000000E+00 0.  1.
         11    1    1    2    0    0 -0.13119630196E+03 -0.72746997402E+02  0.16017746333E+03  0.21945709157E+03  0.00000000000E+00 0. -1.
</event>
<event>
 6    1  0.2641580E-009  0.1136029E+03  0.7561462E-02  0.1254040E+00
          1   -1    0    0  501    0  0.00000000000E+00  0.00000000000E+00  0.38271659480E+02  0.38271659480E+02  0.00000000000E+00 0. -1.
         -1   -1    0    0    0  501 -0.00000000000E+00 -0.00000000000E+00 -0.40679677483E+03  0.40679677483E+03  0.00000000000E+00 0.  1.
          5    1    1    2  502    0 -0.59099041875E+02 -0.76003291767E+02 -0.11553710870E+03  0.15045096542E+03  0.41800000000E+01 0. -1.
         -5    1    1    2    0  502  0.37337373816E+02  0.17632673180E+02 -0.80387396587E+02  0.90468760227E+02  0.41800000000E+01 0. -1.
        -11    1    1    2    0    0  0.33268296246E+02  0.37067831478E+01 -0.14518868896E+02  0.36487221468E+02  0.00000000000E+00 0. -1.
         11    1    1    2    0    0 -0.11506628188E+02  0.54663835439E+02 -0.15808174117E+03  0.16766148720E+03  0.00000000000E+00 0.  1.
</event>
<event>
 7    1  0.2641580E-009  0.1088768E+03  0.7561462E-02  0.1262664E+00
          2   -1    0    0  501    0  0.00000000000E+00  0.00000000000E+00  0.51024506426E+03  0.51024506426E+03  0.00000000000E+00 0. -1.
         -2   -1    0    0    0  501 -0.00000000000E+00 -0.00000000000E+00 -0.27699036749E+02  0.27699036749E+02  0.00000000000E+00 0.  1.
         25    2    1    2    0    0 -0.57113327955E+00  0.54708463634E+02  0.31364811320E+03  0.34207752347E+03  0.12509416837E+03 0.  0.
          5    1    3    3  502    0 -0.58784671701E+02  0.39087813755E+02  0.21567774940E+03  0.22697545858E+03  0.41800000000E+01 0.  1.
         -5    1    3    3    0  502  0.58213538421E+02  0.15620649879E+02  0.97970363800E+02  0.11510206489E+03  0.41800000000E+01 0.  1.
        -11    1    1    2    0    0 -0.21210442330E+02 -0.60474826236E+02  0.15866689662E+03  0.17112063451E+03  0.00000000000E+00 0. -1.
         11    1    1    2    0    0  0.21781575610E+02  0.57663626023E+01  0.10231017697E+02  0.24745943038E+02  0.00000000000E+00 0.  1.
</event>
<event>
 7    1  0.2641580E-009  0.9568338E+02  0.7561462E-02  0.1289644E+00
          1   -1    0    0  501    0  0.00000000000E+00  0.00000000000E+00  0.17610869790E+03  0.17610869790E+03  0.00000000000E+00 0. -1.
         -1   -1    0    0    0  501 -0.00000000000E+00 -0.00000000000E+00 -0.10385222112E+03  0.10385222112E+03  0.00000000000E+00 0.  1.
         25    2    1    2    0    0  0.34211306963E+02  0.54856574015E+02 -0.93195722965E+01  0.14111301632E+03  0.12508545763E+03 0.  0.
          5    1    3    3  502    0 -0.24782585561E+02  0.38436370938E+01  0.40971527829E+02  0.48219172389E+02  0.41800000000E+01 0. -1.
         -5    1    3    3    0  502  0.58993892524E+02  0.51012936921E+02 -0.50291100126E+02  0.92893843931E+02  0.41800000000E+01 0. -1.
        -11    1    1    2    0    0 -0.14472467721E+01 -0.55055286933E+02  0.46923658052E+01  0.55273840461E+02  0.00000000000E+00 0.  1.
         11    1    1    2    0    0 -0.32764060191E+02  0.19871291807E+00  0.76883683263E+02  0.83574062239E+02  0.00000000000E+00 0. -1.
</event>
<event>
 7    1  0.2641580E-009  0.1205483E+03  0.7561462E-02  0.1242195E+00
         -2   -1    0    0    0  501 -0.00000000000E+00  0.00000000000E+00  0.67882462981E+02  0.67882462981E+02  0.00000000000E+00 0.  1.
          2   -1    0    0  501    0  0.00000000000E+00 -0.00000000000E+00 -0.28808533511E+03  0.28808533511E+03  0.00000000000E+00 0. -1.
         25    2    1    2    0    0  0.88823879955E+02  0.17389048569E+02 -0.13111189087E+03  0.20254141292E+03  0.12506252581E+03 0.  0.
          5    1    3    3  502    0  0.26554080332E+02 -0.43757985617E+02 -0.86079794844E+01  0.52071587246E+02  0.41800000000E+01 0. -1.
         -5    1    3    3    0  502  0.62269799624E+02  0.61147034186E+02 -0.12250391138E+03  0.15046982568E+03  0.41800000000E+01 0. -1.
        -11    1    1    2    0    0 -0.35458241904E+01  0.11731632671E+02  0.12583765133E+02  0.17565739929E+02  0.00000000000E+00 0.  1.
         11    1    1    2    0    0 -0.85278055765E+02 -0.29120681240E+02 -0.10167474640E+03  0.13586064524E+03  0.00000000000E+00 0. -1.
</event>
<event>
 7    1  0.2641580E-009  0.4348999E+03  0.7561462E-02  0.1032323E+00
         -2   -1    0    0    0  501 -0.00000000000E+00  0.00000000000E+00  0.10461795301E+03  0.10461795301E+03  0.00000000000E+00 0.  1.
          2   -1    0    0  501    0  0.00000000000E+00 -0.00000000000E+00 -0.20366868096E+04  0.20366868096E+04  0.00000000000E+00 0. -1.
         25    2    1    2    0    0 -0.38085738675E+03 -0.20220558488E+03 -0.12628550485E+04  0.13402947659E+04  0.12509092097E+03 0.  0.
          5    1    3    3  502    0 -0.26198574272E+02 -0.32220682730E+02 -0.49301876353E+02  0.64596324209E+02  0.41800000000E+01 0. -1.
         -5    1    3    3    0  502 -0.35465881248E+03 -0.16998490215E+03 -0.12135531721E+04  0.12756984417E+04  0.41800000000E+01 0. -1.
        -11    1    1    2    0    0  0.27081942769E+03  0.11447885523E+03 -0.50855148496E+03  0.58742930090E+03  0.00000000000E+00 0.  1.
         11    1    1    2    0    0  0.11003795907E+03  0.87726729648E+02 -0.16066232316E+03  0.21358069579E+03  0.00000000000E+00 0. -1.
</event>
<event>
 7    1  0.2641580E-009  0.3961355E+03  0.7561462E-02  0.1045126E+00
          2   -1    0    0  501    0  0.00000000000E+00  0.00000000000E+00  0.66542460975E+03  0.66542460975E+03  0.00000000000E+00 0. -1.
         -2   -1    0    0    0  501 -0.00000000000E+00 -0.00000000000E+00 -0.24525547700E+03  0.24525547700E+03  0.00000000000E+00 0.  1.
         25    2    1    2    0    0 -0.57675255196E+02  0.38358212934E+03  0.17891522087E+03  0.44510631861E+03  0.12508914262E+03 0.  0.
          5    1    3    3  502    0 -0.87324139193E+02  0.33591521581E+03  0.17488038671E+03  0.38867101712E+03  0.41800000000E+01 0. -1.
         -5    1    3    3    0  502  0.29648883996E+02  0.47666913531E+02  0.40348341634E+01  0.56435301492E+02  0.41800000000E+01 0. -1.
        -11    1    1    2    0    0  0.52586106514E+02 -0.26409348791E+03  0.11852391844E+03  0.29420840946E+03  0.00000000000E+00 0.  1.
         11    1    1    2    0    0  0.50891486819E+01 -0.11948864143E+03  0.12272999344E+03  0.17136535868E+03  0.00000000000E+00 0. -1.
</event>
<event>
 7    1  0.2641580E-009  0.1203725E+03  0.7561462E-02  0.1242484E+00
         -1   -1    0    0    0  501 -0.00000000000E+00  0.00000000000E+00  0.64387704984E+02  0.64387704984E+02  0.00000000000E+00 0.  1.
          1   -1    0    0  501    0  0.00000000000E+00 -0.00000000000E+00 -0.26414306859E+03  0.26414306859E+03  0.00000000000E+00 0. -1.
         25    2    1    2    0    0 -0.55050469169E+02  0.30426425148E+02 -0.56969100938E+02  0.15115866064E+03  0.12508853154E+03 0.  0.
          5    1    3    3  502    0 -0.83745119267E+02 -0.13115435164E+02 -0.49677128496E+02  0.98338950250E+02  0.41800000000E+01 0.  1.
         -5    1    3    3    0  502  0.28694650098E+02  0.43541860312E+02 -0.72919724422E+01  0.52819710391E+02  0.41800000000E+01 0.  1.
        -11    1    1    2    0    0 -0.15766178150E+02  0.13048379237E+02 -0.16941735280E+02  0.26567931204E+02  0.00000000000E+00 0.  1.
         11    1    1    2    0    0  0.70816647319E+02 -0.43474804385E+02 -0.12584452739E+03  0.15080418173E+03  0.00000000000E+00 0. -1.
</event>
<event>
 7    1  0.2641580E-009  0.1070470E+03  0.7561462E-02  0.1266138E+00
          1   -1    0    0  501    0  0.00000000000E+00  0.00000000000E+00  0.24411630880E+03  0.24411630880E+03  0.00000000000E+00 0. -1.
         -1   -1    0    0    0  501 -0.00000000000E+00 -0.00000000000E+00 -0.89846060291E+02  0.89846060291E+02  0.00000000000E+00 0.  1.
         25    2    1    2    0    0 -0.76246949371E+02 -0.41041924496E+00  0.30192068119E+02  0.14956782287E+03  0.12508080160E+03 0.  0.
          5    1    3    3  502    0  0.17748845504E+02  0.10128935169E+02  0.48807569901E+02  0.53077943857E+02  0.41800000000E+01 0.  1.
         -5    1    3    3    0  502 -0.93995794875E+02 -0.10539354414E+02 -0.18615501782E+02  0.96489879015E+02  0.41800000000E+01 0.  1.
        -11    1    1    2    0    0  0.41438202397E+02  0.31370079574E+02  0.12156012928E+00  0.51973274741E+02  0.00000000000E+00 0.  1.
         11    1    1    2    0    0  0.34808746974E+02 -0.30959660329E+02  0.12395662026E+03  0.13242127148E+03  0.00000000000E+00 0. -1.
</event>
<event>
 7    1  0.2641580E-009  0.9141092E+02  0.7561462E-02  0.1299470E+00
         -1   -1    0    0    0  501 -0.00000000000E+00  0.00000000000E+00  0.19806083754E+03  0.19806083754E+03  0.00000000000E+00 0.  1.
          1   -1    0    0  501    0  0.00000000000E+00 -0.00000000000E+00 -0.76068433120E+02  0.76068433120E+02  0.00000000000E+00 0. -1.
         25    2    1    2    0    0  0.25908260363E+02  0.20512457204E+02  0.11962969303E+03  0.17621293861E+03  0.12509091663E+03 0.  0.
          5    1    3    3  502    0  0.22683845409E+02 -0.28476614703E+02 -0.96216458939E+01  0.37888294990E+02  0.41800000000E+01 0.  1.
         -5    1    3    3    0  502  0.32244149531E+01  0.48989071907E+02  0.12925133892E+03  0.13832464362E+03  0.41800000000E+01 0.  1.
        -11    1    1    2    0    0 -0.14781193181E+02  0.36204049517E+02 -0.58420650307E+01  0.39539178002E+02  0.00000000000E+00 0. -1.
         11    1    1    2    0    0 -0.11127067182E+02 -0.56716506721E+02  0.82047764177E+01  0.58377154048E+02  0.00000000000E+00 0.  1.
</event>
<event>
 7    1  0.2641580E-009  0.1567543E+03  0.7561462E-02  0.1192411E+00
          3   -1    0    0  501    0  0.00000000000E+00  0.00000000000E+00  0.72524878911E+02  0.72524878911E+02  0.00000000000E+00 0.  1.
         -3   -1    0    0    0  501 -0.00000000000E+00 -0.00000000000E+00 -0.71605167044E+03  0.71605167044E+03  0.00000000000E+00 0. -1.
         25    2    1    2    0    0  0.54597754423E+02  0.13147580181E+03 -0.57553902224E+03  0.60593767235E+03  0.12509394631E+03 0.  0.
          5    1    3    3  502    0  0.96445495809E+01  0.49023364070E+02 -0.45750788403E+02  0.67874255803E+02  0.41800000000E+01 0.  1.
         -5    1    3    3    0  502  0.44953204843E+02  0.82452437736E+02 -0.52978823384E+03  0.53806341655E+03  0.41800000000E+01 0.  1.
        -11    1    1    2    0    0 -0.16419613851E+02  0.12359652699E+02 -0.10765994654E+02  0.23200676170E+02  0.00000000000E+00 0. -1.
         11    1    1    2    0    0 -0.38178140572E+02 -0.14383545450E+03 -0.57221774628E+02  0.15943820082E+03  0.00000000000E+00 0.  1.
</event>
<event>
 7    1  0.2641580E-009  0.3018599E+03  0.7561462E-02  0.1084315E+00
         -2   -1    0    0    0  501 -0.00000000000E+00  0.00000000000E+00  0.47369997910E+02  0.47369997910E+02  0.00000000000E+00 0.  1.
          2   -1    0    0  501    0  0.00000000000E+00 -0.00000000000E+00 -0.20894580321E+04  0.20894580321E+04  0.00000000000E+00 0. -1.
         25    2    1    2    0    0  0.69358776252E+02 -0.28669397721E+03 -0.10172218327E+04  0.10664865256E+04  0.12509666639E+03 0.  0.
          5    1    3    3  502    0  0.12563347987E+02 -0.21679566088E+03 -0.56386064637E+03  0.60424704982E+03  0.41800000000E+01 0. -1.
         -5    1    3    3    0  502  0.56795428265E+02 -0.69898316333E+02 -0.45336118629E+03  0.46223947574E+03  0.41800000000E+01 0. -1.
        -11    1    1    2    0    0 -0.43494829925E+02  0.11934758717E+03 -0.29675308099E+03  0.32279720858E+03  0.00000000000E+00 0.  1.
         11    1    1    2    0    0 -0.25863946326E+02  0.16734639004E+03 -0.72811312051E+03  0.74754429584E+03  0.00000000000E+00 0. -1.
</event>
<event>
 7    1  0.2641580E-009  0.1022651E+03  0.7561462E-02  0.1275604E+00
         -3   -1    0    0    0  501 -0.00000000000E+00  0.00000000000E+00  0.38661430947E+03  0.38661430947E+03  0.00000000000E+00 0.  1.
          3   -1    0    0  501    0  0.00000000000E+00 -0.00000000000E+00 -0.49563598255E+02  0.49563598255E+02  0.00000000000E+00 0. -1.
         25    2    1    2    0    0 -0.33397492081E+02 -0.29815934315E+02  0.68455043195E+02  0.14945945256E+03  0.12509057759E+03 0.  0.
          5    1    3    3  502    0 -0.21004295716E+02 -0.75745273896E+02  0.19551424958E+02  0.81106458275E+02  0.41800000000E+01 0.  1.
         -5    1    3    3    0  502 -0.12393196365E+02  0.45929339581E+02  0.48903618237E+02  0.68352994281E+02  0.41800000000E+01 0.  1.
        -11    1    1    2    0    0  0.52671981523E+02  0.19247913360E+02  0.25450110796E+03  0.26060628112E+03  0.00000000000E+00 0.  1.
         11    1    1    2    0    0 -0.19274489442E+02  0.10568020955E+02  0.14094560054E+02  0.26112174044E+02  0.00000000000E+00 0. -1.
</event>
<event>
 7    1  0.2641580E-009  0.1340971E+03  0.7561462E-02  0.1221500E+00
         -2   -1    0    0    0  501 -0.00000000000E+00  0.00000000000E+00  0.10531802058E+03  0.10531802058E+03  0.00000000000E+00 0.  1.
          2   -1    0    0  501    0  0.00000000000E+00 -0.00000000000E+00 -0.24618029972E+03  0.24618029972E+03  0.00000000000E+00 0. -1.
         25    2    1    2    0    0 -0.69146343257E+02  0.95500658527E+02 -0.56870585048E+02  0.18106022036E+03  0.12508775874E+03 0.  0.
          5    1    3    3  502    0  0.24131402255E+01  0.62078992946E+02 -0.77411719063E+02  0.99346219149E+02  0.41800000000E+01 0.  1.
         -5    1    3    3    0  502 -0.71559483483E+02  0.33421665582E+02  0.20541134015E+02  0.81714001207E+02  0.41800000000E+01 0.  1.
        -11    1    1    2    0    0  0.18299651343E+02  0.38604080095E+00  0.14904542601E+02  0.23604483831E+02  0.00000000000E+00 0.  1.
         11    1    1    2    0    0  0.50846691915E+02 -0.95886699328E+02 -0.98896236696E+02  0.14683361611E+03  0.00000000000E+00 0. -1.
</event>
<event>
 7    1  0.2641580E-009  0.1178646E+03  0.7561462E-02  0.1246662E+00
         -1   -1    0    0    0  501 -0.00000000000E+00  0.00000000000E+00  0.26975327947E+03  0.26975327947E+03  0.00000000000E+00 0.  1.
          1   -1    0    0  501    0  0.00000000000E+00 -0.00000000000E+00 -0.80607849873E+02  0.80607849873E+02  0.00000000000E+00 0. -1.
         25    2    1    2    0    0  0.78166214454E+02 -0.60917952877E+02  0.80159576479E+02  0.17858915193E+03  0.12509026109E+03 0.  0.
          5    1    3    3  502    0  0.29612644887E+02  0.50909277938E+00 -0.30661247698E+02  0.42834010122E+02  0.41800000000E+01 0.  1.
         -5    1    3    3    0  502  0.48553569567E+02 -0.61427045656E+02  0.11082082418E+03  0.13575514181E+03  0.41800000000E+01 0.  1.
        -11    1    1    2    0    0 -0.73519179159E+02  0.76256328149E+01  0.38662982668E+02  0.83414903997E+02  0.00000000000E+00 0. -1.
         11    1    1    2    0    0 -0.46470352953E+01  0.53292320062E+02  0.70322870454E+02  0.88357073421E+02  0.00000000000E+00 0.  1.
</event>
<event>
 7    1  0.2641580E-009  0.9579587E+02  0.7561462E-02  0.1289394E+00
          2   -1    0    0  501    0  0.00000000000E+00  0.00000000000E+00  0.13150313344E+03  0.13150313344E+03  0.00000000000E+00 0. -1.
         -2   -1    0    0    0  501 -0.00000000000E+00 -0.00000000000E+00 -0.11031981653E+03  0.11031981653E+03  0.00000000000E+00 0.  1.
         25    2    1    2    0    0  0.37724712283E+02 -0.20538111826E+02 -0.17041645718E+02  0.13335352106E+03  0.12509107057E+03 0.  0.
          5    1    3    3  502    0  0.82485777033E+02 -0.68616645169E+01  0.13638042928E+01  0.82887382724E+02  0.41800000000E+01 0. -1.
         -5    1    3    3    0  502 -0.44761064750E+02 -0.13676447310E+02 -0.18405450010E+02  0.50466138337E+02  0.41800000000E+01 0. -1.
        -11    1    1    2    0    0 -0.10065711904E+02 -0.14146977484E+02 -0.25483858754E+02  0.30836384111E+02  0.00000000000E+00 0.  1.
         11    1    1    2    0    0 -0.27659000379E+02  0.34685089310E+02  0.63708821384E+02  0.77633044798E+02  0.00000000000E+00 0. -1.
</event>
<event>
 7    1  0.2641580E-009  0.2606153E+03  0.7561462E-02  0.1106774E+00
         -1   -1    0    0    0  501 -0.00000000000E+00  0.00000000000E+00  0.26734936040E+03  0.26734936040E+03  0.00000000000E+00 0.  1.
          1   -1    0    0  501    0  0.00000000000E+00 -0.00000000000E+00 -0.33575366666E+03  0.33575366666E+03  0.00000000000E+00 0. -1.
         25    2    1    2    0    0 -0.24119297329E+03  0.18019830033E+01  0.10461851373E+03  0.29115266721E+03  0.12509014630E+03 0.  0.
          5    1    3    3  502    0 -0.24676041898E+03  0.21742725624E+02  0.83916399313E+02  0.26157768439E+03  0.41800000000E+01 0. -1.
         -5    1    3    3    0  502  0.55674456935E+01 -0.19940742621E+02  0.20702114420E+02  0.29574982828E+02  0.41800000000E+01 0. -1.
        -11    1    1    2    0    0  0.16738788582E+03  0.33239879713E+02 -0.14963469890E+03  0.22696725984E+03  0.00000000000E+00 0. -1.
         11    1    1    2    0    0  0.73805087469E+02 -0.35041862716E+02 -0.23388121089E+02  0.84983100008E+02  0.00000000000E+00 0.  1.
</event>
<event>
 7    1  0.2641580E-009  0.1357833E+03  0.7561462E-02  0.1219118E+00
          2   -1    0    0  501    0  0.00000000000E+00  0.00000000000E+00  0.40643082323E+03  0.40643082323E+03  0.00000000000E+00 0. -1.
         -2   -1    0    0    0  501 -0.00000000000E+00 -0.00000000000E+00 -0.50571127975E+02  0.50571127975E+02  0.00000000000E+00 0.  1.
         25    2    1    2    0    0 -0.85183184393E+02  0.81416386599E+00  0.25380583232E+03  0.29550260533E+03  0.12509017336E+03 0.  0.
          5    1    3    3  502    0 -0.11716198031E+03 -0.18792694703E+01  0.21569877247E+03  0.24550742175E+03  0.41800000000E+01 0. -1.
         -5    1    3    3    0  502  0.31978795922E+02  0.26934333363E+01  0.38107059841E+02  0.49995183582E+02  0.41800000000E+01 0. -1.
        -11    1    1    2    0    0  0.94371693980E+02  0.22392820870E+02  0.94511566922E+02  0.13542485493E+03  0.00000000000E+00 0. -1.
         11    1    1    2    0    0 -0.91885095868E+01 -0.23206984736E+02  0.75422960195E+01  0.26074490948E+02  0.00000000000E+00 0.  1.
</event>
<event>
 7    1  0.8308181E-009  0.9222746E+02  0.7561462E-02  0.1297545E+00
          1   -1    0    0  501    0  0.00000000000E+00  0.00000000000E+00  0.29457134295E+03  0.29457134295E+03  0.00000000000E+00 0. -1.
         -1   -1    0    0    0  501 -0.00000000000E+00 -0.00000000000E+00 -0.52147183132E+02  0.52147183132E+02  0.00000000000E+00 0.  1.
         25    2    1    2    0    0 -0.49125579386E+02 -0.55303008529E+01  0.18392867717E+03  0.22786203456E+03  0.12508973471E+03 0.  0.
          5    1    3    3  502    0 -0.49865466105E+01 -0.61904993390E+02  0.95662684076E+02  0.11413113238E+03  0.41800000000E+01 0. -1.
         -5    1    3    3    0  502 -0.44139032775E+02  0.56374692537E+02  0.88265993094E+02  0.11373090218E+03  0.41800000000E+01 0. -1.
        -11    1    1    2    0    0  0.32629941497E+02 -0.12494279576E+01 -0.20045729113E+02  0.38315863660E+02  0.00000000000E+00 0.  1.
         11    1    1    2    0    0  0.16495637888E+02  0.67797288105E+01  0.78541211760E+02  0.80540627865E+02  0.00000000000E+00 0. -1.
</event>
<event>
 7    1  0.2641580E-009  0.1134420E+03  0.7561462E-02  0.1254325E+00
          1   -1    0    0  501    0  0.00000000000E+00  0.00000000000E+00  0.45608331487E+03  0.45608331487E+03  0.00000000000E+00 0. -1.
         -1   -1    0    0    0  501 -0.00000000000E+00 -0.00000000000E+00 -0.51864171970E+02  0.51864171970E+02  0.00000000000E+00 0.  1.
         25    2    1    2    0    0  0.82322789821E+02 -0.19790936307E+02  0.32983870560E+03  0.36277977404E+03  0.12508744883E+03 0.  0.
          5    1    3    3  502    0  0.17617875917E+01  0.36131598987E+02  0.29678138828E+02  0.46977235605E+02  0.41800000000E+01 0. -1.
         -5    1    3    3    0  502  0.80561002229E+02 -0.55922535293E+02  0.30016056678E+03  0.31580253843E+03  0.41800000000E+01 0. -1.
        -11    1    1    2    0    0 -0.25121454804E+01  0.11842340555E+02 -0.18713671709E+02  0.22287965666E+02  0.00000000000E+00 0.  1.
         11    1    1    2    0    0 -0.79810644340E+02  0.79485957519E+01  0.93094109007E+02  0.12287974714E+03  0.00000000000E+00 0. -1.
</event>
<event>
 7    1  0.2641580E-009  0.1673996E+03  0.7561462E-02  0.1180587E+00
         -1   -1    0    0    0  501 -0.00000000000E+00  0.00000000000E+00  0.49609779261E+03  0.49609779261E+03  0.00000000000E+00 0.  1.
          1   -1    0    0  501    0  0.00000000000E+00 -0.00000000000E+00 -0.70311158219E+02  0.70311158219E+02  0.00000000000E+00 0. -1.
         25    2    1    2    0    0 -0.67933781015E+02 -0.13051091228E+03  0.16910881490E+03  0.25669729868E+03  0.12509042748E+03 0.  0.
          5    1    3    3  502    0 -0.65209678169E+02 -0.89849761943E+01  0.31667522703E+02  0.73166497239E+02  0.41800000000E+01 0.  1.
         -5    1    3    3    0  502 -0.27241028465E+01 -0.12152593608E+03  0.13744129220E+03  0.18353080144E+03  0.41800000000E+01 0.  1.
        -11    1    1    2    0    0  0.29777047440E+02  0.62440031777E+02  0.20438579410E+03  0.21577530663E+03  0.00000000000E+00 0.  1.
         11    1    1    2    0    0  0.38156733575E+02  0.68070880502E+02  0.52292025397E+02  0.93936345519E+02  0.00000000000E+00 0. -1.
</event>
<event>
 7    1  0.2641580E-009  0.1307118E+03  0.7561462E-02  0.1226403E+00
          2   -1    0    0  501    0  0.00000000000E+00  0.00000000000E+00  0.85980985232E+03  0.85980985232E+03  0.00000000000E+00 0. -1.
         -2   -1    0    0    0  501 -0.00000000000E+00 -0.00000000000E+00 -0.28933220512E+02  0.28933220512E+02  0.00000000000E+00 0.  1.
         25    2    1    2    0    0  0.90237571572E+02  0.56944068394E+02  0.34862173494E+03  0.38544788883E+03  0.12509002631E+03 0.  0.
          5    1    3    3  502    0  0.13076356991E+02  0.34322285338E+02  0.27133014967E+03  0.27383669021E+03  0.41800000000E+01 0. -1.
         -5    1    3    3    0  502  0.77161214580E+02  0.22621783056E+02  0.77291585264E+02  0.11161119862E+03  0.41800000000E+01 0. -1.
        -11    1    1    2    0    0 -0.16092128713E+02 -0.67189845990E+02  0.22417674946E+03  0.23458185567E+03  0.00000000000E+00 0.  1.
         11    1    1    2    0    0 -0.74145442858E+02  0.10245777597E+02  0.25807814741E+03  0.26871332833E+03  0.00000000000E+00 0. -1.
</event>
<event>
 7    1  0.2641580E-009  0.1492036E+03  0.7561462E-02  0.1201455E+00
         -1   -1    0    0    0  501 -0.00000000000E+00  0.00000000000E+00  0.91428150910E+02  0.91428150910E+02  0.00000000000E+00 0.  1.
          1   -1    0    0  501    0  0.00000000000E+00 -0.00000000000E+00 -0.38087625225E+03  0.38087625225E+03  0.00000000000E+00 0. -1.
         25    2    1    2    0    0  0.21489077783E+02  0.13850446301E+03 -0.22488833104E+03  0.29303101881E+03  0.12508856787E+03 0.  0.
          5    1    3    3  502    0  0.10038242929E+02  0.10644077392E+03 -0.56134577390E+02  0.12082618861E+03  0.41800000000E+01 0. -1.
         -5    1    3    3    0  502  0.11450834854E+02  0.32063689092E+02 -0.16875375365E+03  0.17220483021E+03  0.41800000000E+01 0. -1.
        -11    1    1    2    0    0 -0.47656039179E+02 -0.96408782738E+02 -0.13967698954E+02  0.10844744383E+03  0.00000000000E+00 0.  1.
         11    1    1    2    0    0  0.26166961396E+02 -0.42095680276E+02 -0.50592071351E+02  0.70825940518E+02  0.00000000000E+00 0. -1.
</event>
<event>
 7    1  0.2641580E-009  0.2762994E+03  0.7561462E-02  0.1097727E+00
          2   -1    0    0  501    0  0.00000000000E+00  0.00000000000E+00  0.59443765404E+02  0.59443765404E+02  0.00000000000E+00 0. -1.
         -2   -1    0    0    0  501 -0.00000000000E+00 -0.00000000000E+00 -0.13617465010E+04  0.13617465010E+04  0.00000000000E+00 0.  1.
         25    2    1    2    0    0 -0.49194652883E+02 -0.25783589453E+03 -0.69617811964E+03  0.75446185459E+03  0.12509697587E+03 0.  0.
          5    1    3    3  502    0 -0.52869754685E+02 -0.27657565359E+02 -0.12316028061E+03  0.13691632117E+03  0.41800000000E+01 0.  1.
         -5    1    3    3    0  502  0.36751018018E+01 -0.23017832917E+03 -0.57301783904E+03  0.61754553342E+03  0.41800000000E+01 0.  1.
        -11    1    1    2    0    0  0.21076505162E+02  0.12451433780E+03 -0.18407791822E+03  0.22323243349E+03  0.00000000000E+00 0.  1.
         11    1    1    2    0    0  0.28118147721E+02  0.13332155673E+03 -0.42204669772E+03  0.44349597831E+03  0.00000000000E+00 0. -1.
</event>
<event>
 7    1  0.2641580E-009  0.1295163E+03  0.7561462E-02  0.1228175E+00
         -1   -1    0    0    0  501 -0.00000000000E+00  0.00000000000E+00  0.32139491720E+02  0.32139491720E+02  0.00000000000E+00 0.  1.
          1   -1    0    0  501    0  0.00000000000E+00 -0.00000000000E+00 -0.79167153859E+03  0.79167153859E+03  0.00000000000E+00 0. -1.
         25    2    1    2    0    0  0.10942769226E+03 -0.20625209883E+02 -0.48077456424E+03  0.50910405942E+03  0.12507174976E+03 0.  0.
          5    1    3    3  502    0  0.55121438256E+02 -0.23823174508E+02 -0.60647054508E+02  0.85448547206E+02  0.41800000000E+01 0. -1.
         -5    1    3    3    0  502  0.54306254005E+02  0.31979646247E+01 -0.42012750973E+03  0.42365551222E+03  0.41800000000E+01 0. -1.
        -11    1    1    2    0    0 -0.55605049480E+02 -0.35930886194E+02 -0.10373462146E+03  0.12306023647E+03  0.00000000000E+00 0.  1.
         11    1    1    2    0    0 -0.53822642782E+02  0.56556096077E+02 -0.17502286117E+03  0.19164673441E+03  0.00000000000E+00 0. -1.
</event>
<event>
 7    1  0.2641580E-009  0.1116152E+03  0.7561462E-02  0.1257608E+00
         -1   -1    0    0    0  501 -0.00000000000E+00  0.00000000000E+00  0.63384473945E+02  0.63384473945E+02  0.00000000000E+00 0.  1.
          1   -1    0    0  501    0  0.00000000000E+00 -0.00000000000E+00 -0.36172080010E+03  0.36172080010E+03  0.00000000000E+00 0. -1.
         25    2    1    2    0    0  0.61169014812E+02  0.55863465996E+01 -0.28183520072E+03  0.31440412992E+03  0.12508405536E+03 0.  0.
          5    1    3    3  502    0 -0.25756096973E+02 -0.49159502307E+01 -0.93236985901E+01  0.28141550301E+02  0.41800000000E+01 0.  1.
         -5    1    3    3    0  502  0.86925111785E+02  0.10502296830E+02 -0.27251150213E+03  0.28626257962E+03  0.41800000000E+01 0.  1.
        -11    1    1    2    0    0  0.81734944308E+01  0.29990855477E+02 -0.92298775753E+01  0.32426039899E+02  0.00000000000E+00 0. -1.
         11    1    1    2    0    0 -0.69342509242E+02 -0.35577202077E+02 -0.72712478561E+01  0.78275104223E+02  0.00000000000E+00 0.  1.
</event>
<event>
 7    1  0.2641580E-009  0.1314820E+03  0.7561462E-02  0.1225273E+00
         -3   -1    0    0    0  501 -0.00000000000E+00  0.00000000000E+00  0.17553091724E+03  0.17553091724E+03  0.00000000000E+00 0.  1.
          3   -1    0    0  501    0  0.00000000000E+00 -0.00000000000E+00 -0.16305322347E+03  0.16305322347E+03  0.00000000000E+00 0. -1.
         25    2    1    2    0    0 -0.15924862769E+02 -0.11342894341E+03 -0.49692052105E+02  0.17673933276E+03  0.12509102784E+03 0.  0.
          5    1    3    3  502    0 -0.94549429483E+01 -0.65473105781E+02 -0.91272333883E+02  0.11280175025E+03  0.41800000000E+01 0. -1.
         -5    1    3    3    0  502 -0.64699198206E+01 -0.47955837626E+02  0.41580281778E+02  0.63937582513E+02  0.41800000000E+01 0. -1.
        -11    1    1    2    0    0 -0.39653825089E+02  0.46461043499E+02  0.15172077057E+02  0.62938432848E+02  0.00000000000E+00 0. -1.
         11    1    1    2    0    0  0.55578687858E+02  0.66967899907E+02  0.46997668815E+02  0.98906375103E+02  0.00000000000E+00 0.  1.
</event>
<event>
 7    1  0.2641580E-009  0.9788392E+02  0.7561462E-02  0.1284810E+00
          2   -1    0    0  501    0  0.00000000000E+00  0.00000000000E+00  0.47021116852E+02  0.47021116852E+02  0.00000000000E+00 0. -1.
         -2   -1    0    0    0  501 -0.00000000000E+00 -0.00000000000E+00 -0.39877456970E+03  0.39877456970E+03  0.00000000000E+00 0.  1.
         25    2    1    2    0    0 -0.44397671792E+02  0.45444398574E+02 -0.27870669651E+03  0.31202863545E+03  0.12509236601E+03 0.  0.
          5    1    3    3  502    0  0.36862522169E+02 -0.35077248661E+01 -0.37786941237E+02  0.53070472039E+02  0.41800000000E+01 0. -1.
         -5    1    3    3    0  502 -0.81260193961E+02  0.48952123440E+02 -0.24091975528E+03  0.25895816341E+03  0.41800000000E+01 0. -1.
        -11    1    1    2    0    0  0.26660258675E+02 -0.26367933680E+02 -0.93441382235E+02  0.10068430480E+03  0.00000000000E+00 0.  1.
         11    1    1    2    0    0  0.17737413117E+02 -0.19076464894E+02  0.20394625907E+02  0.33082746301E+02  0.00000000000E+00 0. -1.
</event>
<event>
 7    1  0.2641580E-009  0.1130386E+03  0.7561462E-02  0.1255044E+00
         -2   -1    0    0    0  501 -0.00000000000E+00  0.00000000000E+00  0.36180821017E+03  0.36180821017E+03  0.00000000000E+00 0.  1.
          2   -1    0    0  501    0  0.00000000000E+00 -0.00000000000E+00 -0.51629970706E+02  0.51629970706E+02  0.00000000000E+00 0. -1.
         25    2    1    2    0    0 -0.53217733242E+02 -0.13158019377E+02  0.26475349228E+03  0.29790230693E+03  0.12508442027E+03 0.  0.
          5    1    3    3  502    0 -0.54192149273E+02 -0.61785088894E+02  0.12308700442E+03  0.14806103238E+03  0.41800000000E+01 0.  1.
         -5    1    3    3    0  502  0.97441603106E+00  0.48627069517E+02  0.14166648786E+03  0.14984127455E+03  0.41800000000E+01 0.  1.
        -11    1    1    2    0    0  0.21656089086E+02 -0.32748597349E+02  0.45140274306E+02  0.59825589736E+02  0.00000000000E+00 0.  1.
         11    1    1    2    0    0  0.31561644155E+02  0.45906616726E+02  0.28447286915E+00  0.55710284202E+02  0.00000000000E+00 0. -1.
</event>
<event>
 7    1  0.2641580E-009  0.1412038E+03  0.7561462E-02  0.1211718E+00
         -2   -1    0    0    0  501 -0.00000000000E+00  0.00000000000E+00  0.74219608510E+02  0.74219608510E+02  0.00000000000E+00 0.  1.
          2   -1    0    0  501    0  0.00000000000E+00 -0.00000000000E+00 -0.40278858928E+03  0.40278858928E+03  0.00000000000E+00 0. -1.
         25    2    1    2    0    0  0.10421990480E+03  0.18392500915E+02 -0.28725831360E+03  0.33070423915E+03  0.12509149614E+03 0.  0.
          5    1    3    3  502    0 -0.25406512365E+02  0.22333803005E+02 -0.57950310347E+02  0.67230948949E+02  0.41800000000E+01 0. -1.
         -5    1    3    3    0  502  0.12962641716E+03 -0.39413020898E+01 -0.22930800326E+03  0.26347329020E+03  0.41800000000E+01 0. -1.
        -11    1    1    2    0    0 -0.13228833620E+02  0.16472829402E+02  0.21682341492E+02  0.30273422007E+02  0.00000000000E+00 0.  1.
         11    1    1    2    0    0 -0.90991071180E+02 -0.34865330317E+02 -0.62993008655E+02  0.11603053664E+03  0.00000000000E+00 0. -1.
</event>
<event>
 7    1  0.2641580E-009  0.1130864E+03  0.7561462E-02  0.1254959E+00
         -2   -1    0    0    0  501 -0.00000000000E+00  0.00000000000E+00  0.65053289626E+03  0.65053289626E+03  0.00000000000E+00 0. -1.
          2   -1    0    0  501    0  0.00000000000E+00 -0.00000000000E+00 -0.31084859349E+02  0.31084859349E+02  0.00000000000E+00 0.  1.
         25    2    1    2    0    0  0.51101006031E+02 -0.68244788358E+02  0.25348642285E+03  0.29524817420E+03  0.12508978314E+03 0.  0.
          5    1    3    3  502    0 -0.13266400254E+02 -0.40159074869E+02  0.12643768182E+02  0.44340567699E+02  0.41800000000E+01 0.  1.
         -5    1    3    3    0  502  0.64367406285E+02 -0.28085713489E+02  0.24084265467E+03  0.25090760650E+03  0.41800000000E+01 0.  1.
        -11    1    1    2    0    0 -0.27576856470E+02  0.81694369050E+02  0.33150262082E+03  0.34253239344E+03  0.00000000000E+00 0. -1.
         11    1    1    2    0    0 -0.23524149560E+02 -0.13449580691E+02  0.34458993244E+02  0.43837187966E+02  0.00000000000E+00 0.  1.
</event>
<event>
 7    1  0.2641580E-009  0.1068482E+03  0.7561462E-02  0.1266520E+00
         -2   -1    0    0    0  501 -0.00000000000E+00  0.00000000000E+00  0.17589775133E+02  0.17589775133E+02  0.00000000000E+00 0. -1.
          2   -1    0    0  501    0  0.00000000000E+00 -0.00000000000E+00 -0.81737839417E+03  0.81737839417E+03  0.00000000000E+00 0.  1.
         25    2    1    2    0    0 -0.41599712850E+02 -0.30705827761E+02 -0.54288544114E+03  0.55950788545E+03  0.12510430732E+03 0.  0.
          5    1    3    3  502    0  0.36364303656E+02 -0.19945252974E+02 -0.82588044850E+02  0.92511800592E+02  0.41800000000E+01 0. -1.
         -5    1    3    3    0  502 -0.77964016507E+02 -0.10760574787E+02 -0.46029739629E+03  0.46699608486E+03  0.41800000000E+01 0. -1.
        -11    1    1    2    0    0  0.33640164550E+02  0.56745892544E+02 -0.21947858843E+03  0.22917811364E+03  0.00000000000E+00 0.  1.
         11    1    1    2    0    0  0.79595483006E+01 -0.26040064783E+02 -0.37424589461E+02  0.46282170211E+02  0.00000000000E+00 0. -1.
</event>
<event>
 7    1  0.2641580E-009  0.1457473E+03  0.7561462E-02  0.1205798E+00
         -4   -1    0    0    0  501 -0.00000000000E+00  0.00000000000E+00  0.10210059504E+03  0.10210059504E+03  0.00000000000E+00 0. -1.
          4   -1    0    0  501    0  0.00000000000E+00 -0.00000000000E+00 -0.24753333460E+03  0.24753333460E+03  0.00000000000E+00 0.  1.
         25    2    1    2    0    0  0.27868271366E+02  0.10958097705E+03 -0.70262307661E+02  0.18267205468E+03  0.12509059358E+03 0.  0.
          5    1    3    3  502    0  0.30185960239E+02  0.12698234577E+03 -0.87918292287E+02  0.15742555971E+03  0.41800000000E+01 0.  1.
         -5    1    3    3    0  502 -0.23176888728E+01 -0.17401368718E+02  0.17655984626E+02  0.25246494966E+02  0.41800000000E+01 0.  1.
        -11    1    1    2    0    0  0.16230684515E+02  0.74043547390E+01 -0.28279649369E+02  0.33436479441E+02  0.00000000000E+00 0.  1.
         11    1    1    2    0    0 -0.44098955880E+02 -0.11698533179E+03 -0.46890782521E+02  0.13352539552E+03  0.00000000000E+00 0. -1.
</event>
<event>
 7    1  0.2641580E-009  0.1934409E+03  0.7561462E-02  0.1155394E+00
          3   -1    0    0  501    0  0.00000000000E+00  0.00000000000E+00  0.30361840592E+02  0.30361840592E+02  0.00000000000E+00 0. -1.
         -3   -1    0    0    0  501 -0.00000000000E+00 -0.00000000000E+00 -0.13447801892E+04  0.13447801892E+04  0.00000000000E+00 0.  1.
         25    2    1    2    0    0 -0.15329319944E+03  0.55667210177E+02 -0.84883771280E+03  0.87336690192E+03  0.12508652769E+03 0.  0.
          5    1    3    3  502    0  0.71637826908E+01 -0.21741110512E+02 -0.54043927752E+02  0.58840582897E+02  0.41800000000E+01 0.  1.
         -5    1    3    3    0  502 -0.16045698213E+03  0.77408320690E+02 -0.79479378505E+03  0.81452631902E+03  0.41800000000E+01 0.  1.
        -11    1    1    2    0    0  0.86564657986E+02 -0.76481115082E+02 -0.32180983880E+03  0.34191281538E+03  0.00000000000E+00 0.  1.
         11    1    1    2    0    0  0.66728541458E+02  0.20813904905E+02 -0.14377079702E+03  0.15986231250E+03  0.00000000000E+00 0. -1.
</event>
<event>
 7    1  0.2641580E-009  0.2344807E+03  0.7561462E-02  0.1123525E+00
          2   -1    0    0  501    0  0.00000000000E+00  0.00000000000E+00  0.18421584855E+04  0.18421584855E+04  0.00000000000E+00 0. -1.
         -2   -1    0    0    0  501 -0.00000000000E+00 -0.00000000000E+00 -0.39084379645E+02  0.39084379645E+02  0.00000000000E+00 0.  1.
         25    2    1    2    0    0 -0.74245749721E+02 -0.20474376946E+03  0.12850135548E+04  0.13093247213E+04  0.12505577732E+03 0.  0.
          5    1    3    3  502    0  0.64262565818E+01  0.14853178098E+02  0.68164695679E+02  0.70184127908E+02  0.41800000000E+01 0.  1.
         -5    1    3    3    0  502 -0.80672006303E+02 -0.21959694756E+03  0.12168488591E+04  0.12391405934E+04  0.41800000000E+01 0.  1.
        -11    1    1    2    0    0  0.22610419598E+02  0.82938742741E+02  0.92550275281E+02  0.12631555556E+03  0.00000000000E+00 0.  1.
         11    1    1    2    0    0  0.51635330123E+02  0.12180502672E+03  0.42551027577E+03  0.44560258823E+03  0.00000000000E+00 0. -1.
</event>
<event>
 7    1  0.2641580E-009  0.2066052E+03  0.7561462E-02  0.1144283E+00
          2   -1    0    0  501    0  0.00000000000E+00  0.00000000000E+00  0.44385295853E+03  0.44385295853E+03  0.00000000000E+00 0. -1.
         -2   -1    0    0    0  501 -0.00000000000E+00 -0.00000000000E+00 -0.12165070991E+03  0.12165070991E+03  0.00000000000E+00 0.  1.
         25    2    1    2    0    0  0.14350575306E+03 -0.14140258613E+03  0.11756423555E+03  0.26468828123E+03  0.12509973708E+03 0.  0.
          5    1    3    3  502    0  0.52139105492E+02 -0.93130214827E+02  0.12075833319E+03  0.16121963488E+03  0.41800000000E+01 0.  1.
         -5    1    3    3    0  502  0.91366647571E+02 -0.48272371302E+02 -0.31940976393E+01  0.10346864636E+03  0.41800000000E+01 0.  1.
        -11    1    1    2    0    0 -0.25660634425E+02  0.39931231594E+02  0.10735956908E+03  0.11738419181E+03  0.00000000000E+00 0. -1.
         11    1    1    2    0    0 -0.11784511864E+03  0.10147135453E+03  0.97278443989E+02  0.18343119539E+03  0.00000000000E+00 0.  1.
</event>
<event>
 7    1  0.2641580E-009  0.9226709E+02  0.7561462E-02  0.1297453E+00
         -1   -1    0    0    0  501 -0.00000000000E+00  0.00000000000E+00  0.29163030848E+02  0.29163030848E+02  0.00000000000E+00 0.  1.
          1   -1    0    0  501    0  0.00000000000E+00 -0.00000000000E+00 -0.52629135541E+03  0.52629135541E+03  0.00000000000E+00 0. -1.
         25    2    1    2    0    0  0.12123247730E+02  0.35586217970E+02 -0.40545718239E+03  0.42597855348E+03  0.12509536053E+03 0.  0.
          5    1    3    3  502    0  0.11948969974E+02 -0.39523350505E+02 -0.63602453630E+02  0.75944832782E+02  0.41800000000E+01 0. -1.
         -5    1    3    3    0  502  0.17427775515E+00  0.75109568475E+02 -0.34185472876E+03  0.35003372069E+03  0.41800000000E+01 0. -1.
        -11    1    1    2    0    0 -0.10346560294E+02  0.14431798728E+02  0.68003019674E+01  0.19015052755E+02  0.00000000000E+00 0.  1.
         11    1    1    2    0    0 -0.17766874356E+01 -0.50018016698E+02 -0.98471444145E+02  0.11046078003E+03  0.00000000000E+00 0. -1.
</event>
<event>
 7    1  0.2641580E-009  0.1022251E+03  0.7561462E-02  0.1275685E+00
          4   -1    0    0  501    0  0.00000000000E+00  0.00000000000E+00  0.38490535347E+03  0.38490535347E+03  0.00000000000E+00 0. -1.
         -4   -1    0    0    0  501 -0.00000000000E+00 -0.00000000000E+00 -0.32062748008E+02  0.32062748008E+02  0.00000000000E+00 0.  1.
         25    2    1    2    0    0  0.54240914145E+01 -0.16771713374E+02  0.23813773022E+03  0.26956063794E+03  0.12507057141E+03 0.  0.
          5    1    3    3  502    0  0.49181848289E+01  0.51204833772E+02  0.61730988005E+02  0.80463102251E+02  0.41800000000E+01 0. -1.
         -5    1    3    3    0  502  0.50590658561E+00 -0.67976547146E+02  0.17640674222E+03  0.18909753569E+03  0.41800000000E+01 0. -1.
        -11    1    1    2    0    0  0.31246511807E+01  0.50165498188E+02  0.37039534664E+02  0.62436109597E+02  0.00000000000E+00 0.  1.
         11    1    1    2    0    0 -0.85487425952E+01 -0.33393784814E+02  0.77665340575E+02  0.84971353942E+02  0.00000000000E+00 0. -1.
</event>
<event>
 7    1  0.2641580E-009  0.8181146E+02  0.7561462E-02  0.1323988E+00
         -1   -1    0    0    0  501 -0.00000000000E+00  0.00000000000E+00  0.30250885008E+03  0.30250885008E+03  0.00000000000E+00 0.  1.
          1   -1    0    0  501    0  0.00000000000E+00 -0.00000000000E+00 -0.41043369716E+02  0.41043369716E+02  0.00000000000E+00 0. -1.
         25    2    1    2    0    0 -0.78718865772E+01  0.13894763403E+02  0.17798737260E+03  0.21813243892E+03  0.12508886863E+03 0.  0.
          5    1    3    3  502    0 -0.27654918300E+02 -0.50537965268E+02  0.69822578803E+02  0.90617577491E+02  0.41800000000E+01 0. -1.
         -5    1    3    3    0  502  0.19783031723E+02  0.64432728671E+02  0.10816479380E+03  0.12751486143E+03  0.41800000000E+01 0. -1.
        -11    1    1    2    0    0 -0.60515339267E+01  0.94074902779E+01 -0.17548223233E+02  0.20810143557E+02  0.00000000000E+00 0. -1.
         11    1    1    2    0    0  0.13923420504E+02 -0.23302253681E+02  0.10102633100E+03  0.10460963732E+03  0.00000000000E+00 0.  1.
</event>
<event>
 7    1  0.2641580E-009  0.7772096E+02  0.7561462E-02  0.1335646E+00
          2   -1    0    0  501    0  0.00000000000E+00  0.00000000000E+00  0.55527160204E+03  0.55527160204E+03  0.00000000000E+00 0.  1.
         -2   -1    0    0    0  501 -0.00000000000E+00 -0.00000000000E+00 -0.29441651045E+02  0.29441651045E+02  0.00000000000E+00 0. -1.
         25    2    1    2    0    0  0.66939637344E+02 -0.11549836102E+02  0.27033537696E+03  0.30552068611E+03  0.12508940739E+03 0.  0.
          5    1    3    3  502    0  0.59385533642E+02 -0.30351813535E+02  0.27607726604E+03  0.28404929751E+03  0.41800000000E+01 0.  1.
         -5    1    3    3    0  502  0.75541037022E+01  0.18801977433E+02 -0.57418890799E+01  0.21471388598E+02  0.41800000000E+01 0.  1.
        -11    1    1    2    0    0 -0.55838428214E+02  0.95329551382E+01  0.26068817980E+03  0.26677168963E+03  0.00000000000E+00 0.  1.
         11    1    1    2    0    0 -0.11101209130E+02  0.20168809638E+01 -0.51936057748E+01  0.12420877341E+02  0.00000000000E+00 0. -1.
</event>
<event>
 7    1  0.2641580E-009  0.1184463E+03  0.7561462E-02  0.1245682E+00
          2   -1    0    0  501    0  0.00000000000E+00  0.00000000000E+00  0.10159553995E+04  0.10159553995E+04  0.00000000000E+00 0. -1.
         -2   -1    0    0    0  501 -0.00000000000E+00 -0.00000000000E+00 -0.42523668505E+02  0.42523668505E+02  0.00000000000E+00 0.  1.
         25    2    1    2    0    0 -0.83254415717E+02 -0.58682596205E+02  0.87916500035E+03  0.89384202450E+03  0.12509005593E+03 0.  0.
          5    1    3    3  502    0 -0.28486887187E+02 -0.16605580843E+02  0.71395399416E+03  0.71472723904E+03  0.41800000000E+01 0. -1.
         -5    1    3    3    0  502 -0.54767528529E+02 -0.42077015362E+02  0.16521100620E+03  0.17911478546E+03  0.41800000000E+01 0. -1.
        -11    1    1    2    0    0  0.87125255595E+02  0.12380652927E+02  0.68413408553E+02  0.11146517483E+03  0.00000000000E+00 0. -1.
         11    1    1    2    0    0 -0.38708398785E+01  0.46301943277E+02  0.25853322044E+02  0.53171868628E+02  0.00000000000E+00 0.  1.
</event>
<event>
 7    1  0.2641580E-009  0.1252653E+03  0.7561462E-02  0.1234655E+00
         -4   -1    0    0    0  501 -0.00000000000E+00  0.00000000000E+00  0.65915898504E+03  0.65915898504E+03  0.00000000000E+00 0.  1.
          4   -1    0    0  501    0  0.00000000000E+00 -0.00000000000E+00 -0.28736931779E+02  0.28736931779E+02  0.00000000000E+00 0. -1.
         25    2    1    2    0    0  0.16683930097E+02 -0.82645491890E+02  0.35980594763E+03  0.39014914217E+03  0.12508957723E+03 0.  0.
          5    1    3    3  502    0 -0.27147383418E+02  0.23332008456E+02  0.90403338403E+02  0.97322140541E+02  0.41800000000E+01 0.  1.
         -5    1    3    3    0  502  0.43831313515E+02 -0.10597750035E+03  0.26940260923E+03  0.29282700163E+03  0.41800000000E+01 0.  1.
        -11    1    1    2    0    0 -0.32830102120E+02  0.29326976057E+02  0.21338445590E+03  0.21787797766E+03  0.00000000000E+00 0.  1.
         11    1    1    2    0    0  0.16146172024E+02  0.53318515833E+02  0.57231649731E+02  0.79868796989E+02  0.00000000000E+00 0. -1.
</event>
<event>
 7    1  0.2641580E-009  0.1079136E+03  0.7561462E-02  0.1264483E+00
          2   -1    0    0  501    0  0.00000000000E+00  0.00000000000E+00  0.33541842928E+03  0.33541842928E+03  0.00000000000E+00 0. -1.
         -2   -1    0    0    0  501 -0.00000000000E+00 -0.00000000000E+00 -0.57319952103E+02  0.57319952103E+02  0.00000000000E+00 0.  1.
         25    2    1    2    0    0 -0.75226303441E+01  0.73159571079E+02  0.21517543254E+03  0.25953301681E+03  0.12509199509E+03 0.  0.
          5    1    3    3  502    0  0.43445082080E+02  0.79491320537E+02  0.16087614396E+03  0.18467525901E+03  0.41800000000E+01 0.  1.
         -5    1    3    3    0  502 -0.50967712424E+02 -0.63317494580E+01  0.54299288584E+02  0.74857757792E+02  0.41800000000E+01 0.  1.
        -11    1    1    2    0    0  0.27040260541E+01 -0.14103457406E+02 -0.24023710726E+02  0.27988532379E+02  0.00000000000E+00 0.  1.
         11    1    1    2    0    0  0.48186042900E+01 -0.59056113673E+02  0.86946755361E+02  0.10521683220E+03  0.00000000000E+00 0. -1.
</event>
<event>
 7    1  0.2641580E-009  0.1131614E+03  0.7561462E-02  0.1254825E+00
         -4   -1    0    0    0  501 -0.00000000000E+00  0.00000000000E+00  0.30096242768E+03  0.30096242768E+03  0.00000000000E+00 0. -1.
          4   -1    0    0  501    0  0.00000000000E+00 -0.00000000000E+00 -0.61789492548E+02  0.61789492548E+02  0.00000000000E+00 0.  1.
         25    2    1    2    0    0 -0.22948411308E+02  0.25696287126E+02  0.19859085360E+03  0.23721713312E+03  0.12508681929E+03 0.  0.
          5    1    3    3  502    0  0.38814977343E+02 -0.13108767711E+02  0.13230888767E+03  0.13856968071E+03  0.41800000000E+01 0. -1.
         -5    1    3    3    0  502 -0.61763388651E+02  0.38805054837E+02  0.66281965929E+02  0.98647452404E+02  0.41800000000E+01 0. -1.
        -11    1    1    2    0    0  0.12999552437E+02 -0.67688245419E+02  0.44752187021E+02  0.82179347616E+02  0.00000000000E+00 0. -1.
         11    1    1    2    0    0  0.99488588703E+01  0.41991958294E+02 -0.41701054829E+01  0.43355439496E+02  0.00000000000E+00 0.  1.
</event>
<event>
 7    1  0.2641580E-009  0.1448555E+03  0.7561462E-02  0.1206941E+00
         -3   -1    0    0    0  501 -0.00000000000E+00  0.00000000000E+00  0.45809847840E+03  0.45809847840E+03  0.00000000000E+00 0.  1.
          3   -1    0    0  501    0  0.00000000000E+00 -0.00000000000E+00 -0.61648949540E+02  0.61648949540E+02  0.00000000000E+00 0. -1.
         25    2    1    2    0    0 -0.10873080411E+03 -0.50453375668E+02  0.27535471188E+03  0.32532346180E+03  0.12508879472E+03 0.  0.
          5    1    3    3  502    0 -0.57410036852E+02 -0.74750001521E+02  0.86230069677E+02  0.12781460157E+03  0.41800000000E+01 0. -1.
         -5    1    3    3    0  502 -0.51320767261E+02  0.24296625853E+02  0.18912464220E+03  0.19750886023E+03  0.41800000000E+01 0. -1.
        -11    1    1    2    0    0  0.52620990426E+02  0.61818324812E+02  0.29432513265E+02  0.86352456555E+02  0.00000000000E+00 0. -1.
         11    1    1    2    0    0  0.56109813687E+02 -0.11364949144E+02  0.91662303714E+02  0.10807150958E+03  0.00000000000E+00 0.  1.
</event>
<event>
 7    1  0.2641580E-009  0.1166896E+03  0.7561462E-02  0.1248660E+00
         -2   -1    0    0    0  501 -0.00000000000E+00  0.00000000000E+00  0.27461132224E+03  0.27461132224E+03  0.00000000000E+00 0.  1.
          2   -1    0    0  501    0  0.00000000000E+00 -0.00000000000E+00 -0.67600283151E+02  0.67600283151E+02  0.00000000000E+00 0. -1.
         25    2    1    2    0    0 -0.49211400477E+02 -0.52521346107E+02  0.12514750243E+03  0.19101964624E+03  0.12508538745E+03 0.  0.
          5    1    3    3  502    0 -0.72963811788E+02 -0.18869300776E+02  0.12897818458E+03  0.14944100120E+03  0.41800000000E+01 0.  1.
         -5    1    3    3    0  502  0.23752411312E+02 -0.33652045331E+02 -0.38306821499E+01  0.41578645045E+02  0.41800000000E+01 0.  1.
        -11    1    1    2    0    0  0.38356761977E+01 -0.25744712774E+02  0.47981670750E+02  0.54587025708E+02  0.00000000000E+00 0.  1.
         11    1    1    2    0    0  0.45375724279E+02  0.78266058881E+02  0.33881865909E+02  0.96604933436E+02  0.00000000000E+00 0. -1.
</event>
<event>
 7    1  0.2641580E-009  0.5592406E+02  0.7561462E-02  0.1415779E+00
          1   -1    0    0  501    0  0.00000000000E+00  0.00000000000E+00  0.10294934456E+03  0.10294934456E+03  0.00000000000E+00 0. -1.
         -1   -1    0    0    0  501 -0.00000000000E+00 -0.00000000000E+00 -0.12915768704E+03  0.12915768704E+03  0.00000000000E+00 0.  1.
         25    2    1    2    0    0  0.16452265986E+02 -0.20077443031E+02  0.15447595702E+02  0.12868376641E+03  0.12508837976E+03 0.  0.
          5    1    3    3  502    0 -0.12930066433E+02 -0.19257153119E+02 -0.50847437533E+02  0.56044258117E+02  0.41800000000E+01 0.  1.
         -5    1    3    3    0  502  0.29382332419E+02 -0.82028991146E+00  0.66295033235E+02  0.72639508296E+02  0.41800000000E+01 0.  1.
        -11    1    1    2    0    0  0.17074486350E+02  0.18281183440E+02 -0.60112751440E+02  0.65109773750E+02  0.00000000000E+00 0.  1.
         11    1    1    2    0    0 -0.33526752336E+02  0.17962595907E+01  0.18456813260E+02  0.38313491442E+02  0.00000000000E+00 0. -1.
</event>
<event>
 7    1  0.2641580E-009  0.1928725E+03  0.7561462E-02  0.1155896E+00
         -1   -1    0    0    0  501 -0.00000000000E+00  0.00000000000E+00  0.29811033486E+03  0.29811033486E+03  0.00000000000E+00 0.  1.
          1   -1    0    0  501    0  0.00000000000E+00 -0.00000000000E+00 -0.17343056141E+03  0.17343056141E+03  0.00000000000E+00 0. -1.
         25    2    1    2    0    0  0.58865541397E+02 -0.16928426086E+03 -0.26396749752E+02  0.22015026267E+03  0.12508811623E+03 0.  0.
          5    1    3    3  502    0 -0.15798121904E+02 -0.70774576261E+02 -0.57476967385E+02  0.92626645628E+02  0.41800000000E+01 0.  1.
         -5    1    3    3    0  502  0.74663663301E+02 -0.98509684594E+02  0.31080217633E+02  0.12752361705E+03  0.41800000000E+01 0.  1.
        -11    1    1    2    0    0  0.83770603592E+01  0.63723133416E+02  0.93902050815E+02  0.11379107179E+03  0.00000000000E+00 0. -1.
         11    1    1    2    0    0 -0.67242601756E+02  0.10556112744E+03  0.57174472389E+02  0.13759956181E+03  0.00000000000E+00 0.  1.
</event>
<event>
 7    1  0.2641580E-009  0.6506369E+02  0.7561462E-02  0.1377732E+00
          2   -1    0    0  501    0  0.00000000000E+00  0.00000000000E+00  0.12957959792E+03  0.12957959792E+03  0.00000000000E+00 0. -1.
         -2   -1    0    0    0  501 -0.00000000000E+00 -0.00000000000E+00 -0.97748785263E+02  0.97748785263E+02  0.00000000000E+00 0.  1.
         25    2    1    2    0    0  0.97996620842E+01 -0.10442954513E+01  0.48133602591E+02  0.13439046042E+03  0.12508728242E+03 0.  0.
          5    1    3    3  502    0  0.14087430970E+02 -0.21709938059E+02 -0.37690202286E+02  0.45910792525E+02  0.41800000000E+01 0.  1.
         -5    1    3    3    0  502 -0.42877688855E+01  0.20665642608E+02  0.85823804877E+02  0.88479667890E+02  0.41800000000E+01 0.  1.
        -11    1    1    2    0    0 -0.45032708345E+02  0.98106494687E+01  0.11151883248E+02  0.47418964179E+02  0.00000000000E+00 0. -1.
         11    1    1    2    0    0  0.35233046260E+02 -0.87663540174E+01 -0.27454673181E+02  0.45518958589E+02  0.00000000000E+00 0.  1.
</event>
<event>
 7    1  0.2641580E-009  0.8001492E+02  0.7561462E-02  0.1329009E+00
          1   -1    0    0  501    0  0.00000000000E+00  0.00000000000E+00  0.54273688496E+03  0.54273688496E+03  0.00000000000E+00 0. -1.
         -1   -1    0    0    0  501 -0.00000000000E+00 -0.00000000000E+00 -0.21946472819E+02  0.21946472819E+02  0.00000000000E+00 0.  1.
         25    2    1    2    0    0 -0.15170050384E+01  0.65324950956E+00  0.25357492157E+03  0.28275280731E+03  0.12508469591E+03 0.  0.
          5    1    3    3  502    0  0.35205380176E+02  0.48823323587E+01  0.11141002402E+02  0.37481332648E+02  0.41800000000E+01 0.  1.
         -5    1    3    3    0  502 -0.36722385214E+02 -0.42290828491E+01  0.24243391917E+03  0.24527147466E+03  0.41800000000E+01 0.  1.
        -11    1    1    2    0    0  0.41634178008E+02  0.14604213619E+02  0.10011910158E+03  0.10940988225E+03  0.00000000000E+00 0.  1.
         11    1    1    2    0    0 -0.40117172970E+02 -0.15257463128E+02  0.16709638899E+03  0.17252066822E+03  0.00000000000E+00 0. -1.
</event>
<event>
 7    1  0.2641580E-009  0.1736505E+03  0.7561462E-02  0.1174094E+00
         -1   -1    0    0    0  501 -0.00000000000E+00  0.00000000000E+00  0.83853019957E+02  0.83853019957E+02  0.00000000000E+00 0.  1.
          1   -1    0    0  501    0  0.00000000000E+00 -0.00000000000E+00 -0.39498439349E+03  0.39498439349E+03  0.00000000000E+00 0. -1.
         25    2    1    2    0    0  0.11392148062E+03  0.86484463788E+02 -0.12266877744E+03  0.22616951211E+03  0.12508938015E+03 0.  0.
          5    1    3    3  502    0 -0.18045809087E+02  0.33964879553E+02 -0.36735335972E+00  0.38689425134E+02  0.41800000000E+01 0. -1.
         -5    1    3    3    0  502  0.13196728971E+03  0.52519584234E+02 -0.12230142408E+03  0.18748008698E+03  0.41800000000E+01 0. -1.
        -11    1    1    2    0    0 -0.77138231790E+02 -0.52182612169E+01 -0.10590661404E+03  0.13112493261E+03  0.00000000000E+00 0. -1.
         11    1    1    2    0    0 -0.36783248830E+02 -0.81266202571E+02 -0.82555982047E+02  0.12154296872E+03  0.00000000000E+00 0.  1.
</event>
<event>
 7    1  0.2641580E-009  0.1573969E+03  0.7561462E-02  0.1191667E+00
         -2   -1    0    0    0  501 -0.00000000000E+00  0.00000000000E+00  0.46845076507E+02  0.46845076507E+02  0.00000000000E+00 0.  1.
          2   -1    0    0  501    0  0.00000000000E+00 -0.00000000000E+00 -0.58906563800E+03  0.58906563800E+03  0.00000000000E+00 0. -1.
         25    2    1    2    0    0  0.57991050185E+02  0.99529744260E+02 -0.38431193175E+03  0.42025245178E+03  0.12508928989E+03 0.  0.
          5    1    3    3  502    0  0.51776229098E+01 -0.29477168342E+02 -0.79566012097E+02  0.85111303089E+02  0.41800000000E+01 0. -1.
         -5    1    3    3    0  502  0.52813427275E+02  0.12900691260E+03 -0.30474591965E+03  0.33514114869E+03  0.41800000000E+01 0. -1.
        -11    1    1    2    0    0 -0.78492436279E+02 -0.54270013151E+02 -0.11908501487E+03  0.15260254797E+03  0.00000000000E+00 0.  1.
         11    1    1    2    0    0  0.20501386094E+02 -0.45259731109E+02 -0.38823614871E+02  0.63055714757E+02  0.00000000000E+00 0. -1.
</event>
<event>
 7    1  0.2641580E-009  0.1317576E+03  0.7561462E-02  0.1224871E+00
         -3   -1    0    0    0  501 -0.00000000000E+00  0.00000000000E+00  0.12469402789E+03  0.12469402789E+03  0.00000000000E+00 0.  1.
          3   -1    0    0  501    0  0.00000000000E+00 -0.00000000000E+00 -0.18496326306E+03  0.18496326306E+03  0.00000000000E+00 0. -1.
         25    2    1    2    0    0  0.73003486298E+02  0.61311116215E+02 -0.80580918959E+02  0.17671368119E+03  0.12508348666E+03 0.  0.
          5    1    3    3  502    0  0.96480987390E+02  0.11771501560E+02 -0.29485155794E+02  0.10165626389E+03  0.41800000000E+01 0.  1.
         -5    1    3    3    0  502 -0.23477501091E+02  0.49539614655E+02 -0.51095763165E+02  0.75057417296E+02  0.41800000000E+01 0.  1.
        -11    1    1    2    0    0 -0.82753343102E+02 -0.57554709804E+02  0.41742579957E+02  0.10910134461E+03  0.00000000000E+00 0.  1.
         11    1    1    2    0    0  0.97498568039E+01 -0.37564064108E+01 -0.21430896162E+02  0.23842265143E+02  0.00000000000E+00 0. -1.
</event>
<event>
 7    1  0.2641580E-009  0.1762188E+03  0.7561462E-02  0.1171513E+00
          3   -1    0    0  501    0  0.00000000000E+00  0.00000000000E+00  0.59412167594E+02  0.59412167594E+02  0.00000000000E+00 0. -1.
         -3   -1    0    0    0  501 -0.00000000000E+00 -0.00000000000E+00 -0.77109124992E+03  0.77109124992E+03  0.00000000000E+00 0.  1.
         25    2    1    2    0    0  0.13037647196E+03  0.11345637110E+03 -0.48669600940E+03  0.53140465819E+03  0.12509009789E+03 0.  0.
          5    1    3    3  502    0  0.10268003337E+03  0.11048336051E+03 -0.47900203910E+03  0.50220532460E+03  0.41800000000E+01 0. -1.
         -5    1    3    3    0  502  0.27696438593E+02  0.29730105908E+01 -0.76939703070E+01  0.29199333585E+02  0.41800000000E+01 0. -1.
        -11    1    1    2    0    0 -0.60256075462E+02 -0.43372632096E+02 -0.17052740065E+03  0.18598810236E+03  0.00000000000E+00 0.  1.
         11    1    1    2    0    0 -0.70120396499E+02 -0.70083739003E+02 -0.54455672271E+02  0.11311065697E+03  0.00000000000E+00 0. -1.
</event>
<event>
 7    1  0.2641580E-009  0.6555690E+02  0.7561462E-02  0.1375889E+00
          1   -1    0    0  501    0  0.00000000000E+00  0.00000000000E+00  0.82812372695E+02  0.82812372695E+02  0.00000000000E+00 0. -1.
         -1   -1    0    0    0  501 -0.00000000000E+00 -0.00000000000E+00 -0.15836429070E+03  0.15836429070E+03  0.00000000000E+00 0.  1.
         25    2    1    2    0    0  0.93434817248E+01 -0.34865620131E+02 -0.32630983905E+02  0.13422063101E+03  0.12508990591E+03 0.  0.
          5    1    3    3  502    0  0.11152145318E+02  0.51066499085E+01 -0.74814514603E+02  0.75928467743E+02  0.41800000000E+01 0.  1.
         -5    1    3    3    0  502 -0.18086635936E+01 -0.39972270039E+02  0.42183530698E+02  0.58292163266E+02  0.41800000000E+01 0.  1.
        -11    1    1    2    0    0  0.12448845580E+02  0.49912890911E+02  0.55316506691E+01  0.51738473059E+02  0.00000000000E+00 0. -1.
         11    1    1    2    0    0 -0.21792327304E+02 -0.15047270781E+02 -0.48452584772E+02  0.55217559330E+02  0.00000000000E+00 0.  1.
</event>
<event>
 7    1  0.2641580E-009  0.1428441E+03  0.7561462E-02  0.1209552E+00
         -2   -1    0    0    0  501 -0.00000000000E+00  0.00000000000E+00  0.75653124348E+02  0.75653124348E+02  0.00000000000E+00 0.  1.
          2   -1    0    0  501    0  0.00000000000E+00 -0.00000000000E+00 -0.33278020535E+03  0.33278020535E+03  0.00000000000E+00 0. -1.
         25    2    1    2    0    0  0.10481276244E+03 -0.48056096008E+02 -0.13554574637E+03  0.21751911578E+03  0.12508722092E+03 0.  0.
          5    1    3    3  502    0  0.11588030786E+03 -0.10839667741E+02 -0.13522939504E+03  0.17846625964E+03  0.41800000000E+01 0.  1.
         -5    1    3    3    0  502 -0.11067545426E+02 -0.37216428268E+02 -0.31635133550E+00  0.39052856143E+02  0.41800000000E+01 0.  1.
        -11    1    1    2    0    0  0.24143703172E+00  0.21916851943E+02  0.68307784262E+01  0.22957922920E+02  0.00000000000E+00 0.  1.
         11    1    1    2    0    0 -0.10505419947E+03  0.26139244066E+02 -0.12841211305E+03  0.16795629100E+03  0.00000000000E+00 0. -1.
</event>
<event>
 7    1  0.2641580E-009  0.1228604E+03  0.7561462E-02  0.1238451E+00
         -1   -1    0    0    0  501 -0.00000000000E+00  0.00000000000E+00  0.16921486796E+03  0.16921486796E+03  0.00000000000E+00 0.  1.
          1   -1    0    0  501    0  0.00000000000E+00 -0.00000000000E+00 -0.11580475813E+03  0.11580475813E+03  0.00000000000E+00 0. -1.
         25    2    1    2    0    0  0.27172870418E+02 -0.81587940902E+02  0.47598363178E+02  0.15910424314E+03  0.12511434378E+03 0.  0.
          5    1    3    3  502    0 -0.12414243316E+02 -0.87969121119E+02  0.69819545706E+02  0.11307042527E+03  0.41800000000E+01 0.  1.
         -5    1    3    3    0  502  0.39587113734E+02  0.63811802169E+01 -0.22221182528E+02  0.46033817870E+02  0.41800000000E+01 0.  1.
        -11    1    1    2    0    0  0.88409614559E+01  0.79926773610E+02  0.26103559295E+02  0.84544943947E+02  0.00000000000E+00 0.  1.
         11    1    1    2    0    0 -0.36013831874E+02  0.16611672925E+01 -0.20291812650E+02  0.41370439007E+02  0.00000000000E+00 0. -1.
</event>
<event>
 7    1  0.2641580E-009  0.8229814E+02  0.7561462E-02  0.1322653E+00
          2   -1    0    0  501    0  0.00000000000E+00  0.00000000000E+00  0.29186893075E+03  0.29186893075E+03  0.00000000000E+00 0. -1.
         -2   -1    0    0    0  501 -0.00000000000E+00 -0.00000000000E+00 -0.54269663709E+02  0.54269663709E+02  0.00000000000E+00 0.  1.
         25    2    1    2    0    0  0.18125012896E+02 -0.36285522049E+02  0.69604751546E+02  0.14877118481E+03  0.12507153468E+03 0.  0.
          5    1    3    3  502    0 -0.17360156251E+02  0.23360372962E+02 -0.19847536369E+02  0.35475049681E+02  0.41800000000E+01 0. -1.
         -5    1    3    3    0  502  0.35485169147E+02 -0.59645895011E+02  0.89452287916E+02  0.11329613513E+03  0.41800000000E+01 0. -1.
        -11    1    1    2    0    0 -0.14808921537E+02 -0.10883675651E+02 -0.41548138273E+01  0.18842001770E+02  0.00000000000E+00 0. -1.
         11    1    1    2    0    0 -0.33160913595E+01  0.47169197700E+02  0.17214932932E+03  0.17852540788E+03  0.00000000000E+00 0.  1.
</event>
<event>
 7    1  0.2641580E-009  0.1032786E+03  0.7561462E-02  0.1273549E+00
          2   -1    0    0  501    0  0.00000000000E+00  0.00000000000E+00  0.81886401955E+02  0.81886401955E+02  0.00000000000E+00 0. -1.
         -2   -1    0    0    0  501 -0.00000000000E+00 -0.00000000000E+00 -0.25693256791E+03  0.25693256791E+03  0.00000000000E+00 0.  1.
         25    2    1    2    0    0 -0.81506841628E+02 -0.39817481285E+02 -0.13122662634E+03  0.20271688106E+03  0.12507961209E+03 0.  0.
          5    1    3    3  502    0 -0.60778028609E+02 -0.47111321896E+02 -0.15313313255E+03  0.17140791726E+03  0.41800000000E+01 0.  1.
         -5    1    3    3    0  502 -0.20728813019E+02  0.72938406112E+01  0.21906506217E+02  0.31308963807E+02  0.41800000000E+01 0.  1.
        -11    1    1    2    0    0  0.29633894631E+02  0.46225711794E+02 -0.60053235057E+02  0.81371832857E+02  0.00000000000E+00 0.  1.
         11    1    1    2    0    0  0.51872946997E+02 -0.64082305090E+01  0.16233695437E+02  0.54730255946E+02  0.00000000000E+00 0. -1.
</event>
<event>
 7    1  0.2641580E-009  0.1131560E+03  0.7561462E-02  0.1254835E+00
         -2   -1    0    0    0  501 -0.00000000000E+00  0.00000000000E+00  0.94932773832E+01  0.94932773832E+01  0.00000000000E+00 0.  1.
          2   -1    0    0  501    0  0.00000000000E+00 -0.00000000000E+00 -0.14381113385E+04  0.14381113385E+04  0.00000000000E+00 0. -1.
         25    2    1    2    0    0 -0.13667247264E+02 -0.37763701514E+02 -0.93184936135E+03  0.94106383793E+03  0.12508007044E+03 0.  0.
          5    1    3    3  502    0  0.54193070662E+02 -0.25202910219E+02 -0.34601150730E+03  0.35116023575E+03  0.41800000000E+01 0.  1.
         -5    1    3    3    0  502 -0.67860317926E+02 -0.12560791294E+02 -0.58583785405E+03  0.58990360218E+03  0.41800000000E+01 0.  1.
        -11    1    1    2    0    0  0.71515502983E+01 -0.29157675689E+02 -0.11266140524E+03  0.11659291126E+03  0.00000000000E+00 0.  1.
         11    1    1    2    0    0  0.65156969658E+01  0.66921377203E+02 -0.38410729453E+03  0.38994786671E+03  0.00000000000E+00 0. -1.
</event>
<event>
 7    1  0.2641580E-009  0.1111664E+03  0.7561462E-02  0.1258425E+00
         -2   -1    0    0    0  501 -0.00000000000E+00  0.00000000000E+00  0.14017713692E+02  0.14017713692E+02  0.00000000000E+00 0.  1.
          2   -1    0    0  501    0  0.00000000000E+00 -0.00000000000E+00 -0.14255752438E+04  0.14255752438E+04  0.00000000000E+00 0. -1.
         25    2    1    2    0    0  0.17548652158E+02 -0.43873581139E+02 -0.11572160274E+04  0.11649162331E+04  0.12509216560E+03 0.  0.
          5    1    3    3  502    0 -0.25619110689E+02  0.34575151167E+02 -0.44042636014E+03  0.44254336626E+03  0.41800000000E+01 0.  1.
         -5    1    3    3    0  502  0.43167762847E+02 -0.78448732306E+02 -0.71678966724E+03  0.72237286689E+03  0.41800000000E+01 0.  1.
        -11    1    1    2    0    0  0.29782748322E+02  0.10643455047E+02 -0.16670278723E+03  0.16967649956E+03  0.00000000000E+00 0. -1.
         11    1    1    2    0    0 -0.47331400480E+02  0.33230126092E+02 -0.87638715480E+02  0.10500022477E+03  0.00000000000E+00 0.  1.
</event>
<event>
 7    1  0.2641580E-009  0.9957039E+02  0.7561462E-02  0.1281202E+00
          2   -1    0    0  501    0  0.00000000000E+00  0.00000000000E+00  0.45315879509E+03  0.45315879509E+03  0.00000000000E+00 0. -1.
         -2   -1    0    0    0  501 -0.00000000000E+00 -0.00000000000E+00 -0.29978630324E+02  0.29978630324E+02  0.00000000000E+00 0.  1.
         25    2    1    2    0    0 -0.24860497230E+02  0.13789912697E+01  0.16863899518E+03  0.21143405503E+03  0.12508118559E+03 0.  0.
          5    1    3    3  502    0  0.13312727214E+02  0.52283107043E+02  0.11866157589E+03  0.13041776712E+03  0.41800000000E+01 0.  1.
         -5    1    3    3    0  502 -0.38173224444E+02 -0.50904115774E+02  0.49977419294E+02  0.81016287908E+02  0.41800000000E+01 0.  1.
        -11    1    1    2    0    0  0.45425728929E+02 -0.23428772991E+02  0.21997372896E+03  0.22583366819E+03  0.00000000000E+00 0. -1.
         11    1    1    2    0    0 -0.20565231699E+02  0.22049781721E+02  0.34567440616E+02  0.45869702196E+02  0.00000000000E+00 0.  1.
</event>
<event>
 7    1  0.2641580E-009  0.9807587E+02  0.7561462E-02  0.1284395E+00
          2   -1    0    0  501    0  0.00000000000E+00  0.00000000000E+00  0.93735391142E+02  0.93735391142E+02  0.00000000000E+00 0. -1.
         -2   -1    0    0    0  501 -0.00000000000E+00 -0.00000000000E+00 -0.13430338894E+03  0.13430338894E+03  0.00000000000E+00 0.  1.
         25    2    1    2    0    0  0.18324624078E+02 -0.89621101046E+01 -0.46839119490E+02  0.13510232082E+03  0.12507047098E+03 0.  0.
          5    1    3    3  502    0  0.60174026198E+02  0.11471108801E+01 -0.64556770175E+02  0.88358804132E+02  0.41800000000E+01 0. -1.
         -5    1    3    3    0  502 -0.41849402119E+02 -0.10109220985E+02  0.17717650686E+02  0.46743516689E+02  0.41800000000E+01 0. -1.
        -11    1    1    2    0    0 -0.52368163396E+01 -0.40788324539E+02  0.54850429252E+01  0.41487315651E+02  0.00000000000E+00 0. -1.
         11    1    1    2    0    0 -0.13087807739E+02  0.49750434644E+02  0.78607876315E+00  0.51449143612E+02  0.00000000000E+00 0.  1.
</event>
<event>
 7    1  0.2641580E-009  0.1352391E+03  0.7561462E-02  0.1219883E+00
         -1   -1    0    0    0  501 -0.00000000000E+00  0.00000000000E+00  0.53903409512E+02  0.53903409512E+02  0.00000000000E+00 0.  1.
          1   -1    0    0  501    0  0.00000000000E+00 -0.00000000000E+00 -0.73898601046E+03  0.73898601046E+03  0.00000000000E+00 0. -1.
         25    2    1    2    0    0 -0.82376255877E+02  0.59556695488E+02 -0.62196233574E+03  0.64250865008E+03  0.12508945136E+03 0.  0.
          5    1    3    3  502    0  0.31584275008E+02  0.83474858403E+01 -0.18952694938E+03  0.19236731502E+03  0.41800000000E+01 0. -1.
         -5    1    3    3    0  502 -0.11396053089E+03  0.51209209648E+02 -0.43243538636E+03  0.45014133506E+03  0.41800000000E+01 0. -1.
        -11    1    1    2    0    0  0.54381405664E+02 -0.95318990036E+01 -0.73701082946E+02  0.92087154413E+02  0.00000000000E+00 0. -1.
         11    1    1    2    0    0  0.27994850214E+02 -0.50024796485E+02  0.10580817735E+02  0.58293615480E+02  0.00000000000E+00 0.  1.
</event>
<event>
 6    1  0.2641580E-009  0.2345975E+03  0.7561462E-02  0.1123445E+00
          1   -1    0    0  501    0  0.00000000000E+00  0.00000000000E+00  0.11631539336E+04  0.11631539336E+04  0.00000000000E+00 0.  1.
         -1   -1    0    0    0  501 -0.00000000000E+00 -0.00000000000E+00 -0.53936783793E+02  0.53936783793E+02  0.00000000000E+00 0. -1.
          5    1    1    2  502    0  0.79760768579E+02  0.65211939572E+02  0.19939791612E+03  0.22448024104E+03  0.41800000000E+01 0. -1.
         -5    1    1    2    0  502  0.13334283388E+03 -0.23051756168E+02  0.51960559056E+03  0.53695357058E+03  0.41800000000E+01 0. -1.
        -11    1    1    2    0    0 -0.11178191461E+02 -0.25793317892E+02  0.83251849084E+02  0.87869890111E+02  0.00000000000E+00 0.  1.
         11    1    1    2    0    0 -0.20192541100E+03 -0.16366865512E+02  0.30696179409E+03  0.36778701571E+03  0.00000000000E+00 0. -1.
</event>
<event>
 7    1  0.2641580E-009  0.1442769E+03  0.7561462E-02  0.1207687E+00
          2   -1    0    0  501    0  0.00000000000E+00  0.00000000000E+00  0.86675624617E+02  0.86675624617E+02  0.00000000000E+00 0. -1.
         -2   -1    0    0    0  501 -0.00000000000E+00 -0.00000000000E+00 -0.36173721861E+03  0.36173721861E+03  0.00000000000E+00 0.  1.
         25    2    1    2    0    0  0.86655028778E+02  0.54095630569E+02 -0.24533990169E+02  0.16335176073E+03  0.12508576977E+03 0.  0.
          5    1    3    3  502    0 -0.22629570262E+01  0.65219500869E+02 -0.32994980085E+02  0.73245104812E+02  0.41800000000E+01 0.  1.
         -5    1    3    3    0  502  0.88917985804E+02 -0.11123870300E+02  0.84609899163E+01  0.90106655916E+02  0.41800000000E+01 0.  1.
        -11    1    1    2    0    0 -0.24989890290E+02  0.23523575112E+02 -0.90818197097E+02  0.97086549669E+02  0.00000000000E+00 0.  1.
         11    1    1    2    0    0 -0.61665138488E+02 -0.77619205681E+02 -0.15970940672E+03  0.18797453283E+03  0.00000000000E+00 0. -1.
</event>
<event>
 7    1  0.2641580E-009  0.1482052E+03  0.7561462E-02  0.1202696E+00
         -2   -1    0    0    0  501 -0.00000000000E+00  0.00000000000E+00  0.17879236791E+03  0.17879236791E+03  0.00000000000E+00 0. -1.
          2   -1    0    0  501    0  0.00000000000E+00 -0.00000000000E+00 -0.23030905772E+03  0.23030905772E+03  0.00000000000E+00 0.  1.
         25    2    1    2    0    0  0.10722361271E+03  0.70927210426E+02  0.87163823418E+02  0.19943110856E+03  0.12509061774E+03 0.  0.
          5    1    3    3  502    0 -0.17283811143E+01 -0.16762962190E+02 -0.17534413153E+02  0.24676147335E+02  0.41800000000E+01 0. -1.
         -5    1    3    3    0  502  0.10895199382E+03  0.87690172616E+02  0.10469823657E+03  0.17475496122E+03  0.41800000000E+01 0. -1.
        -11    1    1    2    0    0 -0.68669515120E+02 -0.13538515931E+02 -0.11853801951E+03  0.13765920161E+03  0.00000000000E+00 0.  1.
         11    1    1    2    0    0 -0.38554097585E+02 -0.57388694495E+02 -0.20142493727E+02  0.72011115461E+02  0.00000000000E+00 0. -1.
</event>
<event>
 7    1  0.2641580E-009  0.9972881E+02  0.7561462E-02  0.1280867E+00
          2   -1    0    0  501    0  0.00000000000E+00  0.00000000000E+00  0.51519449523E+03  0.51519449523E+03  0.00000000000E+00 0. -1.
         -2   -1    0    0    0  501 -0.00000000000E+00 -0.00000000000E+00 -0.27952436746E+02  0.27952436746E+02  0.00000000000E+00 0.  1.
         25    2    1    2    0    0 -0.30612410597E+02  0.44269840157E+02  0.28909336111E+03  0.31956260083E+03  0.12509334906E+03 0.  0.
          5    1    3    3  502    0 -0.54681095044E+02 -0.19820293504E+02  0.19219309747E+03  0.20084453019E+03  0.41800000000E+01 0.  1.
         -5    1    3    3    0  502  0.24068684447E+02  0.64090133662E+02  0.96900263637E+02  0.11871807064E+03  0.41800000000E+01 0.  1.
        -11    1    1    2    0    0 -0.21703699243E+01 -0.39346996423E+02  0.18289641833E+03  0.18709355005E+03  0.00000000000E+00 0. -1.
         11    1    1    2    0    0  0.32782780521E+02 -0.49228437348E+01  0.15252279047E+02  0.36490781099E+02  0.00000000000E+00 0.  1.
</event>
<event>
 7    1  0.2641580E-009  0.1729566E+03  0.7561462E-02  0.1174799E+00
         -2   -1    0    0    0  501 -0.00000000000E+00  0.00000000000E+00  0.42486953964E+02  0.42486953964E+02  0.00000000000E+00 0.  1.
          2   -1    0    0  501    0  0.00000000000E+00 -0.00000000000E+00 -0.88444369707E+03  0.88444369707E+03  0.00000000000E+00 0. -1.
         25    2    1    2    0    0  0.46169762541E+02  0.15163102656E+03 -0.49635993773E+03  0.53585863862E+03  0.12509067755E+03 0.  0.
          5    1    3    3  502    0  0.15724361022E+02  0.11025553344E+03 -0.45864976371E+03  0.47199641560E+03  0.41800000000E+01 0. -1.
         -5    1    3    3    0  502  0.30445401519E+02  0.41375493125E+02 -0.37710174018E+02  0.63862223023E+02  0.41800000000E+01 0. -1.
        -11    1    1    2    0    0 -0.50924565737E+02 -0.25953804706E+02 -0.10187908123E+03  0.11681720150E+03  0.00000000000E+00 0. -1.
         11    1    1    2    0    0  0.47548031965E+01 -0.12567722185E+03 -0.24371772415E+03  0.27425481092E+03  0.00000000000E+00 0.  1.
</event>
<event>
 6    1  0.2641580E-009  0.1044387E+03  0.7561462E-02  0.1271229E+00
          1   -1    0    0  501    0  0.00000000000E+00  0.00000000000E+00  0.10974369933E+03  0.10974369933E+03  0.00000000000E+00 0. -1.
         -1   -1    0    0    0  501 -0.00000000000E+00 -0.00000000000E+00 -0.12130385084E+03  0.12130385084E+03  0.00000000000E+00 0.  1.
          5    1    1    2  502    0 -0.59924864100E+00  0.73451050020E+02  0.99796493862E+01  0.74246088448E+02  0.41800000000E+01 0. -1.
         -5    1    1    2    0  502 -0.10705549802E+02 -0.43134937071E+02 -0.36796763405E+02  0.57850719873E+02  0.41800000000E+01 0. -1.
        -11    1    1    2    0    0  0.29684538960E+02  0.20865172514E+02  0.24511541043E+02  0.43787474483E+02  0.00000000000E+00 0.  1.
         11    1    1    2    0    0 -0.18379740516E+02 -0.51181285463E+02 -0.92545785326E+01  0.55163267369E+02  0.00000000000E+00 0. -1.
</event>
<event>
 7    1  0.2641580E-009  0.1053780E+03  0.7561462E-02  0.1269377E+00
         -1   -1    0    0    0  501 -0.00000000000E+00  0.00000000000E+00  0.10608301724E+03  0.10608301724E+03  0.00000000000E+00 0.  1.
          1   -1    0    0  501    0  0.00000000000E+00 -0.00000000000E+00 -0.17596430500E+03  0.17596430500E+03  0.00000000000E+00 0. -1.
         25    2    1    2    0    0  0.19128774206E+02 -0.79320818608E+02 -0.41675516257E+02  0.15504956335E+03  0.12508323698E+03 0.  0.
          5    1    3    3  502    0 -0.34424014046E+02 -0.35757333862E+01 -0.50943948640E+02  0.61729708531E+02  0.41800000000E+01 0.  1.
         -5    1    3    3    0  502  0.53552788253E+02 -0.75745085221E+02  0.92684323824E+01  0.93319854820E+02  0.41800000000E+01 0.  1.
        -11    1    1    2    0    0 -0.11889803484E+02  0.71081779814E+02  0.22201234974E+02  0.75411416131E+02  0.00000000000E+00 0.  1.
         11    1    1    2    0    0 -0.72389707225E+01  0.82390387932E+01 -0.50407006480E+02  0.51586342762E+02  0.00000000000E+00 0. -1.
</event>
<event>
 7    1  0.2641580E-009  0.1051864E+03  0.7561462E-02  0.1269753E+00
         -2   -1    0    0    0  501 -0.00000000000E+00  0.00000000000E+00  0.40982116101E+03  0.40982116101E+03  0.00000000000E+00 0. -1.
          2   -1    0    0  501    0  0.00000000000E+00 -0.00000000000E+00 -0.32737921931E+02  0.32737921931E+02  0.00000000000E+00 0.  1.
         25    2    1    2    0    0  0.28092063174E+02  0.25329766197E+02  0.17880575455E+03  0.22147342273E+03  0.12509283770E+03 0.  0.
          5    1    3    3  502    0 -0.11765363096E+02 -0.38769423121E+02  0.11680856870E+03  0.12370612782E+03  0.41800000000E+01 0. -1.
         -5    1    3    3    0  502  0.39857426271E+02  0.64099189319E+02  0.61997185853E+02  0.97767294910E+02  0.41800000000E+01 0. -1.
        -11    1    1    2    0    0  0.29608916351E+02  0.30096774768E+01  0.93867086936E+02  0.98472209764E+02  0.00000000000E+00 0. -1.
         11    1    1    2    0    0 -0.57700979525E+02 -0.28339443674E+02  0.10441039759E+03  0.12261345044E+03  0.00000000000E+00 0.  1.
</event>
<event>
 7    1  0.2649969E-009  0.1002107E+03  0.7561462E-02  0.1279853E+00
         -2   -1    0    0    0  501 -0.00000000000E+00  0.00000000000E+00  0.28220521641E+02  0.28220521641E+02  0.00000000000E+00 0.  1.
          2   -1    0    0  501    0  0.00000000000E+00 -0.00000000000E+00 -0.67850324988E+03  0.67850324988E+03  0.00000000000E+00 0. -1.
         25    2    1    2    0    0  0.77856743743E+02 -0.60128103807E+01 -0.44363302445E+03  0.46749931954E+03  0.12509007535E+03 0.  0.
          5    1    3    3  502    0  0.89302431583E+02 -0.86498814557E+00 -0.15785132025E+03  0.18141164294E+03  0.41800000000E+01 0. -1.
         -5    1    3    3    0  502 -0.11445687839E+02 -0.51478222352E+01 -0.28578170420E+03  0.28608767659E+03  0.41800000000E+01 0. -1.
        -11    1    1    2    0    0 -0.53986392642E+02  0.31795049236E+02 -0.54405349705E+02  0.82978297301E+02  0.00000000000E+00 0.  1.
         11    1    1    2    0    0 -0.23870351101E+02 -0.25782238856E+02 -0.15224435409E+03  0.15624615468E+03  0.00000000000E+00 0. -1.
</event>
<event>
 7    1  0.2641580E-009  0.1397474E+03  0.7561462E-02  0.1213669E+00
          1   -1    0    0  501    0  0.00000000000E+00  0.00000000000E+00  0.97430241335E+02  0.97430241335E+02  0.00000000000E+00 0. -1.
         -1   -1    0    0    0  501 -0.00000000000E+00 -0.00000000000E+00 -0.24876426785E+03  0.24876426785E+03  0.00000000000E+00 0.  1.
         25    2    1    2    0    0  0.82553809154E+02 -0.68991154729E+02 -0.48413784042E+02  0.17194800837E+03  0.12508921720E+03 0.  0.
          5    1    3    3  502    0 -0.20393763713E+02  0.11727959251E+02 -0.32147406278E+02  0.40054697066E+02  0.41800000000E+01 0. -1.
         -5    1    3    3    0  502  0.10294757287E+03 -0.80719113980E+02 -0.16266377764E+02  0.13189331130E+03  0.41800000000E+01 0. -1.
        -11    1    1    2    0    0 -0.43313867425E+02 -0.22596837963E+01 -0.39706277689E+00  0.43374588655E+02  0.00000000000E+00 0.  1.
         11    1    1    2    0    0 -0.39239941729E+02  0.71250838525E+02 -0.10252317969E+03  0.13087191216E+03  0.00000000000E+00 0. -1.
</event>
<event>
 7    1  0.2641580E-009  0.7201951E+02  0.7561462E-02  0.1353357E+00
          1   -1    0    0  501    0  0.00000000000E+00  0.00000000000E+00  0.27259743953E+03  0.27259743953E+03  0.00000000000E+00 0. -1.
         -1   -1    0    0    0  501 -0.00000000000E+00 -0.00000000000E+00 -0.43553978966E+02  0.43553978966E+02  0.00000000000E+00 0.  1.
         25    2    1    2    0    0 -0.50103836527E+01 -0.11072711161E+02  0.13054444428E+03  0.18121031838E+03  0.12509044200E+03 0.  0.
          5    1    3    3  502    0  0.14581091263E+02  0.15972244339E+02  0.14347485152E+03  0.14515586874E+03  0.41800000000E+01 0. -1.
         -5    1    3    3    0  502 -0.19591474916E+02 -0.27044955499E+02 -0.12930407245E+02  0.36054449640E+02  0.41800000000E+01 0. -1.
        -11    1    1    2    0    0 -0.19141832083E+02  0.43731080111E+02  0.72190749117E+02  0.86546642692E+02  0.00000000000E+00 0. -1.
         11    1    1    2    0    0  0.24152215735E+02 -0.32658368951E+02  0.26308267168E+02  0.48394457419E+02  0.00000000000E+00 0.  1.
</event>
<event>
 7    1  0.2641580E-009  0.1045176E+03  0.7561462E-02  0.1271073E+00
          2   -1    0    0  501    0  0.00000000000E+00  0.00000000000E+00  0.11974905657E+02  0.11974905657E+02  0.00000000000E+00 0. -1.
         -2   -1    0    0    0  501 -0.00000000000E+00 -0.00000000000E+00 -0.12768956720E+04  0.12768956720E+04  0.00000000000E+00 0.  1.
         25    2    1    2    0    0 -0.10913814255E+02 -0.33000987389E+02 -0.96245209242E+03  0.97116885215E+03  0.12508690050E+03 0.  0.
          5    1    3    3  502    0 -0.36779104589E+02 -0.70981762547E+02 -0.49332564683E+03  0.49977873041E+03  0.41800000000E+01 0.  1.
         -5    1    3    3    0  502  0.25865290334E+02  0.37980775158E+02 -0.46912644559E+03  0.47139012174E+03  0.41800000000E+01 0.  1.
        -11    1    1    2    0    0 -0.26896964313E+02  0.35968542408E+02 -0.77625870134E+02  0.89682542595E+02  0.00000000000E+00 0.  1.
         11    1    1    2    0    0  0.37810778568E+02 -0.29675550188E+01 -0.22484280374E+03  0.22801918286E+03  0.00000000000E+00 0. -1.
</event>
<event>
 7    1  0.2641580E-009  0.1601254E+03  0.7561462E-02  0.1188555E+00
          1   -1    0    0  501    0  0.00000000000E+00  0.00000000000E+00  0.21058297200E+04  0.21058297200E+04  0.00000000000E+00 0. -1.
         -1   -1    0    0    0  501 -0.00000000000E+00 -0.00000000000E+00 -0.14009128975E+02  0.14009128975E+02  0.00000000000E+00 0.  1.
         25    2    1    2    0    0  0.11892467207E+03 -0.46981045547E+02  0.13170536220E+04  0.13291456688E+04  0.12509064526E+03 0.  0.
          5    1    3    3  502    0  0.11684626239E+03 -0.71799710011E+02  0.12497648838E+04  0.12572740293E+04  0.41800000000E+01 0.  1.
         -5    1    3    3    0  502  0.20784096751E+01  0.24818664464E+02  0.67288738110E+02  0.71871639531E+02  0.41800000000E+01 0.  1.
        -11    1    1    2    0    0 -0.11989407214E+02  0.49393235663E+02  0.26343691552E+03  0.26829544550E+03  0.00000000000E+00 0.  1.
         11    1    1    2    0    0 -0.10693526485E+03 -0.24121901164E+01  0.51133005352E+03  0.52239773464E+03  0.00000000000E+00 0. -1.
</event>
<event>
 7    1  0.2641580E-009  0.1007273E+03  0.7561462E-02  0.1278774E+00
          2   -1    0    0  501    0  0.00000000000E+00  0.00000000000E+00  0.54958084188E+03  0.54958084188E+03  0.00000000000E+00 0.  1.
         -2   -1    0    0    0  501 -0.00000000000E+00 -0.00000000000E+00 -0.34436891837E+02  0.34436891837E+02  0.00000000000E+00 0. -1.
         25    2    1    2    0    0  0.76896801265E+02  0.24290199924E+02  0.33962087657E+03  0.37080079758E+03  0.12509100619E+03 0.  0.
          5    1    3    3  502    0  0.68787101723E+02  0.26892103232E+02  0.34941804269E+03  0.35716283617E+03  0.41800000000E+01 0. -1.
         -5    1    3    3    0  502  0.81096995418E+01 -0.26019033085E+01 -0.97971661239E+01  0.13637961415E+02  0.41800000000E+01 0. -1.
        -11    1    1    2    0    0 -0.22449759337E+02  0.32382176333E+02  0.82598342613E+02  0.91515480881E+02  0.00000000000E+00 0. -1.
         11    1    1    2    0    0 -0.54447041928E+02 -0.56672376257E+02  0.92924730858E+02  0.12170145525E+03  0.00000000000E+00 0.  1.
</event>
<event>
 7    1  0.2641580E-009  0.9032218E+02  0.7561462E-02  0.1302073E+00
         -2   -1    0    0    0  501 -0.00000000000E+00  0.00000000000E+00  0.27415271314E+03  0.27415271314E+03  0.00000000000E+00 0.  1.
          2   -1    0    0  501    0  0.00000000000E+00 -0.00000000000E+00 -0.67168932685E+02  0.67168932685E+02  0.00000000000E+00 0. -1.
         25    2    1    2    0    0 -0.66251738447E+02  0.31293626747E+02  0.65073130458E+02  0.15890647133E+03  0.12509264726E+03 0.  0.
          5    1    3    3  502    0 -0.70855087492E+02  0.37586119478E+02  0.96908656343E+02  0.12586468875E+03  0.41800000000E+01 0.  1.
         -5    1    3    3    0  502  0.46033490449E+01 -0.62924927305E+01 -0.31835525885E+02  0.33041782572E+02  0.41800000000E+01 0.  1.
        -11    1    1    2    0    0  0.32956675908E+02  0.13546668423E+02  0.68801108316E+01  0.36290365627E+02  0.00000000000E+00 0. -1.
         11    1    1    2    0    0  0.33295062539E+02 -0.44840295170E+02  0.13503053916E+03  0.14612480887E+03  0.00000000000E+00 0.  1.
</event>
<event>
 7    1  0.2641580E-009  0.8892465E+02  0.7561462E-02  0.1305477E+00
         -1   -1    0    0    0  501 -0.00000000000E+00  0.00000000000E+00  0.10385956692E+03  0.10385956692E+03  0.00000000000E+00 0.  1.
          1   -1    0    0  501    0  0.00000000000E+00 -0.00000000000E+00 -0.15437968495E+03  0.15437968495E+03  0.00000000000E+00 0. -1.
         25    2    1    2    0    0 -0.10003667249E+02 -0.58174048440E+02 -0.62121377741E+02  0.15162548025E+03  0.12508767892E+03 0.  0.
          5    1    3    3  502    0  0.44662871052E+01  0.14794379242E+02  0.29481540734E+02  0.33547802040E+02  0.41800000000E+01 0.  1.
         -5    1    3    3    0  502 -0.14469954354E+02 -0.72968427682E+02 -0.91602918475E+02  0.11807767821E+03  0.41800000000E+01 0.  1.
        -11    1    1    2    0    0 -0.26322848495E+02  0.12978407472E+02  0.33584922955E+02  0.44601328044E+02  0.00000000000E+00 0.  1.
         11    1    1    2    0    0  0.36326515744E+02  0.45195640968E+02 -0.21983663246E+02  0.62012443576E+02  0.00000000000E+00 0. -1.
</event>
<event>
 7    1  0.3019363E-009  0.8515743E+02  0.7561462E-02  0.1315021E+00
          1   -1    0    0  501    0  0.00000000000E+00  0.00000000000E+00  0.37639845528E+03  0.37639845528E+03  0.00000000000E+00 0. -1.
         -1   -1    0    0    0  501 -0.00000000000E+00 -0.00000000000E+00 -0.42005065211E+02  0.42005065211E+02  0.00000000000E+00 0.  1.
         25    2    1    2    0    0 -0.14828699406E+01  0.62842395556E+02  0.17614737322E+03  0.22500186575E+03  0.12508627788E+03 0.  0.
          5    1    3    3  502    0  0.31062492955E+02  0.39611390461E+01  0.14903543256E+03  0.15234697781E+03  0.41800000000E+01 0.  1.
         -5    1    3    3    0  502 -0.32545362895E+02  0.58881256510E+02  0.27111940663E+02  0.72654887934E+02  0.41800000000E+01 0.  1.
        -11    1    1    2    0    0 -0.15888972956E+02 -0.35898920424E+02  0.83764844132E+01  0.40141716958E+02  0.00000000000E+00 0.  1.
         11    1    1    2    0    0  0.17371842897E+02 -0.26943475132E+02  0.14986953243E+03  0.15325993779E+03  0.00000000000E+00 0. -1.
</event>
<event>
 7    1  0.2641580E-009  0.1092797E+03  0.7561462E-02  0.1261910E+00
         -4   -1    0    0    0  501 -0.00000000000E+00  0.00000000000E+00  0.31491371950E+03  0.31491371950E+03  0.00000000000E+00 0.  1.
          4   -1    0    0  501    0  0.00000000000E+00 -0.00000000000E+00 -0.46585911586E+02  0.46585911586E+02  0.00000000000E+00 0. -1.
         25    2    1    2    0    0 -0.20346981706E+02  0.60899015224E+02  0.19836363616E+03  0.24313997831E+03  0.12508487991E+03 0.  0.
          5    1    3    3  502    0 -0.23756302759E+02 -0.26530886658E+02  0.13035127743E+02  0.38152808847E+02  0.41800000000E+01 0. -1.
         -5    1    3    3    0  502  0.34093210528E+01  0.87429901882E+02  0.18532850842E+03  0.20498716946E+03  0.41800000000E+01 0. -1.
        -11    1    1    2    0    0 -0.25937343820E+02 -0.15200280586E+02  0.17428428518E+02  0.34749740358E+02  0.00000000000E+00 0.  1.
         11    1    1    2    0    0  0.46284325526E+02 -0.45698734637E+02  0.52535743237E+02  0.83609912417E+02  0.00000000000E+00 0. -1.
</event>
<event>
 7    1  0.2641580E-009  0.1279157E+03  0.7561462E-02  0.1230582E+00
         -1   -1    0    0    0  501 -0.00000000000E+00  0.00000000000E+00  0.42174031624E+02  0.42174031624E+02  0.00000000000E+00 0.  1.
          1   -1    0    0  501    0  0.00000000000E+00 -0.00000000000E+00 -0.59487385283E+03  0.59487385283E+03  0.00000000000E+00 0. -1.
         25    2    1    2    0    0 -0.20365433806E+02 -0.11008872371E+03 -0.34857954446E+03  0.38689702531E+03  0.12508929368E+03 0.  0.
          5    1    3    3  502    0 -0.48096526326E+02 -0.26826053717E+02 -0.24465111816E+03  0.25080780494E+03  0.41800000000E+01 0.  1.
         -5    1    3    3    0  502  0.27731092519E+02 -0.83262669998E+02 -0.10392842631E+03  0.13608922038E+03  0.41800000000E+01 0.  1.
        -11    1    1    2    0    0  0.87578807089E+01  0.80234338553E+02 -0.55096440041E+02  0.97723422283E+02  0.00000000000E+00 0.  1.
         11    1    1    2    0    0  0.11607553097E+02  0.29854385162E+02 -0.14902383670E+03  0.15242743686E+03  0.00000000000E+00 0. -1.
</event>
<event>
 7    1  0.2641580E-009  0.2403499E+03  0.7561462E-02  0.1119560E+00
         -4   -1    0    0    0  501 -0.00000000000E+00  0.00000000000E+00  0.92717786489E+03  0.92717786489E+03  0.00000000000E+00 0. -1.
          4   -1    0    0  501    0  0.00000000000E+00 -0.00000000000E+00 -0.12160004606E+03  0.12160004606E+03  0.00000000000E+00 0.  1.
         25    2    1    2    0    0  0.14008381090E+03  0.17345147875E+03  0.76232957950E+03  0.80404781450E+03  0.12505043244E+03 0.  0.
          5    1    3    3  502    0 -0.13318905799E+02  0.58519277661E+02  0.24661676206E+03  0.25384877159E+03  0.41800000000E+01 0. -1.
         -5    1    3    3    0  502  0.15340271670E+03  0.11493220109E+03  0.51571281744E+03  0.55019904291E+03  0.41800000000E+01 0. -1.
        -11    1    1    2    0    0 -0.90585544045E+02 -0.14705082285E+03 -0.18952121734E+01  0.17272312271E+03  0.00000000000E+00 0.  1.
         11    1    1    2    0    0 -0.49498266859E+02 -0.26400655903E+02  0.45143451502E+02  0.72006973743E+02  0.00000000000E+00 0. -1.
</event>
<event>
 7    1  0.2641580E-009  0.9286555E+02  0.7561462E-02  0.1296057E+00
         -1   -1    0    0    0  501 -0.00000000000E+00  0.00000000000E+00  0.17725496973E+03  0.17725496973E+03  0.00000000000E+00 0.  1.
          1   -1    0    0  501    0  0.00000000000E+00 -0.00000000000E+00 -0.92871804797E+02  0.92871804797E+02  0.00000000000E+00 0. -1.
         25    2    1    2    0    0 -0.15410129184E+02 -0.31399822753E+02 -0.15672636104E+02  0.13083843606E+03  0.12509853668E+03 0.  0.
          5    1    3    3  502    0 -0.38037043922E+01 -0.63301303329E+02  0.32796183690E+02  0.71516328449E+02  0.41800000000E+01 0. -1.
         -5    1    3    3    0  502 -0.11606424792E+02  0.31901480576E+02 -0.48468819794E+02  0.59322107613E+02  0.41800000000E+01 0. -1.
        -11    1    1    2    0    0 -0.16692697065E+01  0.57095741377E+02  0.90444783213E+02  0.10697181384E+03  0.00000000000E+00 0.  1.
         11    1    1    2    0    0  0.17079398891E+02 -0.25695918624E+02  0.96110178200E+01  0.32316524627E+02  0.00000000000E+00 0. -1.
</event>
<event>
 7    1  0.2641580E-009  0.2045013E+03  0.7561462E-02  0.1145996E+00
          2   -1    0    0  501    0  0.00000000000E+00  0.00000000000E+00  0.13448023256E+03  0.13448023256E+03  0.00000000000E+00 0. -1.
         -2   -1    0    0    0  501 -0.00000000000E+00 -0.00000000000E+00 -0.53204125249E+03  0.53204125249E+03  0.00000000000E+00 0.  1.
         25    2    1    2    0    0  0.11849502748E+03  0.15687791464E+03 -0.38385778699E+03  0.44905209845E+03  0.12509690187E+03 0.  0.
          5    1    3    3  502    0  0.30431451818E+02  0.97119950827E+02 -0.28900697864E+03  0.30643247904E+03  0.41800000000E+01 0. -1.
         -5    1    3    3    0  502  0.88063575662E+02  0.59757963810E+02 -0.94850808344E+02  0.14261961941E+03  0.41800000000E+01 0. -1.
        -11    1    1    2    0    0 -0.97763589208E+02 -0.98914752751E+02 -0.47846922475E+02  0.14707540813E+03  0.00000000000E+00 0.  1.
         11    1    1    2    0    0 -0.20731438271E+02 -0.57963161887E+02  0.34143689534E+02  0.70393978462E+02  0.00000000000E+00 0. -1.
</event>
<event>
 7    1  0.2641580E-009  0.2398547E+03  0.7561462E-02  0.1119890E+00
         -2   -1    0    0    0  501 -0.00000000000E+00  0.00000000000E+00  0.22079218991E+03  0.22079218991E+03  0.00000000000E+00 0.  1.
          2   -1    0    0  501    0  0.00000000000E+00 -0.00000000000E+00 -0.28030416368E+03  0.28030416368E+03  0.00000000000E+00 0. -1.
         25    2    1    2    0    0 -0.20637180755E+03 -0.84071729736E+02 -0.42253584876E+02  0.25901682365E+03  0.12508785237E+03 0.  0.
          5    1    3    3  502    0 -0.33811773686E+02 -0.74972687237E+02 -0.19958212345E+02  0.84734541430E+02  0.41800000000E+01 0. -1.
         -5    1    3    3    0  502 -0.17256003386E+03 -0.90990424992E+01 -0.22295372531E+02  0.17428228222E+03  0.41800000000E+01 0. -1.
        -11    1    1    2    0    0  0.82091760918E+02  0.19161372976E+02 -0.50116399303E+02  0.98070734188E+02  0.00000000000E+00 0. -1.
         11    1    1    2    0    0  0.12428004663E+03  0.64910356760E+02  0.32858010405E+02  0.14400879575E+03  0.00000000000E+00 0.  1.
</event>
<event>
 7    1  0.2641580E-009  0.7776229E+02  0.7561462E-02  0.1335524E+00
          2   -1    0    0  501    0  0.00000000000E+00  0.00000000000E+00  0.44382668190E+03  0.44382668190E+03  0.00000000000E+00 0. -1.
         -2   -1    0    0    0  501 -0.00000000000E+00 -0.00000000000E+00 -0.34526147320E+02  0.34526147320E+02  0.00000000000E+00 0.  1.
         25    2    1    2    0    0  0.38628944053E+02  0.28426884923E+02  0.15834640532E+03  0.20741504772E+03  0.12508850801E+03 0.  0.
          5    1    3    3  502    0  0.13188051871E+02  0.32182418160E+02  0.17368420213E+03  0.17718156569E+03  0.41800000000E+01 0. -1.
         -5    1    3    3    0  502  0.25440892182E+02 -0.37555332371E+01 -0.15337796805E+02  0.30233482031E+02  0.41800000000E+01 0. -1.
        -11    1    1    2    0    0 -0.27842653461E+02  0.26515983044E+02  0.54758719173E+02  0.66909102774E+02  0.00000000000E+00 0.  1.
         11    1    1    2    0    0 -0.10786290591E+02 -0.54942867967E+02  0.19619541008E+03  0.20402867873E+03  0.00000000000E+00 0. -1.
</event>
<event>
 7    1  0.2641580E-009  0.2321510E+03  0.7561462E-02  0.1125135E+00
          3   -1    0    0  501    0  0.00000000000E+00  0.00000000000E+00  0.22557923211E+04  0.22557923211E+04  0.00000000000E+00 0. -1.
         -3   -1    0    0    0  501 -0.00000000000E+00 -0.00000000000E+00 -0.33377870568E+02  0.33377870568E+02  0.00000000000E+00 0.  1.
         25    2    1    2    0    0  0.11535954336E+03  0.18844520768E+03  0.16415232269E+04  0.16610434543E+04  0.12508969654E+03 0.  0.
          5    1    3    3  502    0  0.80774846390E+02  0.84260771656E+02  0.46662291958E+03  0.48101858064E+03  0.41800000000E+01 0.  1.
         -5    1    3    3    0  502  0.34584696970E+02  0.10418443603E+03  0.11749003073E+04  0.11800248737E+04  0.41800000000E+01 0.  1.
        -11    1    1    2    0    0 -0.91598243241E+02 -0.65948883712E+02  0.30903650116E+03  0.32900311925E+03  0.00000000000E+00 0.  1.
         11    1    1    2    0    0 -0.23761300119E+02 -0.12249632397E+03  0.27185472254E+03  0.29912361815E+03  0.00000000000E+00 0. -1.
</event>
<event>
 7    1  0.2641580E-009  0.1754779E+03  0.7561462E-02  0.1172253E+00
         -1   -1    0    0    0  501 -0.00000000000E+00  0.00000000000E+00  0.25289667904E+02  0.25289667904E+02  0.00000000000E+00 0.  1.
          1   -1    0    0  501    0  0.00000000000E+00 -0.00000000000E+00 -0.14056893779E+04  0.14056893779E+04  0.00000000000E+00 0. -1.
         25    2    1    2    0    0  0.10893275341E+03  0.10853605455E+03 -0.69608184088E+03  0.72375693989E+03  0.12509100261E+03 0.  0.
          5    1    3    3  502    0  0.37279051293E+02 -0.76141447390E+01 -0.47722921925E+02  0.61177222415E+02  0.41800000000E+01 0.  1.
         -5    1    3    3    0  502  0.71653702117E+02  0.11615019928E+03 -0.64835891896E+03  0.66257971748E+03  0.41800000000E+01 0.  1.
        -11    1    1    2    0    0 -0.50331146741E+02 -0.10616414677E+03 -0.39900609740E+03  0.41594460707E+03  0.00000000000E+00 0.  1.
         11    1    1    2    0    0 -0.58601606669E+02 -0.23719077777E+01 -0.28531177175E+03  0.29127749888E+03  0.00000000000E+00 0. -1.
</event>
<event>
 7    1  0.2641580E-009  0.2178471E+03  0.7561462E-02  0.1135498E+00
          1   -1    0    0  501    0  0.00000000000E+00  0.00000000000E+00  0.22534272251E+03  0.22534272251E+03  0.00000000000E+00 0. -1.
         -1   -1    0    0    0  501 -0.00000000000E+00 -0.00000000000E+00 -0.23543900109E+03  0.23543900109E+03  0.00000000000E+00 0.  1.
         25    2    1    2    0    0 -0.69294376743E+02 -0.17920026428E+03  0.60687114362E+02  0.23715466328E+03  0.12507982691E+03 0.  0.
          5    1    3    3  502    0 -0.10008522851E+03 -0.11018549170E+03  0.62371821316E+02  0.16144848107E+03  0.41800000000E+01 0. -1.
         -5    1    3    3    0  502  0.30790851768E+02 -0.69014772580E+02 -0.16847069543E+01  0.75706182207E+02  0.41800000000E+01 0. -1.
        -11    1    1    2    0    0  0.85457666392E+02  0.17443193646E+03 -0.58789287655E+02  0.20294258682E+03  0.00000000000E+00 0. -1.
         11    1    1    2    0    0 -0.16163289649E+02  0.47683278174E+01 -0.11994105286E+02  0.20684473503E+02  0.00000000000E+00 0.  1.
</event>
<event>
 7    1  0.2641580E-009  0.9589496E+02  0.7561462E-02  0.1289173E+00
          1   -1    0    0  501    0  0.00000000000E+00  0.00000000000E+00  0.12730438654E+03  0.12730438654E+03  0.00000000000E+00 0. -1.
         -1   -1    0    0    0  501 -0.00000000000E+00 -0.00000000000E+00 -0.11563334446E+03  0.11563334446E+03  0.00000000000E+00 0.  1.
         25    2    1    2    0    0  0.53454723411E+02  0.82524098438E+01  0.10559131876E+02  0.13669825548E+03  0.12509759415E+03 0.  0.
          5    1    3    3  502    0  0.33417546446E+02 -0.29692968987E+02  0.57506231421E+02  0.72957822542E+02  0.41800000000E+01 0. -1.
         -5    1    3    3    0  502  0.20037176965E+02  0.37945378831E+02 -0.46947099545E+02  0.63740432938E+02  0.41800000000E+01 0. -1.
        -11    1    1    2    0    0 -0.68874096309E+02  0.19889232392E+02  0.11296491217E+02  0.72572952409E+02  0.00000000000E+00 0. -1.
         11    1    1    2    0    0  0.15419372898E+02 -0.28141642235E+02 -0.10184581007E+02  0.33666523114E+02  0.00000000000E+00 0.  1.
</event>
<event>
 7    1  0.2641580E-009  0.8263262E+02  0.7561462E-02  0.1321742E+00
         -2   -1    0    0    0  501 -0.00000000000E+00  0.00000000000E+00  0.62959977636E+02  0.62959977636E+02  0.00000000000E+00 0.  1.
          2   -1    0    0  501    0  0.00000000000E+00 -0.00000000000E+00 -0.18561900375E+03  0.18561900375E+03  0.00000000000E+00 0. -1.
         25    2    1    2    0    0 -0.16242183432E+02  0.28919795173E+01 -0.84868932362E+02  0.15205973263E+03  0.12508898648E+03 0.  0.
          5    1    3    3  502    0 -0.69027965032E+02  0.67032948059E+01 -0.29896179785E+02  0.75637610244E+02  0.41800000000E+01 0. -1.
         -5    1    3    3    0  502  0.52785781600E+02 -0.38113152886E+01 -0.54972752577E+02  0.76422122381E+02  0.41800000000E+01 0. -1.
        -11    1    1    2    0    0 -0.12423734714E+02 -0.61240967369E+01 -0.59069941259E+02  0.60672165821E+02  0.00000000000E+00 0. -1.
         11    1    1    2    0    0  0.28665918147E+02  0.32321172196E+01  0.21279847510E+02  0.35847082935E+02  0.00000000000E+00 0.  1.
</event>
<event>
 7    1  0.2641580E-009  0.1055808E+03  0.7561462E-02  0.1268980E+00
         -1   -1    0    0    0  501 -0.00000000000E+00  0.00000000000E+00  0.92528777677E+03  0.92528777677E+03  0.00000000000E+00 0.  1.
          1   -1    0    0  501    0  0.00000000000E+00 -0.00000000000E+00 -0.17784178367E+02  0.17784178367E+02  0.00000000000E+00 0. -1.
         25    2    1    2    0    0 -0.27868393103E+02 -0.57885578763E+02  0.45236260364E+03  0.47371710823E+03  0.12509430800E+03 0.  0.
          5    1    3    3  502    0 -0.53704840478E+02 -0.39395866702E+02  0.42874896954E+03  0.43391173698E+03  0.41800000000E+01 0. -1.
         -5    1    3    3    0  502  0.25836447375E+02 -0.18489712061E+02  0.23613634097E+02  0.39805371250E+02  0.41800000000E+01 0. -1.
        -11    1    1    2    0    0  0.61578585556E+02  0.45097630458E+02  0.34928685728E+03  0.35752905776E+03  0.00000000000E+00 0.  1.
         11    1    1    2    0    0 -0.33710192453E+02  0.12787948305E+02  0.10585413748E+03  0.11182578915E+03  0.00000000000E+00 0. -1.
</event>
<event>
 7    1  0.2641580E-009  0.1086399E+03  0.7561462E-02  0.1263110E+00
          1   -1    0    0  501    0  0.00000000000E+00  0.00000000000E+00  0.13076040524E+03  0.13076040524E+03  0.00000000000E+00 0. -1.
         -1   -1    0    0    0  501 -0.00000000000E+00 -0.00000000000E+00 -0.18982655270E+03  0.18982655270E+03  0.00000000000E+00 0.  1.
         25    2    1    2    0    0  0.78384941561E+02  0.46327407698E+02 -0.10391813994E+03  0.18637659810E+03  0.12508728450E+03 0.  0.
          5    1    3    3  502    0  0.96635876426E+02  0.46648600926E+02 -0.31990282555E+02  0.11205103819E+03  0.41800000000E+01 0. -1.
         -5    1    3    3    0  502 -0.18250934865E+02 -0.32119322825E+00 -0.71927857381E+02  0.74325559910E+02  0.41800000000E+01 0. -1.
        -11    1    1    2    0    0 -0.35028975791E+02 -0.23345368222E+02  0.67983442720E+02  0.79961139602E+02  0.00000000000E+00 0. -1.
         11    1    1    2    0    0 -0.43355965770E+02 -0.22982039476E+02 -0.23131450242E+02  0.54249220240E+02  0.00000000000E+00 0.  1.
</event>
<event>
 7    1  0.2641580E-009  0.9955190E+02  0.7561462E-02  0.1281241E+00
          1   -1    0    0  501    0  0.00000000000E+00  0.00000000000E+00  0.41695626546E+02  0.41695626546E+02  0.00000000000E+00 0. -1.
         -1   -1    0    0    0  501 -0.00000000000E+00 -0.00000000000E+00 -0.32292682424E+03  0.32292682424E+03  0.00000000000E+00 0.  1.
         25    2    1    2    0    0 -0.14368225767E+01  0.31157828459E+02 -0.11556620288E+03  0.17313627959E+03  0.12509096422E+03 0.  0.
          5    1    3    3  502    0  0.40671367682E+02  0.63148163897E+02 -0.76200299847E+02  0.10707851722E+03  0.41800000000E+01 0.  1.
         -5    1    3    3    0  502 -0.42108190258E+02 -0.31990335438E+02 -0.39365903032E+02  0.66057762373E+02  0.41800000000E+01 0.  1.
        -11    1    1    2    0    0 -0.28716506086E+02 -0.28661089728E+02 -0.15367499847E+03  0.15894055788E+03  0.00000000000E+00 0.  1.
         11    1    1    2    0    0  0.30153328662E+02 -0.24967387313E+01 -0.11989996354E+02  0.32545613319E+02  0.00000000000E+00 0. -1.
</event>
<event>
 7    1  0.2641580E-009  0.1101506E+03  0.7561462E-02  0.1260291E+00
          2   -1    0    0  501    0  0.00000000000E+00  0.00000000000E+00  0.27986307239E+03  0.27986307239E+03  0.00000000000E+00 0. -1.
         -2   -1    0    0    0  501 -0.00000000000E+00 -0.00000000000E+00 -0.47175888376E+02  0.47175888376E+02  0.00000000000E+00 0.  1.
         25    2    1    2    0    0  0.37447629480E+02  0.27114659073E+01  0.12306298505E+03  0.17944832578E+03  0.12509007288E+03 0.  0.
          5    1    3    3  502    0  0.98100401429E+01  0.63131657553E+02  0.59566423510E+02  0.87449838666E+02  0.41800000000E+01 0. -1.
         -5    1    3    3    0  502  0.27637589337E+02 -0.60420191645E+02  0.63496561543E+02  0.91998487110E+02  0.41800000000E+01 0. -1.
        -11    1    1    2    0    0  0.25157735027E+02  0.75403219190E+01  0.74080670755E+01  0.27288230872E+02  0.00000000000E+00 0. -1.
         11    1    1    2    0    0 -0.62605364507E+02 -0.10251787826E+02  0.10221613189E+03  0.12030240412E+03  0.00000000000E+00 0.  1.
</event>
<event>
 7    1  0.2641580E-009  0.1301470E+03  0.7561462E-02  0.1227238E+00
         -1   -1    0    0    0  501 -0.00000000000E+00  0.00000000000E+00  0.46640964861E+02  0.46640964861E+02  0.00000000000E+00 0.  1.
          1   -1    0    0  501    0  0.00000000000E+00 -0.00000000000E+00 -0.47202542547E+03  0.47202542547E+03  0.00000000000E+00 0. -1.
         25    2    1    2    0    0 -0.78595260390E+01  0.97704205363E+02 -0.22957566307E+03  0.27921762978E+03  0.12509842449E+03 0.  0.
          5    1    3    3  502    0  0.11458573837E+02  0.11205912034E+03 -0.22847109737E+03  0.25476471518E+03  0.41800000000E+01 0. -1.
         -5    1    3    3    0  502 -0.19318099876E+02 -0.14354914981E+02 -0.11045656988E+01  0.24452914598E+02  0.41800000000E+01 0. -1.
        -11    1    1    2    0    0 -0.60717320228E+01 -0.10649772734E+03 -0.11450592729E+03  0.15649357572E+03  0.00000000000E+00 0.  1.
         11    1    1    2    0    0  0.13931258062E+02  0.87935219728E+01 -0.81302870247E+02  0.82955184830E+02  0.00000000000E+00 0. -1.
</event>
<event>
 7    1  0.2641580E-009  0.9822240E+02  0.7561462E-02  0.1284079E+00
          2   -1    0    0  501    0  0.00000000000E+00  0.00000000000E+00  0.10685243648E+02  0.10685243648E+02  0.00000000000E+00 0. -1.
         -2   -1    0    0    0  501 -0.00000000000E+00 -0.00000000000E+00 -0.10007995150E+04  0.10007995150E+04  0.00000000000E+00 0.  1.
         25    2    1    2    0    0  0.28228358697E+02 -0.12485086528E+02 -0.66607805274E+03  0.67842507908E+03  0.12509155831E+03 0.  0.
          5    1    3    3  502    0 -0.43822129541E+02 -0.17242520644E+02 -0.39664982659E+03  0.39945743314E+03  0.41800000000E+01 0.  1.
         -5    1    3    3    0  502  0.72050488238E+02  0.47574341165E+01 -0.26942822615E+03  0.27896764594E+03  0.41800000000E+01 0.  1.
        -11    1    1    2    0    0  0.19891875588E+02 -0.11600809910E+02 -0.10730112534E+03  0.10974423449E+03  0.00000000000E+00 0.  1.
         11    1    1    2    0    0 -0.48120234285E+02  0.24085896437E+02 -0.21673509329E+03  0.22331544510E+03  0.00000000000E+00 0. -1.
</event>
<event>
 7    1  0.2641580E-009  0.9468438E+02  0.7561462E-02  0.1291889E+00
         -2   -1    0    0    0  501 -0.00000000000E+00  0.00000000000E+00  0.45483978622E+02  0.45483978622E+02  0.00000000000E+00 0. -1.
          2   -1    0    0  501    0  0.00000000000E+00 -0.00000000000E+00 -0.26279789008E+03  0.26279789008E+03  0.00000000000E+00 0.  1.
         25    2    1    2    0    0  0.24556552769E+01 -0.13428533831E+02 -0.12170888999E+03  0.17506284911E+03  0.12509033325E+03 0.  0.
          5    1    3    3  502    0 -0.28874852819E+02  0.35349780569E+02 -0.10502629853E+03  0.11459214587E+03  0.41800000000E+01 0. -1.
         -5    1    3    3    0  502  0.31330508096E+02 -0.48778314400E+02 -0.16682591460E+02  0.60470703246E+02  0.41800000000E+01 0. -1.
        -11    1    1    2    0    0 -0.29235963030E+02 -0.25070022846E+02 -0.69726651023E+02  0.79655843745E+02  0.00000000000E+00 0.  1.
         11    1    1    2    0    0  0.26780307753E+02  0.38498556677E+02 -0.25878370446E+02  0.53563175844E+02  0.00000000000E+00 0. -1.
</event>
<event>
 7    1  0.2641580E-009  0.1419067E+03  0.7561462E-02  0.1210786E+00
         -1   -1    0    0    0  501 -0.00000000000E+00  0.00000000000E+00  0.26356645792E+03  0.26356645792E+03  0.00000000000E+00 0.  1.
          1   -1    0    0  501    0  0.00000000000E+00 -0.00000000000E+00 -0.11620776972E+03  0.11620776972E+03  0.00000000000E+00 0. -1.
         25    2    1    2    0    0 -0.43324507444E+01  0.13462959551E+03  0.54198729318E+02  0.19164966274E+03  0.12509273701E+03 0.  0.
          5    1    3    3  502    0  0.22683082901E+02  0.71338171580E+02  0.87380902711E+02  0.11513709886E+03  0.41800000000E+01 0.  1.
         -5    1    3    3    0  502 -0.27015533646E+02  0.63291423932E+02 -0.33182173393E+02  0.76512563887E+02  0.41800000000E+01 0.  1.
        -11    1    1    2    0    0  0.20756898074E+02 -0.89366788533E+02  0.10342534395E+02  0.92326809368E+02  0.00000000000E+00 0. -1.
         11    1    1    2    0    0 -0.16424447329E+02 -0.45262806979E+02  0.82817424483E+02  0.95797755525E+02  0.00000000000E+00 0.  1.
</event>
<event>
 7    1  0.2641580E-009  0.1100064E+03  0.7561462E-02  0.1260558E+00
          2   -1    0    0  501    0  0.00000000000E+00  0.00000000000E+00  0.18689692076E+04  0.18689692076E+04  0.00000000000E+00 0. -1.
         -2   -1    0    0    0  501 -0.00000000000E+00 -0.00000000000E+00 -0.13376357435E+02  0.13376357435E+02  0.00000000000E+00 0.  1.
         25    2    1    2    0    0 -0.29577114106E+02  0.10117536060E+02  0.16444892732E+04  0.16495358988E+04  0.12508613656E+03 0.  0.
          5    1    3    3  502    0 -0.20171265635E+02 -0.55945443134E+02  0.61699200269E+03  0.61986561152E+03  0.41800000000E+01 0. -1.
         -5    1    3    3    0  502 -0.94058484711E+01  0.66062979194E+02  0.10274972705E+04  0.10296702873E+04  0.41800000000E+01 0. -1.
        -11    1    1    2    0    0 -0.22553362955E+02  0.22648455191E+02  0.41544477457E+02  0.52417080329E+02  0.00000000000E+00 0.  1.
         11    1    1    2    0    0  0.52130477061E+02 -0.32765991251E+02  0.16955909947E+03  0.18039258586E+03  0.00000000000E+00 0. -1.
</event>
<event>
 7    1  0.2641580E-009  0.1252916E+03  0.7561462E-02  0.1234614E+00
          1   -1    0    0  501    0  0.00000000000E+00  0.00000000000E+00  0.65520181232E+03  0.65520181232E+03  0.00000000000E+00 0. -1.
         -1   -1    0    0    0  501 -0.00000000000E+00 -0.00000000000E+00 -0.30829587674E+02  0.30829587674E+02  0.00000000000E+00 0.  1.
         25    2    1    2    0    0  0.51051853725E+02 -0.67417923264E+02  0.42260232721E+03  0.44876686924E+03  0.12508999887E+03 0.  0.
          5    1    3    3  502    0 -0.10118118307E+02  0.22994119407E+02  0.19104410405E+03  0.19273408608E+03  0.41800000000E+01 0.  1.
         -5    1    3    3    0  502  0.61169972032E+02 -0.90412042671E+02  0.23155822316E+03  0.25603278316E+03  0.41800000000E+01 0.  1.
        -11    1    1    2    0    0 -0.54262294437E+02  0.83441361950E+02  0.19619393985E+03  0.21999754434E+03  0.00000000000E+00 0. -1.
         11    1    1    2    0    0  0.32104407126E+01 -0.16023438686E+02  0.55759575871E+01  0.17266986417E+02  0.00000000000E+00 0.  1.
</event>
<event>
 7    1  0.2641580E-009  0.8026098E+02  0.7561462E-02  0.1328312E+00
          4   -1    0    0  501    0  0.00000000000E+00  0.00000000000E+00  0.12382546974E+02  0.12382546974E+02  0.00000000000E+00 0. -1.
         -4   -1    0    0    0  501 -0.00000000000E+00 -0.00000000000E+00 -0.10103488103E+04  0.10103488103E+04  0.00000000000E+00 0.  1.
         25    2    1    2    0    0 -0.18019526128E+01 -0.45326847520E+01 -0.67499205033E+03  0.68650158162E+03  0.12508541601E+03 0.  0.
          5    1    3    3  502    0 -0.15029460316E+02  0.30709942113E+02 -0.61222179526E+03  0.61319000662E+03  0.41800000000E+01 0.  1.
         -5    1    3    3    0  502  0.13227507703E+02 -0.35242626865E+02 -0.62770255061E+02  0.73311574999E+02  0.41800000000E+01 0.  1.
        -11    1    1    2    0    0  0.17949945368E+02  0.42938770350E+02 -0.22503881548E+03  0.22980079854E+03  0.00000000000E+00 0.  1.
         11    1    1    2    0    0 -0.16147992755E+02 -0.38406085598E+02 -0.97935397478E+02  0.10642897707E+03  0.00000000000E+00 0. -1.
</event>
<event>
 7    1  0.2641580E-009  0.2488473E+03  0.7561462E-02  0.1114035E+00
         -1   -1    0    0    0  501 -0.00000000000E+00  0.00000000000E+00  0.97320794972E+03  0.97320794972E+03  0.00000000000E+00 0.  1.
          1   -1    0    0  501    0  0.00000000000E+00 -0.00000000000E+00 -0.76756574784E+02  0.76756574784E+02  0.00000000000E+00 0. -1.
         25    2    1    2    0    0  0.14223196672E+02 -0.24150619677E+03  0.36475116858E+03  0.45521292531E+03  0.12509136657E+03 0.  0.
          5    1    3    3  502    0 -0.22630104689E+02 -0.33052320913E+02  0.90701050630E+01  0.41283371493E+02  0.41800000000E+01 0.  1.
         -5    1    3    3    0  502  0.36853301362E+02 -0.20845387586E+03  0.35568106351E+03  0.41392955382E+03  0.41800000000E+01 0.  1.
        -11    1    1    2    0    0  0.86101281532E+01  0.17796187755E+03  0.47241415789E+03  0.50489573254E+03  0.00000000000E+00 0.  1.
         11    1    1    2    0    0 -0.22833324825E+02  0.63544319223E+02  0.59286048474E+02  0.89855866652E+02  0.00000000000E+00 0. -1.
</event>
<event>
 7    1  0.2641580E-009  0.9666765E+02  0.7561462E-02  0.1287464E+00
         -2   -1    0    0    0  501 -0.00000000000E+00  0.00000000000E+00  0.26689647365E+02  0.26689647365E+02  0.00000000000E+00 0. -1.
          2   -1    0    0  501    0  0.00000000000E+00 -0.00000000000E+00 -0.50337073004E+03  0.50337073004E+03  0.00000000000E+00 0.  1.
         25    2    1    2    0    0 -0.14663914535E+02  0.36052035330E+02 -0.23663032830E+03  0.27047338477E+03  0.12508860843E+03 0.  0.
          5    1    3    3  502    0  0.14024333756E+02  0.63461372518E+02 -0.57258697207E+02  0.86718271114E+02  0.41800000000E+01 0. -1.
         -5    1    3    3    0  502 -0.28688248290E+02 -0.27409337189E+02 -0.17937163109E+03  0.18375511366E+03  0.41800000000E+01 0. -1.
        -11    1    1    2    0    0  0.47515021907E+02 -0.17867905445E+02 -0.19204552922E+03  0.19864144745E+03  0.00000000000E+00 0.  1.
         11    1    1    2    0    0 -0.32851107373E+02 -0.18184129884E+02 -0.48005225158E+02  0.60945545184E+02  0.00000000000E+00 0. -1.
</event>
<event>
 7    1  0.2641580E-009  0.1364667E+03  0.7561462E-02  0.1218164E+00
          1   -1    0    0  501    0  0.00000000000E+00  0.00000000000E+00  0.75338389895E+03  0.75338389895E+03  0.00000000000E+00 0. -1.
         -1   -1    0    0    0  501 -0.00000000000E+00 -0.00000000000E+00 -0.32271668057E+02  0.32271668057E+02  0.00000000000E+00 0.  1.
         25    2    1    2    0    0 -0.20857496241E+02  0.10816309092E+03  0.35378793021E+03  0.39108527778E+03  0.12508998981E+03 0.  0.
          5    1    3    3  502    0  0.99199766942E+01  0.11087677917E+03  0.16093559709E+03  0.19572890668E+03  0.41800000000E+01 0. -1.
         -5    1    3    3    0  502 -0.30777472935E+02 -0.27136882526E+01  0.19285233312E+03  0.19535637111E+03  0.41800000000E+01 0. -1.
        -11    1    1    2    0    0 -0.19759462212E+02 -0.76060307453E+02  0.29714526195E+03  0.30736121000E+03  0.00000000000E+00 0. -1.
         11    1    1    2    0    0  0.40616958453E+02 -0.32102783467E+02  0.70179038738E+02  0.87209079220E+02  0.00000000000E+00 0.  1.
</event>
<event>
 7    1  0.2641580E-009  0.8083021E+02  0.7561462E-02  0.1326712E+00
         -1   -1    0    0    0  501 -0.00000000000E+00  0.00000000000E+00  0.37177691031E+02  0.37177691031E+02  0.00000000000E+00 0.  1.
          1   -1    0    0  501    0  0.00000000000E+00 -0.00000000000E+00 -0.35445639706E+03  0.35445639706E+03  0.00000000000E+00 0. -1.
         25    2    1    2    0    0 -0.22237803624E+02 -0.12406240257E+02 -0.13223280817E+03  0.18380467863E+03  0.12510079785E+03 0.  0.
          5    1    3    3  502    0 -0.57706684030E+02 -0.25573018094E+02 -0.21659184089E+02  0.66862794524E+02  0.41800000000E+01 0.  1.
         -5    1    3    3    0  502  0.35468880406E+02  0.13166777837E+02 -0.11057362408E+03  0.11694188411E+03  0.41800000000E+01 0.  1.
        -11    1    1    2    0    0 -0.17867325343E+02  0.92234862879E+01 -0.17649043025E+01  0.20184868130E+02  0.00000000000E+00 0.  1.
         11    1    1    2    0    0  0.40105128967E+02  0.31827539691E+01 -0.18328099356E+03  0.18764454133E+03  0.00000000000E+00 0. -1.
</event>
<event>
 7    1  0.2641580E-009  0.1254578E+03  0.7561462E-02  0.1234356E+00
          1   -1    0    0  501    0  0.00000000000E+00  0.00000000000E+00  0.66727286636E+03  0.66727286636E+03  0.00000000000E+00 0. -1.
         -1   -1    0    0    0  501 -0.00000000000E+00 -0.00000000000E+00 -0.26993347831E+02  0.26993347831E+02  0.00000000000E+00 0.  1.
         25    2    1    2    0    0 -0.58599704350E+02 -0.67078646433E+02  0.38507876432E+03  0.41456842560E+03  0.12509138507E+03 0.  0.
          5    1    3    3  502    0  0.39135096097E+02 -0.24194722054E+02  0.10069134025E+03  0.11078428916E+03  0.41800000000E+01 0.  1.
         -5    1    3    3    0  502 -0.97734800448E+02 -0.42883924379E+02  0.28438742407E+03  0.30378413645E+03  0.41800000000E+01 0.  1.
        -11    1    1    2    0    0  0.10342100014E+02  0.42516107609E+02  0.45527662969E+02  0.63145439537E+02  0.00000000000E+00 0.  1.
         11    1    1    2    0    0  0.48257604336E+02  0.24562538825E+02  0.20967309124E+03  0.21655234905E+03  0.00000000000E+00 0. -1.
</event>
<event>
 7    1  0.2641580E-009  0.9025230E+02  0.7561462E-02  0.1302242E+00
         -2   -1    0    0    0  501 -0.00000000000E+00  0.00000000000E+00  0.29367949093E+02  0.29367949093E+02  0.00000000000E+00 0. -1.
          2   -1    0    0  501    0  0.00000000000E+00 -0.00000000000E+00 -0.59662942110E+03  0.59662942110E+03  0.00000000000E+00 0.  1.
         25    2    1    2    0    0 -0.34885108061E+02  0.44807145730E+02 -0.19385309026E+03  0.23759468902E+03  0.12509022573E+03 0.  0.
          5    1    3    3  502    0 -0.30000093767E+02 -0.33477686852E+00  0.74480105250E+01  0.31193957145E+02  0.41800000000E+01 0. -1.
         -5    1    3    3    0  502 -0.48850142941E+01  0.45141922599E+02 -0.20130110078E+03  0.20640073187E+03  0.41800000000E+01 0. -1.
        -11    1    1    2    0    0  0.17044967317E+02  0.26280116035E+02 -0.15149471580E+03  0.15469914132E+03  0.00000000000E+00 0.  1.
         11    1    1    2    0    0  0.17840140744E+02 -0.71087261765E+02 -0.22191366596E+03  0.23370353986E+03  0.00000000000E+00 0. -1.
</event>
<event>
 7    1  0.2641580E-009  0.9386046E+02  0.7561462E-02  0.1293763E+00
         -2   -1    0    0    0  501 -0.00000000000E+00  0.00000000000E+00  0.59554689939E+02  0.59554689939E+02  0.00000000000E+00 0.  1.
          2   -1    0    0  501    0  0.00000000000E+00 -0.00000000000E+00 -0.22249856594E+03  0.22249856594E+03  0.00000000000E+00 0. -1.
         25    2    1    2    0    0 -0.22161419258E+02  0.34060851842E+01 -0.13266401543E+03  0.18370938258E+03  0.12508663532E+03 0.  0.
          5    1    3    3  502    0  0.12526519252E+02 -0.37871066203E+02 -0.12221822925E+03  0.12863086450E+03  0.41800000000E+01 0.  1.
         -5    1    3    3    0  502 -0.34687938510E+02  0.41277151387E+02 -0.10445786181E+02  0.55078518078E+02  0.41800000000E+01 0.  1.
        -11    1    1    2    0    0  0.55916711142E+02  0.10733384962E+02 -0.17181369678E+02  0.59473385658E+02  0.00000000000E+00 0.  1.
         11    1    1    2    0    0 -0.33755291884E+02 -0.14139470146E+02 -0.13098490891E+02  0.38870487645E+02  0.00000000000E+00 0. -1.
</event>
<event>
 7    1  0.2641580E-009  0.8789636E+02  0.7561462E-02  0.1308027E+00
          1   -1    0    0  501    0  0.00000000000E+00  0.00000000000E+00  0.13962957076E+03  0.13962957076E+03  0.00000000000E+00 0. -1.
         -1   -1    0    0    0  501 -0.00000000000E+00 -0.00000000000E+00 -0.12262050142E+03  0.12262050142E+03  0.00000000000E+00 0.  1.
         25    2    1    2    0    0  0.57737473258E+02  0.12777612088E+02 -0.20479203709E+02  0.13986894703E+03  0.12508813441E+03 0.  0.
          5    1    3    3  502    0  0.47881964318E+02 -0.27735241144E+02  0.38485222799E+02  0.67531554715E+02  0.41800000000E+01 0.  1.
         -5    1    3    3    0  502  0.98555089396E+01  0.40512853232E+02 -0.58964426508E+02  0.72337392315E+02  0.41800000000E+01 0.  1.
        -11    1    1    2    0    0  0.73344008935E+01 -0.11099051778E+02 -0.27406937762E+02  0.30465105027E+02  0.00000000000E+00 0.  1.
         11    1    1    2    0    0 -0.65071874151E+02 -0.16785603097E+01  0.64895210804E+02  0.91916020124E+02  0.00000000000E+00 0. -1.
</event>
<event>
 7    1  0.2641580E-009  0.1941591E+03  0.7561462E-02  0.1154763E+00
          2   -1    0    0  501    0  0.00000000000E+00  0.00000000000E+00  0.23929306453E+03  0.23929306453E+03  0.00000000000E+00 0. -1.
         -2   -1    0    0    0  501 -0.00000000000E+00 -0.00000000000E+00 -0.20242528867E+03  0.20242528867E+03  0.00000000000E+00 0.  1.
         25    2    1    2    0    0  0.14727609325E+03  0.10973097829E+03 -0.33655270384E+02  0.22474605314E+03  0.12508787287E+03 0.  0.
          5    1    3    3  502    0  0.70386093287E+02  0.23359796578E+02  0.43112106457E+02  0.85883690812E+02  0.41800000000E+01 0.  1.
         -5    1    3    3    0  502  0.76889999963E+02  0.86371181717E+02 -0.76767376841E+02  0.13886236233E+03  0.41800000000E+01 0.  1.
        -11    1    1    2    0    0 -0.10641491056E+03 -0.33035101506E+02  0.66962411769E+02  0.12999775271E+03  0.00000000000E+00 0. -1.
         11    1    1    2    0    0 -0.40861182691E+02 -0.76695876789E+02  0.35606344679E+01  0.86974547341E+02  0.00000000000E+00 0.  1.
</event>
<event>
 7    1  0.2731857E-009  0.2008927E+03  0.7561462E-02  0.1148988E+00
         -1   -1    0    0    0  501 -0.00000000000E+00  0.00000000000E+00  0.11704509090E+03  0.11704509090E+03  0.00000000000E+00 0.  1.
          1   -1    0    0  501    0  0.00000000000E+00 -0.00000000000E+00 -0.38872801769E+03  0.38872801769E+03  0.00000000000E+00 0. -1.
         25    2    1    2    0    0  0.14357124857E+03  0.10179238334E+03 -0.80630842851E+02  0.23048290915E+03  0.12508655350E+03 0.  0.
          5    1    3    3  502    0  0.13170541369E+02  0.79580102972E+02 -0.48784343898E+02  0.94360164045E+02  0.41800000000E+01 0.  1.
         -5    1    3    3    0  502  0.13040070721E+03  0.22212280372E+02 -0.31846498953E+02  0.13612274510E+03  0.41800000000E+01 0.  1.
        -11    1    1    2    0    0 -0.20901180234E+02 -0.52425939058E+02 -0.99720498832E+02  0.11458410147E+03  0.00000000000E+00 0. -1.
         11    1    1    2    0    0 -0.12267006834E+03 -0.49366444286E+02 -0.91331585102E+02  0.16070609797E+03  0.00000000000E+00 0.  1.
</event>
<event>
 7    1  0.2641580E-009  0.1766841E+03  0.7561462E-02  0.1171051E+00
         -1   -1    0    0    0  501 -0.00000000000E+00  0.00000000000E+00  0.26844023519E+03  0.26844023519E+03  0.00000000000E+00 0.  1.
          1   -1    0    0  501    0  0.00000000000E+00 -0.00000000000E+00 -0.14122365818E+03  0.14122365818E+03  0.00000000000E+00 0. -1.
         25    2    1    2    0    0 -0.61398689638E+02  0.13693444884E+03  0.12837053820E+03  0.23375685400E+03  0.12506969796E+03 0.  0.
          5    1    3    3  502    0 -0.86751790298E+02  0.11670613565E+03  0.58851958740E+02  0.15693062373E+03  0.41800000000E+01 0.  1.
         -5    1    3    3    0  502  0.25353100660E+02  0.20228313189E+02  0.69518579459E+02  0.76826230270E+02  0.41800000000E+01 0.  1.
        -11    1    1    2    0    0  0.73632931539E+02 -0.53887109948E+02  0.73128985323E+01  0.91537466158E+02  0.00000000000E+00 0.  1.
         11    1    1    2    0    0 -0.12234241901E+02 -0.83047338887E+02 -0.84668597214E+01  0.84369573216E+02  0.00000000000E+00 0. -1.
</event>
<event>
 7    1  0.2641580E-009  0.8613536E+02  0.7561462E-02  0.1312490E+00
         -2   -1    0    0    0  501 -0.00000000000E+00  0.00000000000E+00  0.21726919344E+02  0.21726919344E+02  0.00000000000E+00 0.  1.
          2   -1    0    0  501    0  0.00000000000E+00 -0.00000000000E+00 -0.46738881991E+03  0.46738881991E+03  0.00000000000E+00 0. -1.
         25    2    1    2    0    0 -0.13485135833E+02  0.78375233845E+01 -0.27667897410E+03  0.30404433659E+03  0.12509367785E+03 0.  0.
          5    1    3    3  502    0  0.16679958347E+02 -0.40148172854E+02 -0.21808470853E+03  0.22241517324E+03  0.41800000000E+01 0.  1.
         -5    1    3    3    0  502 -0.30165094181E+02  0.47985696239E+02 -0.58594265579E+02  0.81629163350E+02  0.41800000000E+01 0.  1.
        -11    1    1    2    0    0 -0.28434234619E+02  0.26285048369E+01 -0.40780474147E+02  0.49784152174E+02  0.00000000000E+00 0.  1.
         11    1    1    2    0    0  0.41919370453E+02 -0.10466028221E+02 -0.12820245231E+03  0.13528725049E+03  0.00000000000E+00 0. -1.
</event>
<event>
 7    1  0.2641580E-009  0.1672260E+03  0.7561462E-02  0.1180772E+00
          2   -1    0    0  501    0  0.00000000000E+00  0.00000000000E+00  0.15550027735E+03  0.15550027735E+03  0.00000000000E+00 0. -1.
         -2   -1    0    0    0  501 -0.00000000000E+00 -0.00000000000E+00 -0.20223366012E+03  0.20223366012E+03  0.00000000000E+00 0.  1.
         25    2    1    2    0    0 -0.83684509638E+02 -0.10303335683E+03 -0.67291703478E+02  0.19440730247E+03  0.12508819338E+03 0.  0.
          5    1    3    3  502    0 -0.91453162750E+01  0.23677771451E+02  0.10790305327E+02  0.27895819753E+02  0.41800000000E+01 0.  1.
         -5    1    3    3    0  502 -0.74539193363E+02 -0.12671112828E+03 -0.78082008805E+02  0.16651148272E+03  0.41800000000E+01 0.  1.
        -11    1    1    2    0    0  0.70990909592E+02  0.12062544462E+03  0.21530521513E+02  0.14161133602E+03  0.00000000000E+00 0. -1.
         11    1    1    2    0    0  0.12693600047E+02 -0.17592087787E+02 -0.97220080534E+00  0.21715298968E+02  0.00000000000E+00 0.  1.
</event>
<event>
 7    1  0.2641580E-009  0.9119503E+02  0.7561462E-02  0.1299983E+00
         -4   -1    0    0    0  501 -0.00000000000E+00  0.00000000000E+00  0.20350761038E+03  0.20350761038E+03  0.00000000000E+00 0.  1.
          4   -1    0    0  501    0  0.00000000000E+00 -0.00000000000E+00 -0.65192164666E+02  0.65192164666E+02  0.00000000000E+00 0. -1.
         25    2    1    2    0    0  0.34109538423E+02  0.16070706391E+01  0.10419566695E+03  0.16634348309E+03  0.12508946426E+03 0.  0.
          5    1    3    3  502    0  0.23443244810E+02  0.54580549025E+02  0.14089289031E+02  0.61193157497E+02  0.41800000000E+01 0. -1.
         -5    1    3    3    0  502  0.10666293614E+02 -0.52973478386E+02  0.90106377917E+02  0.10515032560E+03  0.41800000000E+01 0. -1.
        -11    1    1    2    0    0  0.11736383410E+02  0.15732156732E+02 -0.20898983323E+02  0.28670733421E+02  0.00000000000E+00 0. -1.
         11    1    1    2    0    0 -0.45845921833E+02 -0.17339227371E+02  0.55018762091E+02  0.73685558535E+02  0.00000000000E+00 0.  1.
</event>
<event>
 7    1  0.2641580E-009  0.1671553E+03  0.7561462E-02  0.1180847E+00
         -1   -1    0    0    0  501 -0.00000000000E+00  0.00000000000E+00  0.23546106792E+03  0.23546106792E+03  0.00000000000E+00 0.  1.
          1   -1    0    0  501    0  0.00000000000E+00 -0.00000000000E+00 -0.12877618888E+03  0.12877618888E+03  0.00000000000E+00 0. -1.
         25    2    1    2    0    0 -0.81533010032E+01  0.12693202771E+03  0.10643027287E+03  0.20773398926E+03  0.12509113212E+03 0.  0.
          5    1    3    3  502    0  0.21782207836E+02 -0.19062484793E+02  0.19508272932E+02  0.35155199010E+02  0.41800000000E+01 0. -1.
         -5    1    3    3    0  502 -0.29935508839E+02  0.14599451250E+03  0.86921999939E+02  0.17257879025E+03  0.41800000000E+01 0. -1.
        -11    1    1    2    0    0  0.46802583833E+02 -0.94756233296E+02  0.61836907665E+01  0.10586530892E+03  0.00000000000E+00 0.  1.
         11    1    1    2    0    0 -0.38649282830E+02 -0.32175794412E+02 -0.59290845989E+01  0.50637958622E+02  0.00000000000E+00 0. -1.
</event>
<event>
 7    1  0.2641580E-009  0.1202432E+03  0.7561462E-02  0.1242696E+00
          1   -1    0    0  501    0  0.00000000000E+00  0.00000000000E+00  0.16860871199E+03  0.16860871199E+03  0.00000000000E+00 0. -1.
         -1   -1    0    0    0  501 -0.00000000000E+00 -0.00000000000E+00 -0.11780544711E+03  0.11780544711E+03  0.00000000000E+00 0.  1.
         25    2    1    2    0    0 -0.46236986068E+02 -0.77230368297E+02  0.25406212965E+02  0.15619103211E+03  0.12509106357E+03 0.  0.
          5    1    3    3  502    0  0.16641748482E+02 -0.48803192749E+01  0.53353710887E+02  0.56257054440E+02  0.41800000000E+01 0.  1.
         -5    1    3    3    0  502 -0.62878734549E+02 -0.72350049022E+02 -0.27947497922E+02  0.99933977666E+02  0.41800000000E+01 0.  1.
        -11    1    1    2    0    0  0.37813197494E+02 -0.99611368501E+01  0.31135914396E+00  0.39104463896E+02  0.00000000000E+00 0.  1.
         11    1    1    2    0    0  0.84237885736E+01  0.87191505147E+02  0.25085692774E+02  0.91118663103E+02  0.00000000000E+00 0. -1.
</event>
<event>
 7    1  0.2641580E-009  0.9847087E+02  0.7561462E-02  0.1283545E+00
          3   -1    0    0  501    0  0.00000000000E+00  0.00000000000E+00  0.45081651473E+02  0.45081651473E+02  0.00000000000E+00 0. -1.
         -3   -1    0    0    0  501 -0.00000000000E+00 -0.00000000000E+00 -0.38562794231E+03  0.38562794231E+03  0.00000000000E+00 0.  1.
         25    2    1    2    0    0 -0.63892796883E+02  0.27045017944E+02 -0.23152936260E+03  0.27215340133E+03  0.12509158893E+03 0.  0.
          5    1    3    3  502    0 -0.22347883969E+02 -0.11133047917E+02  0.75928354748E+01  0.26429079143E+02  0.41800000000E+01 0.  1.
         -5    1    3    3    0  502 -0.41544912914E+02  0.38178065861E+02 -0.23912219807E+03  0.24572432219E+03  0.41800000000E+01 0.  1.
        -11    1    1    2    0    0  0.54639838973E+02  0.26488553887E+02 -0.60533324738E+02  0.85740532386E+02  0.00000000000E+00 0. -1.
         11    1    1    2    0    0  0.92529579099E+01 -0.53533571831E+02 -0.48483603505E+02  0.72815660073E+02  0.00000000000E+00 0.  1.
</event>
<event>
 7    1  0.2641580E-009  0.1200071E+03  0.7561462E-02  0.1243085E+00
         -1   -1    0    0    0  501 -0.00000000000E+00  0.00000000000E+00  0.48066123838E+02  0.48066123838E+02  0.00000000000E+00 0.  1.
          1   -1    0    0  501    0  0.00000000000E+00 -0.00000000000E+00 -0.39563429724E+03  0.39563429724E+03  0.00000000000E+00 0. -1.
         25    2    1    2    0    0  0.40638431997E+02 -0.44038900545E+02 -0.28924037442E+03  0.32079585467E+03  0.12513624281E+03 0.  0.
          5    1    3    3  502    0 -0.77566679710E+01 -0.75545547968E+02 -0.12147980690E+03  0.14332519528E+03  0.41800000000E+01 0.  1.
         -5    1    3    3    0  502  0.48395099968E+02  0.31506647423E+02 -0.16776056751E+03  0.17747065939E+03  0.41800000000E+01 0.  1.
        -11    1    1    2    0    0 -0.46021592803E+02 -0.13740079619E+02 -0.14455040049E+02  0.50157003248E+02  0.00000000000E+00 0.  1.
         11    1    1    2    0    0  0.53831608062E+01  0.57778980164E+02 -0.43872758932E+02  0.72747563157E+02  0.00000000000E+00 0. -1.
</event>
<event>
 7    1  0.2641580E-009  0.1181817E+03  0.7561462E-02  0.1246127E+00
          2   -1    0    0  501    0  0.00000000000E+00  0.00000000000E+00  0.81786007750E+03  0.81786007750E+03  0.00000000000E+00 0. -1.
         -2   -1    0    0    0  501 -0.00000000000E+00 -0.00000000000E+00 -0.24210604080E+02  0.24210604080E+02  0.00000000000E+00 0.  1.
         25    2    1    2    0    0 -0.66996041917E+02  0.85662595404E+00  0.64484158819E+03  0.66026868685E+03  0.12507942089E+03 0.  0.
          5    1    3    3  502    0  0.17037734073E+02  0.43035723694E+02  0.25719138626E+03  0.26135653705E+03  0.41800000000E+01 0.  1.
         -5    1    3    3    0  502 -0.84033775990E+02 -0.42179097740E+02  0.38765020193E+03  0.39891214979E+03  0.41800000000E+01 0.  1.
        -11    1    1    2    0    0 -0.68743398494E+01  0.18223073921E+02  0.67715808052E+02  0.70461107227E+02  0.00000000000E+00 0. -1.
         11    1    1    2    0    0  0.73870381767E+02 -0.19079699875E+02  0.81092077177E+02  0.11134088751E+03  0.00000000000E+00 0.  1.
</event>
<event>
 7    1  0.2641580E-009  0.1000784E+03  0.7561462E-02  0.1280131E+00
         -1   -1    0    0    0  501 -0.00000000000E+00  0.00000000000E+00  0.10698883866E+02  0.10698883866E+02  0.00000000000E+00 0.  1.
          1   -1    0    0  501    0  0.00000000000E+00 -0.00000000000E+00 -0.11874585488E+04  0.11874585488E+04  0.00000000000E+00 0. -1.
         25    2    1    2    0    0  0.30767404026E+02  0.59775692022E+01 -0.64719834608E+03  0.65992093780E+03  0.12509028940E+03 0.  0.
          5    1    3    3  502    0 -0.33542947737E+02 -0.13940666068E+02 -0.45043269106E+03  0.45191432052E+03  0.41800000000E+01 0. -1.
         -5    1    3    3    0  502  0.64310351763E+02  0.19918235270E+02 -0.19676565501E+03  0.20800661728E+03  0.41800000000E+01 0. -1.
        -11    1    1    2    0    0  0.77701085318E+01 -0.42404104388E+02 -0.25017253973E+03  0.25385976894E+03  0.00000000000E+00 0.  1.
         11    1    1    2    0    0 -0.38537512558E+02  0.36426535186E+02 -0.27938877913E+03  0.28437672591E+03  0.00000000000E+00 0. -1.
</event>
<event>
 7    1  0.2641580E-009  0.2448997E+03  0.7561462E-02  0.1116571E+00
          2   -1    0    0  501    0  0.00000000000E+00  0.00000000000E+00  0.19565418361E+04  0.19565418361E+04  0.00000000000E+00 0.  1.
         -2   -1    0    0    0  501 -0.00000000000E+00 -0.00000000000E+00 -0.34681654236E+02  0.34681654236E+02  0.00000000000E+00 0. -1.
         25    2    1    2    0    0  0.16989892512E+03 -0.12742088223E+03  0.79558098810E+03  0.83288553014E+03  0.12508985447E+03 0.  0.
          5    1    3    3  502    0  0.51948596097E+02 -0.74486055493E+02  0.52694589576E+03  0.53473009880E+03  0.41800000000E+01 0. -1.
         -5    1    3    3    0  502  0.11795032903E+03 -0.52934826736E+02  0.26863509234E+03  0.29815543134E+03  0.41800000000E+01 0. -1.
        -11    1    1    2    0    0  0.12849769235E+02  0.79609828718E+02  0.29112241786E+03  0.30208459672E+03  0.00000000000E+00 0.  1.
         11    1    1    2    0    0 -0.18274869436E+03  0.47811053510E+02  0.83515677586E+03  0.85625336343E+03  0.00000000000E+00 0. -1.
</event>
<event>
 7    1  0.2641580E-009  0.3525197E+03  0.7561462E-02  0.1061586E+00
         -2   -1    0    0    0  501 -0.00000000000E+00  0.00000000000E+00  0.62845057871E+02  0.62845057871E+02  0.00000000000E+00 0.  1.
          2   -1    0    0  501    0  0.00000000000E+00 -0.00000000000E+00 -0.21568208554E+04  0.21568208554E+04  0.00000000000E+00 0. -1.
         25    2    1    2    0    0  0.33540243927E+02 -0.34416474734E+03 -0.12510211120E+04  0.13039460795E+04  0.12508890575E+03 0.  0.
          5    1    3    3  502    0  0.14942358689E+02 -0.43758037403E+02 -0.62247194381E+02  0.77654526776E+02  0.41800000000E+01 0. -1.
         -5    1    3    3    0  502  0.18597885239E+02 -0.30040670994E+03 -0.11887739176E+04  0.12262915527E+04  0.41800000000E+01 0. -1.
        -11    1    1    2    0    0 -0.64431776173E+02  0.26241554528E+03 -0.62626245203E+03  0.68206893421E+03  0.00000000000E+00 0.  1.
         11    1    1    2    0    0  0.30891532246E+02  0.81749202055E+02 -0.21669223354E+03  0.23365089959E+03  0.00000000000E+00 0. -1.
</event>
<event>
 7    1  0.2641580E-009  0.6628031E+02  0.7561462E-02  0.1373219E+00
          3   -1    0    0  501    0  0.00000000000E+00  0.00000000000E+00  0.50956954551E+03  0.50956954551E+03  0.00000000000E+00 0. -1.
         -3   -1    0    0    0  501 -0.00000000000E+00 -0.00000000000E+00 -0.37159216934E+02  0.37159216934E+02  0.00000000000E+00 0.  1.
         25    2    1    2    0    0 -0.55777637745E+02 -0.22804897116E+02  0.36555062027E+03  0.39103029178E+03  0.12508487082E+03 0.  0.
          5    1    3    3  502    0 -0.46768818601E+02 -0.11538791235E+01  0.32472646268E+02  0.57101654845E+02  0.41800000000E+01 0.  1.
         -5    1    3    3    0  502 -0.90088191443E+01 -0.21651017992E+02  0.33307797400E+03  0.33392863694E+03  0.41800000000E+01 0.  1.
        -11    1    1    2    0    0  0.26839241319E+02  0.36952378684E+01  0.11657728477E+03  0.11968401305E+03  0.00000000000E+00 0. -1.
         11    1    1    2    0    0  0.28938396427E+02  0.19109659247E+02 -0.97175764608E+01  0.36014457605E+02  0.00000000000E+00 0.  1.
</event>
<event>
 7    1  0.2641580E-009  0.1835878E+03  0.7561462E-02  0.1164375E+00
         -2   -1    0    0    0  501 -0.00000000000E+00  0.00000000000E+00  0.18282132041E+03  0.18282132041E+03  0.00000000000E+00 0.  1.
          2   -1    0    0  501    0  0.00000000000E+00 -0.00000000000E+00 -0.21315178900E+03  0.21315178900E+03  0.00000000000E+00 0. -1.
         25    2    1    2    0    0 -0.14553961283E+03  0.34337705007E+02 -0.85738120735E+02  0.21298403618E+03  0.12510122874E+03 0.  0.
          5    1    3    3  502    0 -0.82581775374E+02 -0.44298618233E+02 -0.35068963893E+02  0.10014700110E+03  0.41800000000E+01 0.  1.
         -5    1    3    3    0  502 -0.62957837452E+02  0.78636323240E+02 -0.50669156842E+02  0.11283703507E+03  0.41800000000E+01 0.  1.
        -11    1    1    2    0    0  0.14983759662E+03 -0.48703022438E+02  0.57766464884E+02  0.16781017317E+03  0.00000000000E+00 0.  1.
         11    1    1    2    0    0 -0.42979837921E+01  0.14365317431E+02 -0.23588127369E+01  0.15178900062E+02  0.00000000000E+00 0. -1.
</event>
<event>
 7    1  0.4533619E-009  0.1444767E+03  0.7561462E-02  0.1207429E+00
         -1   -1    0    0    0  501 -0.00000000000E+00  0.00000000000E+00  0.28339318659E+02  0.28339318659E+02  0.00000000000E+00 0.  1.
          1   -1    0    0  501    0  0.00000000000E+00 -0.00000000000E+00 -0.89785038287E+03  0.89785038287E+03  0.00000000000E+00 0. -1.
         25    2    1    2    0    0 -0.78692258116E+02 -0.84400518651E+02 -0.50728206895E+03  0.53506898386E+03  0.12509117064E+03 0.  0.
          5    1    3    3  502    0  0.33715766754E+02 -0.10606448693E+02 -0.10021477449E+03  0.10634718195E+03  0.41800000000E+01 0.  1.
         -5    1    3    3    0  502 -0.11240802487E+03 -0.73794069959E+02 -0.40706729446E+03  0.42872180191E+03  0.41800000000E+01 0.  1.
        -11    1    1    2    0    0  0.53980307803E+02  0.74968490433E+02 -0.34998798467E+03  0.36197477481E+03  0.00000000000E+00 0. -1.
         11    1    1    2    0    0  0.24711950313E+02  0.94320282184E+01 -0.12241010587E+02  0.29145942853E+02  0.00000000000E+00 0.  1.
</event>
<event>
 7    1  0.2641580E-009  0.9556900E+02  0.7561462E-02  0.1289900E+00
          1   -1    0    0  501    0  0.00000000000E+00  0.00000000000E+00  0.27031833049E+03  0.27031833049E+03  0.00000000000E+00 0. -1.
         -1   -1    0    0    0  501 -0.00000000000E+00 -0.00000000000E+00 -0.61758905966E+02  0.61758905966E+02  0.00000000000E+00 0.  1.
         25    2    1    2    0    0  0.75002598051E+01 -0.69396181185E+02  0.12528715681E+03  0.19030384579E+03  0.12508636297E+03 0.  0.
          5    1    3    3  502    0 -0.11778328642E+02 -0.61780216033E+02  0.14703174010E+03  0.15997290119E+03  0.41800000000E+01 0.  1.
         -5    1    3    3    0  502  0.19278588447E+02 -0.76159651514E+01 -0.21744583293E+02  0.30330944599E+02  0.41800000000E+01 0.  1.
        -11    1    1    2    0    0 -0.44443332319E+02  0.37242285796E+02  0.19104526977E+02  0.61050639554E+02  0.00000000000E+00 0.  1.
         11    1    1    2    0    0  0.36943072514E+02  0.32153895388E+02  0.64167740739E+02  0.80722751111E+02  0.00000000000E+00 0. -1.
</event>
<event>
 7    1  0.2641580E-009  0.1550137E+03  0.7561462E-02  0.1194444E+00
          1   -1    0    0  501    0  0.00000000000E+00  0.00000000000E+00  0.15575814969E+04  0.15575814969E+04  0.00000000000E+00 0. -1.
         -1   -1    0    0    0  501 -0.00000000000E+00 -0.00000000000E+00 -0.34150781416E+02  0.34150781416E+02  0.00000000000E+00 0.  1.
         25    2    1    2    0    0 -0.79189419773E+02  0.11118941472E+03  0.13092562684E+04  0.13222832564E+04  0.12508790382E+03 0.  0.
          5    1    3    3  502    0  0.11389846051E+02  0.14358843101E+01  0.52926762220E+03  0.52940861220E+03  0.41800000000E+01 0. -1.
         -5    1    3    3    0  502 -0.90579265824E+02  0.10975353041E+03  0.77998864619E+03  0.79287464421E+03  0.41800000000E+01 0. -1.
        -11    1    1    2    0    0 -0.12150265167E+02 -0.33151425193E+02  0.89967925477E+02  0.96648194761E+02  0.00000000000E+00 0. -1.
         11    1    1    2    0    0  0.91339684941E+02 -0.78037989526E+02  0.12420652162E+03  0.17280082716E+03  0.00000000000E+00 0.  1.
</event>
<event>
 7    1  0.2641580E-009  0.1464922E+03  0.7561462E-02  0.1204851E+00
         -1   -1    0    0    0  501 -0.00000000000E+00  0.00000000000E+00  0.12677206818E+04  0.12677206818E+04  0.00000000000E+00 0.  1.
          1   -1    0    0  501    0  0.00000000000E+00 -0.00000000000E+00 -0.21518528170E+02  0.21518528170E+02  0.00000000000E+00 0. -1.
         25    2    1    2    0    0  0.11242828485E+03  0.57155967371E+02  0.68213218688E+03  0.70488445186E+03  0.12510334235E+03 0.  0.
          5    1    3    3  502    0  0.12419503886E+03  0.44272880341E+02  0.38048876457E+03  0.40270791893E+03  0.41800000000E+01 0.  1.
         -5    1    3    3    0  502 -0.11766754005E+02  0.12883087030E+02  0.30164342231E+03  0.30217653293E+03  0.41800000000E+01 0.  1.
        -11    1    1    2    0    0 -0.21292568174E+02 -0.46784932771E+02  0.31004387274E+03  0.31427600356E+03  0.00000000000E+00 0.  1.
         11    1    1    2    0    0 -0.91135716680E+02 -0.10371034600E+02  0.25402609402E+03  0.27007875454E+03  0.00000000000E+00 0. -1.
</event>
<event>
 7    1  0.2641580E-009  0.1077401E+03  0.7561462E-02  0.1264813E+00
         -1   -1    0    0    0  501 -0.00000000000E+00  0.00000000000E+00  0.78857558115E+02  0.78857558115E+02  0.00000000000E+00 0.  1.
          1   -1    0    0  501    0  0.00000000000E+00 -0.00000000000E+00 -0.23767051693E+03  0.23767051693E+03  0.00000000000E+00 0. -1.
         25    2    1    2    0    0 -0.49172011215E+02 -0.34208421710E+02 -0.15131151164E+03  0.20525985258E+03  0.12509328809E+03 0.  0.
          5    1    3    3  502    0  0.22383657785E+02  0.48972432235E+01  0.93044375623E+01  0.25080990518E+02  0.41800000000E+01 0.  1.
         -5    1    3    3    0  502 -0.71555669000E+02 -0.39105664933E+02 -0.16061594921E+03  0.18017886207E+03  0.41800000000E+01 0.  1.
        -11    1    1    2    0    0  0.12228153682E+02  0.62701251703E+02  0.76204701214E+00  0.63887052078E+02  0.00000000000E+00 0. -1.
         11    1    1    2    0    0  0.36943857534E+02 -0.28492829993E+02 -0.82634941794E+01  0.47381170379E+02  0.00000000000E+00 0.  1.
</event>
<event>
 7    1  0.2641580E-009  0.1284690E+03  0.7561462E-02  0.1229745E+00
         -1   -1    0    0    0  501 -0.00000000000E+00  0.00000000000E+00  0.30769611118E+03  0.30769611118E+03  0.00000000000E+00 0.  1.
          1   -1    0    0  501    0  0.00000000000E+00 -0.00000000000E+00 -0.71253618499E+02  0.71253618499E+02  0.00000000000E+00 0. -1.
         25    2    1    2    0    0 -0.53714888252E+02  0.80518326191E+02  0.16539508394E+03  0.22884831350E+03  0.12509007444E+03 0.  0.
          5    1    3    3  502    0 -0.72292390136E+02  0.90268024100E+02  0.79675791938E+02  0.14049985789E+03  0.41800000000E+01 0. -1.
         -5    1    3    3    0  502  0.18577501884E+02 -0.97496979089E+01  0.85719292007E+02  0.88348455604E+02  0.41800000000E+01 0. -1.
        -11    1    1    2    0    0  0.53183553071E+01 -0.70118926023E+02  0.71929597613E+02  0.10059232427E+03  0.00000000000E+00 0.  1.
         11    1    1    2    0    0  0.48396532945E+02 -0.10399400168E+02 -0.88218887211E+00  0.49509091914E+02  0.00000000000E+00 0. -1.
</event>
<event>
 7    1  0.2641580E-009  0.1932620E+03  0.7561462E-02  0.1155552E+00
          2   -1    0    0  501    0  0.00000000000E+00  0.00000000000E+00  0.37807800233E+03  0.37807800233E+03  0.00000000000E+00 0. -1.
         -2   -1    0    0    0  501 -0.00000000000E+00 -0.00000000000E+00 -0.12274163321E+03  0.12274163321E+03  0.00000000000E+00 0.  1.
         25    2    1    2    0    0  0.16404789087E+03  0.78893476070E+01  0.23712045298E+03  0.31439990130E+03  0.12508891402E+03 0.  0.
          5    1    3    3  502    0 -0.13041700836E+02 -0.20104957307E+02  0.13743170599E+02  0.27939978653E+02  0.41800000000E+01 0. -1.
         -5    1    3    3    0  502  0.17708959170E+03  0.27994304914E+02  0.22337728238E+03  0.28645992264E+03  0.41800000000E+01 0. -1.
        -11    1    1    2    0    0 -0.12972172830E+02  0.25073497843E+02  0.14519870658E+02  0.31745617114E+02  0.00000000000E+00 0. -1.
         11    1    1    2    0    0 -0.15107571804E+03 -0.32962845450E+02  0.36960454850E+01  0.15467411714E+03  0.00000000000E+00 0.  1.
</event>
<event>
 7    1  0.2641580E-009  0.2095781E+03  0.7561462E-02  0.1141901E+00
          2   -1    0    0  501    0  0.00000000000E+00  0.00000000000E+00  0.98911337785E+03  0.98911337785E+03  0.00000000000E+00 0. -1.
         -2   -1    0    0    0  501 -0.00000000000E+00 -0.00000000000E+00 -0.50214415080E+02  0.50214415080E+02  0.00000000000E+00 0.  1.
         25    2    1    2    0    0 -0.16589982575E+03  0.95111537251E+02  0.52863666356E+03  0.57591003083E+03  0.12508670930E+03 0.  0.
          5    1    3    3  502    0 -0.26192035852E+02  0.67026044837E+02  0.93791124613E+02  0.11829100086E+03  0.41800000000E+01 0. -1.
         -5    1    3    3    0  502 -0.13970778990E+03  0.28085492414E+02  0.43484553895E+03  0.45761902997E+03  0.41800000000E+01 0. -1.
        -11    1    1    2    0    0  0.67517405966E+02 -0.80470029448E+02  0.28320310017E+03  0.30205632206E+03  0.00000000000E+00 0. -1.
         11    1    1    2    0    0  0.98382419787E+02 -0.14641507803E+02  0.12705919904E+03  0.16136144005E+03  0.00000000000E+00 0.  1.
</event>
<event>
 7    1  0.2641580E-009  0.1343900E+03  0.7561462E-02  0.1221083E+00
         -1   -1    0    0    0  501 -0.00000000000E+00  0.00000000000E+00  0.88047496715E+02  0.88047496715E+02  0.00000000000E+00 0.  1.
          1   -1    0    0  501    0  0.00000000000E+00 -0.00000000000E+00 -0.29498700046E+03  0.29498700046E+03  0.00000000000E+00 0. -1.
         25    2    1    2    0    0 -0.12108602021E+03  0.68472213785E+01 -0.98026121828E+02  0.19991187492E+03  0.12508768302E+03 0.  0.
          5    1    3    3  502    0 -0.64412402754E+02  0.36206747122E+00 -0.12189805709E+03  0.13793367045E+03  0.41800000000E+01 0. -1.
         -5    1    3    3    0  502 -0.56673617451E+02  0.64851539073E+01  0.23871935260E+02  0.61978204470E+02  0.41800000000E+01 0. -1.
        -11    1    1    2    0    0 -0.52439368434E+01 -0.19387116073E+02 -0.18075012873E+02  0.27019719347E+02  0.00000000000E+00 0. -1.
         11    1    1    2    0    0  0.12632995705E+03  0.12539894695E+02 -0.90838369048E+02  0.15610290291E+03  0.00000000000E+00 0.  1.
</event>
<event>
 7    1  0.2641580E-009  0.9805198E+02  0.7561462E-02  0.1284447E+00
         -1   -1    0    0    0  501 -0.00000000000E+00  0.00000000000E+00  0.18907731554E+03  0.18907731554E+03  0.00000000000E+00 0.  1.
          1   -1    0    0  501    0  0.00000000000E+00 -0.00000000000E+00 -0.25916401944E+03  0.25916401944E+03  0.00000000000E+00 0. -1.
         25    2    1    2    0    0 -0.47694081589E+02 -0.52036341767E+02  0.14490129138E+03  0.20402500775E+03  0.12508922119E+03 0.  0.
          5    1    3    3  502    0 -0.39309436857E+02 -0.82035830706E+02  0.14656667524E+03  0.17255251964E+03  0.41800000000E+01 0. -1.
         -5    1    3    3    0  502 -0.83846447325E+01  0.29999488939E+02 -0.16653838565E+01  0.31472488101E+02  0.41800000000E+01 0. -1.
        -11    1    1    2    0    0  0.10484675739E+02  0.11142146915E+01  0.75149341496E+01  0.12947746329E+02  0.00000000000E+00 0.  1.
         11    1    1    2    0    0  0.37209405850E+02  0.50922127076E+02 -0.22250292943E+03  0.23126858091E+03  0.00000000000E+00 0. -1.
</event>
<event>
 6    1  0.2641580E-009  0.9232016E+02  0.7561462E-02  0.1297328E+00
         -4   -1    0    0    0  501 -0.00000000000E+00  0.00000000000E+00  0.23345877563E+03  0.23345877563E+03  0.00000000000E+00 0.  1.
          4   -1    0    0  501    0  0.00000000000E+00 -0.00000000000E+00 -0.79208254486E+02  0.79208254486E+02  0.00000000000E+00 0. -1.
          5    1    1    2  502    0 -0.87142782661E+01  0.42120473473E+02  0.11159061735E+03  0.11966624926E+03  0.41800000000E+01 0.  1.
         -5    1    1    2    0  502  0.52038810525E+02  0.27782547913E+02 -0.11875119185E+02  0.60319139790E+02  0.41800000000E+01 0.  1.
        -11    1    1    2    0    0 -0.12399480712E+02 -0.17699279810E+02  0.67293792614E+02  0.70678611702E+02  0.00000000000E+00 0.  1.
         11    1    1    2    0    0 -0.30925051547E+02 -0.52203741576E+02 -0.12758769635E+02  0.62003029364E+02  0.00000000000E+00 0. -1.
</event>
<event>
 7    1  0.2641580E-009  0.9889065E+02  0.7561462E-02  0.1282646E+00
         -1   -1    0    0    0  501 -0.00000000000E+00  0.00000000000E+00  0.29052964536E+02  0.29052964536E+02  0.00000000000E+00 0.  1.
          1   -1    0    0  501    0  0.00000000000E+00 -0.00000000000E+00 -0.45275740168E+03  0.45275740168E+03  0.00000000000E+00 0. -1.
         25    2    1    2    0    0 -0.23798909406E+01 -0.27475221269E+02 -0.29319998022E+03  0.31995950349E+03  0.12508918344E+03 0.  0.
          5    1    3    3  502    0  0.26017288456E+01 -0.64836480382E+02 -0.78484141702E+02  0.10192041542E+03  0.41800000000E+01 0. -1.
         -5    1    3    3    0  502 -0.49816197862E+01  0.37361259113E+02 -0.21471583851E+03  0.21803908807E+03  0.41800000000E+01 0. -1.
        -11    1    1    2    0    0 -0.37240697226E+02  0.38646729027E+02 -0.84641957918E+02  0.10022325197E+03  0.00000000000E+00 0. -1.
         11    1    1    2    0    0  0.39620588167E+02 -0.11171507758E+02 -0.45862499014E+02  0.61627610761E+02  0.00000000000E+00 0.  1.
</event>
<event>
 7    1  0.2641580E-009  0.1092321E+03  0.7561462E-02  0.1261998E+00
          1   -1    0    0  501    0  0.00000000000E+00  0.00000000000E+00  0.11425208041E+03  0.11425208041E+03  0.00000000000E+00 0. -1.
         -1   -1    0    0    0  501 -0.00000000000E+00 -0.00000000000E+00 -0.13133866810E+03  0.13133866810E+03  0.00000000000E+00 0.  1.
         25    2    1    2    0    0  0.27988688132E+02 -0.27423492980E+02 -0.18446650014E+02  0.13237385590E+03  0.12508854543E+03 0.  0.
          5    1    3    3  502    0 -0.25880280183E+02 -0.43247033991E+02  0.29392524729E+02  0.58493484777E+02  0.41800000000E+01 0.  1.
         -5    1    3    3    0  502  0.53868968314E+02  0.15823541011E+02 -0.47839174743E+02  0.73880371124E+02  0.41800000000E+01 0.  1.
        -11    1    1    2    0    0  0.38836201816E+02 -0.12932225279E+01 -0.86176261301E+01  0.39801840110E+02  0.00000000000E+00 0. -1.
         11    1    1    2    0    0 -0.66824889948E+02  0.28716715508E+02  0.99776884542E+01  0.73415052496E+02  0.00000000000E+00 0.  1.
</event>
<event>
 7    1  0.2641580E-009  0.1135534E+03  0.7561462E-02  0.1254128E+00
         -2   -1    0    0    0  501 -0.00000000000E+00  0.00000000000E+00  0.41622463549E+02  0.41622463549E+02  0.00000000000E+00 0.  1.
          2   -1    0    0  501    0  0.00000000000E+00 -0.00000000000E+00 -0.36495698394E+03  0.36495698394E+03  0.00000000000E+00 0. -1.
         25    2    1    2    0    0 -0.63693230161E+02  0.28847224597E+02 -0.17361986966E+03  0.22512295345E+03  0.12508994802E+03 0.  0.
          5    1    3    3  502    0 -0.71987753381E+02  0.60453086040E+02 -0.72545023551E+02  0.11881525614E+03  0.41800000000E+01 0.  1.
         -5    1    3    3    0  502  0.82945232201E+01 -0.31605861443E+02 -0.10107484611E+03  0.10630769731E+03  0.41800000000E+01 0.  1.
        -11    1    1    2    0    0  0.78781486461E+02 -0.31317596480E+02 -0.13890265953E+03  0.16273064642E+03  0.00000000000E+00 0.  1.
         11    1    1    2    0    0 -0.15088256301E+02  0.24703718830E+01 -0.10811991204E+02  0.18725847624E+02  0.00000000000E+00 0. -1.
</event>
<event>
 7    1  0.2641580E-009  0.1142975E+03  0.7561462E-02  0.1252812E+00
         -2   -1    0    0    0  501 -0.00000000000E+00  0.00000000000E+00  0.39101304157E+02  0.39101304157E+02  0.00000000000E+00 0.  1.
          2   -1    0    0  501    0  0.00000000000E+00 -0.00000000000E+00 -0.44054068503E+03  0.44054068503E+03  0.00000000000E+00 0. -1.
         25    2    1    2    0    0  0.23876164999E+02 -0.71314785508E+02 -0.15941059538E+03  0.21611590564E+03  0.12505389584E+03 0.  0.
          5    1    3    3  502    0 -0.28321873337E+01 -0.10361708401E+03 -0.11044629305E+03  0.15152682084E+03  0.41800000000E+01 0.  1.
         -5    1    3    3    0  502  0.26708352333E+02  0.32302298504E+02 -0.48964302324E+02  0.64589084798E+02  0.41800000000E+01 0.  1.
        -11    1    1    2    0    0 -0.22333913189E+02  0.16185139975E+02 -0.18301771186E+02  0.33101620245E+02  0.00000000000E+00 0.  1.
         11    1    1    2    0    0 -0.15422518103E+01  0.55129645533E+02 -0.22372701430E+03  0.23042446330E+03  0.00000000000E+00 0. -1.
</event>
<event>
 7    1  0.2641580E-009  0.1216990E+03  0.7561462E-02  0.1240320E+00
          2   -1    0    0  501    0  0.00000000000E+00  0.00000000000E+00  0.23403919602E+03  0.23403919602E+03  0.00000000000E+00 0. -1.
         -2   -1    0    0    0  501 -0.00000000000E+00 -0.00000000000E+00 -0.73203078241E+02  0.73203078241E+02  0.00000000000E+00 0.  1.
         25    2    1    2    0    0  0.69255697932E+02  0.23929175336E+02  0.74510305402E+02  0.16299740529E+03  0.12508961345E+03 0.  0.
          5    1    3    3  502    0 -0.23564876380E+02  0.27744141727E+02 -0.93087112304E+01  0.37804302715E+02  0.41800000000E+01 0.  1.
         -5    1    3    3    0  502  0.92820574312E+02 -0.38149663910E+01  0.83819016633E+02  0.12519310258E+03  0.41800000000E+01 0.  1.
        -11    1    1    2    0    0  0.45817743904E+01 -0.38273543119E+02  0.17665397955E+02  0.42401922650E+02  0.00000000000E+00 0.  1.
         11    1    1    2    0    0 -0.73837472323E+02  0.14344367783E+02  0.68660414426E+02  0.10184294632E+03  0.00000000000E+00 0. -1.
</event>
<event>
 7    1  0.2641580E-009  0.9487543E+02  0.7561462E-02  0.1291457E+00
          1   -1    0    0  501    0  0.00000000000E+00  0.00000000000E+00  0.15877872692E+03  0.15877872692E+03  0.00000000000E+00 0. -1.
         -1   -1    0    0    0  501 -0.00000000000E+00 -0.00000000000E+00 -0.76970354847E+02  0.76970354847E+02  0.00000000000E+00 0.  1.
         25    2    1    2    0    0 -0.23929380698E+02 -0.56628209495E+01  0.45330686123E+02  0.13529974968E+03  0.12508584395E+03 0.  0.
          5    1    3    3  502    0 -0.59955938698E+02  0.31560065157E+02  0.24591863097E+01  0.67928435100E+02  0.41800000000E+01 0. -1.
         -5    1    3    3    0  502  0.36026558000E+02 -0.37222886106E+02  0.42871499814E+02  0.67371314576E+02  0.41800000000E+01 0. -1.
        -11    1    1    2    0    0  0.88842778637E+01  0.35438767522E+02 -0.14680562124E+02  0.39374554485E+02  0.00000000000E+00 0.  1.
         11    1    1    2    0    0  0.15045102834E+02 -0.29775946572E+02  0.51158248077E+02  0.61074777608E+02  0.00000000000E+00 0. -1.
</event>
<event>
 7    1  0.2665130E-009  0.1122217E+03  0.7561462E-02  0.1256510E+00
         -2   -1    0    0    0  501 -0.00000000000E+00  0.00000000000E+00  0.60220860923E+02  0.60220860923E+02  0.00000000000E+00 0.  1.
          2   -1    0    0  501    0  0.00000000000E+00 -0.00000000000E+00 -0.53392579579E+03  0.53392579579E+03  0.00000000000E+00 0. -1.
         25    2    1    2    0    0  0.10320434470E+03 -0.33300674722E+02 -0.40366894576E+03  0.43629880533E+03  0.12509179851E+03 0.  0.
          5    1    3    3  502    0  0.92896950930E+02 -0.22681476651E+02 -0.40897853274E+03  0.42003000550E+03  0.41800000000E+01 0.  1.
         -5    1    3    3    0  502  0.10307393769E+02 -0.10619198070E+02  0.53095869788E+01  0.16268799828E+02  0.41800000000E+01 0.  1.
        -11    1    1    2    0    0 -0.69498130500E+02  0.38173259963E+02  0.74993254954E+00  0.79295336042E+02  0.00000000000E+00 0.  1.
         11    1    1    2    0    0 -0.33706214199E+02 -0.48725852412E+01 -0.70785921656E+02  0.78552515346E+02  0.00000000000E+00 0. -1.
</event>
<event>
 7    1  0.2641580E-009  0.1284522E+03  0.7561462E-02  0.1229771E+00
         -4   -1    0    0    0  501 -0.00000000000E+00  0.00000000000E+00  0.66969003489E+03  0.66969003489E+03  0.00000000000E+00 0.  1.
          4   -1    0    0  501    0  0.00000000000E+00 -0.00000000000E+00 -0.32226385100E+02  0.32226385100E+02  0.00000000000E+00 0. -1.
         25    2    1    2    0    0  0.98284491059E+02 -0.22013663389E+02  0.30430313826E+03  0.34408331816E+03  0.12509391401E+03 0.  0.
          5    1    3    3  502    0  0.55987179169E+02  0.48086703960E+02  0.10347179777E+03  0.12716438441E+03  0.41800000000E+01 0. -1.
         -5    1    3    3    0  502  0.42297311891E+02 -0.70100367349E+02  0.20083134049E+03  0.21691893375E+03  0.41800000000E+01 0. -1.
        -11    1    1    2    0    0 -0.20120761561E+02  0.76801851064E+01  0.77955129784E+01  0.22904154900E+02  0.00000000000E+00 0. -1.
         11    1    1    2    0    0 -0.78163729498E+02  0.14333478283E+02  0.32536499855E+03  0.33492894693E+03  0.00000000000E+00 0.  1.
</event>
<event>
 7    1  0.2641580E-009  0.8315515E+02  0.7561462E-02  0.1320329E+00
          1   -1    0    0  501    0  0.00000000000E+00  0.00000000000E+00  0.85529648608E+03  0.85529648608E+03  0.00000000000E+00 0. -1.
         -1   -1    0    0    0  501 -0.00000000000E+00 -0.00000000000E+00 -0.20795125471E+02  0.20795125471E+02  0.00000000000E+00 0.  1.
         25    2    1    2    0    0 -0.86432337502E+01 -0.88531974952E+01  0.70913058983E+03  0.72018503899E+03  0.12508881785E+03 0.  0.
          5    1    3    3  502    0 -0.50399299667E+02  0.62779581761E+01  0.13458138261E+03  0.14390664721E+03  0.41800000000E+01 0.  1.
         -5    1    3    3    0  502  0.41756065917E+02 -0.15131155671E+02  0.57454920721E+03  0.57627839177E+03  0.41800000000E+01 0.  1.
        -11    1    1    2    0    0  0.17718286945E+02  0.37077237490E+02  0.18619250599E+02  0.45114695223E+02  0.00000000000E+00 0.  1.
         11    1    1    2    0    0 -0.90750531946E+01 -0.28224039995E+02  0.10675152018E+03  0.11079187734E+03  0.00000000000E+00 0. -1.
</event>
<event>
 7    1  0.2641580E-009  0.1640799E+03  0.7561462E-02  0.1184166E+00
          1   -1    0    0  501    0  0.00000000000E+00  0.00000000000E+00  0.50897031945E+03  0.50897031945E+03  0.00000000000E+00 0. -1.
         -1   -1    0    0    0  501 -0.00000000000E+00 -0.00000000000E+00 -0.72262298895E+02  0.72262298895E+02  0.00000000000E+00 0.  1.
         25    2    1    2    0    0 -0.10975152242E+02  0.15616995267E+03  0.26422872533E+03  0.33161838340E+03  0.12507767519E+03 0.  0.
          5    1    3    3  502    0  0.29672887361E+02  0.64943775406E+02  0.31156679123E+02  0.78015288644E+02  0.41800000000E+01 0.  1.
         -5    1    3    3    0  502 -0.40648039603E+02  0.91226177264E+02  0.23307204621E+03  0.25360309475E+03  0.41800000000E+01 0.  1.
        -11    1    1    2    0    0 -0.79172552328E+00 -0.12641058868E+02  0.74179300040E+02  0.75252852125E+02  0.00000000000E+00 0. -1.
         11    1    1    2    0    0  0.11766877765E+02 -0.14352889380E+03  0.98299995185E+02  0.17436138283E+03  0.00000000000E+00 0.  1.
</event>
<event>
 7    1  0.2641580E-009  0.1580129E+03  0.7561462E-02  0.1190959E+00
         -1   -1    0    0    0  501 -0.00000000000E+00  0.00000000000E+00  0.14169218274E+03  0.14169218274E+03  0.00000000000E+00 0.  1.
          1   -1    0    0  501    0  0.00000000000E+00 -0.00000000000E+00 -0.20841360761E+03  0.20841360761E+03  0.00000000000E+00 0. -1.
         25    2    1    2    0    0  0.73915101029E+02  0.10473554491E+03 -0.69397967611E+02  0.19208430561E+03  0.12508927223E+03 0.  0.
          5    1    3    3  502    0 -0.15619862540E+02  0.69052613232E+02 -0.63886961261E+02  0.95452918861E+02  0.41800000000E+01 0.  1.
         -5    1    3    3    0  502  0.89534963569E+02  0.35682931682E+02 -0.55110063495E+01  0.96631386752E+02  0.41800000000E+01 0.  1.
        -11    1    1    2    0    0 -0.64543927985E+02 -0.26395443721E+02 -0.25490784251E+02  0.74245660955E+02  0.00000000000E+00 0. -1.
         11    1    1    2    0    0 -0.93711730445E+01 -0.78340101193E+02  0.28167326990E+02  0.83775823774E+02  0.00000000000E+00 0.  1.
</event>
<event>
 7    1  0.2641580E-009  0.8522732E+02  0.7561462E-02  0.1314839E+00
         -2   -1    0    0    0  501 -0.00000000000E+00  0.00000000000E+00  0.45163605368E+02  0.45163605368E+02  0.00000000000E+00 0.  1.
          2   -1    0    0  501    0  0.00000000000E+00 -0.00000000000E+00 -0.28063087862E+03  0.28063087862E+03  0.00000000000E+00 0. -1.
         25    2    1    2    0    0  0.20522141174E+02  0.30418619902E+01 -0.16388624099E+03  0.20721249453E+03  0.12509159325E+03 0.  0.
          5    1    3    3  502    0 -0.26911760957E+02 -0.29800040933E+02 -0.82911335918E+01  0.41212869515E+02  0.41800000000E+01 0. -1.
         -5    1    3    3    0  502  0.47433902131E+02  0.32841902923E+02 -0.15559510739E+03  0.16599962501E+03  0.41800000000E+01 0. -1.
        -11    1    1    2    0    0 -0.69346848097E+01  0.33000356791E+02 -0.72601078149E+02  0.80050171457E+02  0.00000000000E+00 0. -1.
         11    1    1    2    0    0 -0.13587456364E+02 -0.36042218782E+02  0.10200458833E+01  0.38531818005E+02  0.00000000000E+00 0.  1.
</event>
<event>
 7    1  0.2641580E-009  0.1224112E+03  0.7561462E-02  0.1239172E+00
         -2   -1    0    0    0  501 -0.00000000000E+00  0.00000000000E+00  0.18838185154E+02  0.18838185154E+02  0.00000000000E+00 0.  1.
          2   -1    0    0  501    0  0.00000000000E+00 -0.00000000000E+00 -0.10957180726E+04  0.10957180726E+04  0.00000000000E+00 0. -1.
         25    2    1    2    0    0  0.44989880916E+02 -0.85199906363E+02 -0.63603515802E+03  0.65534137647E+03  0.12509390094E+03 0.  0.
          5    1    3    3  502    0  0.55670450065E+02 -0.37404911183E+02 -0.56486400873E+03  0.56884720897E+03  0.41800000000E+01 0. -1.
         -5    1    3    3    0  502 -0.10680569149E+02 -0.47794995179E+02 -0.71171149291E+02  0.86494167509E+02  0.41800000000E+01 0. -1.
        -11    1    1    2    0    0  0.19569242635E+02  0.52651914847E+02 -0.18317621914E+03  0.19159516344E+03  0.00000000000E+00 0.  1.
         11    1    1    2    0    0 -0.64559123551E+02  0.32547991516E+02 -0.25766851031E+03  0.26761971787E+03  0.00000000000E+00 0. -1.
</event>
<event>
 7    1  0.2700564E-009  0.1324366E+03  0.7561462E-02  0.1223884E+00
         -3   -1    0    0    0  501 -0.00000000000E+00  0.00000000000E+00  0.10462294441E+03  0.10462294441E+03  0.00000000000E+00 0.  1.
          3   -1    0    0  501    0  0.00000000000E+00 -0.00000000000E+00 -0.26222874026E+03  0.26222874026E+03  0.00000000000E+00 0. -1.
         25    2    1    2    0    0 -0.58604652954E+02 -0.96351028424E+02 -0.14378689161E+03  0.22145007952E+03  0.12508973376E+03 0.  0.
          5    1    3    3  502    0 -0.44704703545E+02 -0.77850408575E+01 -0.12035647868E+03  0.12869448994E+03  0.41800000000E+01 0.  1.
         -5    1    3    3    0  502 -0.13899949409E+02 -0.88565987567E+02 -0.23430412927E+02  0.92755589574E+02  0.41800000000E+01 0.  1.
        -11    1    1    2    0    0  0.71870879114E+02  0.71461151137E+02  0.17939580313E+02  0.10292690575E+03  0.00000000000E+00 0.  1.
         11    1    1    2    0    0 -0.13266226160E+02  0.24889877288E+02 -0.31758484557E+02  0.42474699402E+02  0.00000000000E+00 0. -1.
</event>
<event>
 7    1  0.2641580E-009  0.8710453E+02  0.7561462E-02  0.1310019E+00
          2   -1    0    0  501    0  0.00000000000E+00  0.00000000000E+00  0.73267147244E+02  0.73267147244E+02  0.00000000000E+00 0. -1.
         -2   -1    0    0    0  501 -0.00000000000E+00 -0.00000000000E+00 -0.20517332011E+03  0.20517332011E+03  0.00000000000E+00 0.  1.
         25    2    1    2    0    0  0.23678991537E+02 -0.53096252652E+02 -0.54423809807E+02  0.14828919540E+03  0.12509127753E+03 0.  0.
          5    1    3    3  502    0 -0.27844002535E+02 -0.55924437736E+02  0.12328539596E+02  0.63814547729E+02  0.41800000000E+01 0.  1.
         -5    1    3    3    0  502  0.51522994072E+02  0.28281850847E+01 -0.66752349403E+02  0.84474647675E+02  0.41800000000E+01 0.  1.
        -11    1    1    2    0    0 -0.13593813121E+02  0.14253736170E+02 -0.86755520103E+02  0.88963368969E+02  0.00000000000E+00 0.  1.
         11    1    1    2    0    0 -0.10085178416E+02  0.38842516482E+02  0.92731570453E+01  0.41187902980E+02  0.00000000000E+00 0. -1.
</event>
<event>
 7    1  0.2641580E-009  0.1738313E+03  0.7561462E-02  0.1173910E+00
          2   -1    0    0  501    0  0.00000000000E+00  0.00000000000E+00  0.74145971606E+03  0.74145971606E+03  0.00000000000E+00 0.  1.
         -2   -1    0    0    0  501 -0.00000000000E+00 -0.00000000000E+00 -0.54722388510E+02  0.54722388510E+02  0.00000000000E+00 0. -1.
         25    2    1    2    0    0 -0.13154631969E+03  0.33445999263E+02  0.16023163630E+03  0.24441990369E+03  0.12507534911E+03 0.  0.
          5    1    3    3  502    0 -0.39966765725E+02  0.73668775752E+02  0.63754758730E+02  0.10538772483E+03  0.41800000000E+01 0. -1.
         -5    1    3    3    0  502 -0.91579553965E+02 -0.40222776489E+02  0.96476877573E+02  0.13903217886E+03  0.41800000000E+01 0. -1.
        -11    1    1    2    0    0  0.51032040042E+02 -0.60082328009E+02  0.21810113631E+03  0.23191002761E+03  0.00000000000E+00 0.  1.
         11    1    1    2    0    0  0.80514279647E+02  0.26636328746E+02  0.30840455494E+03  0.31985217327E+03  0.00000000000E+00 0. -1.
</event>
<event>
 7    1  0.2641580E-009  0.3133647E+02  0.7561462E-02  0.1583769E+00
          2   -1    0    0  501    0  0.00000000000E+00  0.00000000000E+00  0.49953763873E+03  0.49953763873E+03  0.00000000000E+00 0. -1.
         -2   -1    0    0    0  501 -0.00000000000E+00 -0.00000000000E+00 -0.51783605095E+02  0.51783605095E+02  0.00000000000E+00 0.  1.
         25    2    1    2    0    0  0.89960407393E+01  0.17836397844E+02  0.44106672118E+03  0.45889677572E+03  0.12508929769E+03 0.  0.
          5    1    3    3  502    0  0.15290843978E+02 -0.18143494639E+01  0.43720014183E+03  0.43749118642E+03  0.41800000000E+01 0.  1.
         -5    1    3    3    0  502 -0.62948032384E+01  0.19650747308E+02  0.38665793461E+01  0.21405589303E+02  0.41800000000E+01 0.  1.
        -11    1    1    2    0    0 -0.11208697336E+02 -0.43913998014E+01 -0.41050954704E+02  0.42779670059E+02  0.00000000000E+00 0.  1.
         11    1    1    2    0    0  0.22126565962E+01 -0.13444998042E+02  0.47738267158E+02  0.49644798044E+02  0.00000000000E+00 0. -1.
</event>
<event>
 7    1  0.3247380E-009  0.2459914E+03  0.7561462E-02  0.1115865E+00
         -1   -1    0    0    0  501 -0.00000000000E+00  0.00000000000E+00  0.46189927262E+02  0.46189927262E+02  0.00000000000E+00 0.  1.
          1   -1    0    0  501    0  0.00000000000E+00 -0.00000000000E+00 -0.13999086601E+04  0.13999086601E+04  0.00000000000E+00 0. -1.
         25    2    1    2    0    0  0.22147810640E+03 -0.34150908008E+02 -0.55273752662E+03  0.60941453842E+03  0.12509384545E+03 0.  0.
          5    1    3    3  502    0  0.14858397828E+03 -0.75652037401E+02 -0.30213652650E+03  0.34511502779E+03  0.41800000000E+01 0.  1.
         -5    1    3    3    0  502  0.72894128120E+02  0.41501129393E+02 -0.25060100012E+03  0.26429951062E+03  0.41800000000E+01 0.  1.
        -11    1    1    2    0    0 -0.14912455382E+03 -0.20514277718E+02 -0.52773316716E+03  0.54878161765E+03  0.00000000000E+00 0.  1.
         11    1    1    2    0    0 -0.72353552574E+02  0.54665185726E+02 -0.27324803908E+03  0.28790243132E+03  0.00000000000E+00 0. -1.
</event>
<event>
 7    1  0.2641580E-009  0.1236094E+03  0.7561462E-02  0.1237259E+00
         -2   -1    0    0    0  501 -0.00000000000E+00  0.00000000000E+00  0.24708594391E+02  0.24708594391E+02  0.00000000000E+00 0.  1.
          2   -1    0    0  501    0  0.00000000000E+00 -0.00000000000E+00 -0.80487042539E+03  0.80487042539E+03  0.00000000000E+00 0. -1.
         25    2    1    2    0    0  0.34835687789E+02 -0.79827445419E+02 -0.48949592901E+03  0.51267994635E+03  0.12509403136E+03 0.  0.
          5    1    3    3  502    0  0.50869174447E+02 -0.91425361000E+02 -0.47816887653E+03  0.48949894425E+03  0.41800000000E+01 0. -1.
         -5    1    3    3    0  502 -0.16033486658E+02  0.11597915580E+02 -0.11327052482E+02  0.23181002096E+02  0.41800000000E+01 0. -1.
        -11    1    1    2    0    0  0.22284507838E+02  0.56227008045E+02 -0.18323831348E+03  0.19296205650E+03  0.00000000000E+00 0.  1.
         11    1    1    2    0    0 -0.57120195627E+02  0.23600437374E+02 -0.10742758851E+03  0.12393701693E+03  0.00000000000E+00 0. -1.
</event>
<event>
 7    1  0.2641580E-009  0.9154742E+02  0.7561462E-02  0.1299147E+00
          1   -1    0    0  501    0  0.00000000000E+00  0.00000000000E+00  0.95276382727E+02  0.95276382727E+02  0.00000000000E+00 0. -1.
         -1   -1    0    0    0  501 -0.00000000000E+00 -0.00000000000E+00 -0.14642117048E+03  0.14642117048E+03  0.00000000000E+00 0.  1.
         25    2    1    2    0    0  0.75116985859E+01 -0.33010928977E+02  0.38230027217E+01  0.12964366686E+03  0.12508684167E+03 0.  0.
          5    1    3    3  502    0  0.14860446190E+02  0.36877652734E+02 -0.31484617074E+02  0.50887598140E+02  0.41800000000E+01 0. -1.
         -5    1    3    3    0  502 -0.73487476041E+01 -0.69888581711E+02  0.35307619796E+02  0.78756068722E+02  0.41800000000E+01 0. -1.
        -11    1    1    2    0    0 -0.11897748347E+02 -0.17968597825E+02 -0.56905338068E+02  0.60849358453E+02  0.00000000000E+00 0.  1.
         11    1    1    2    0    0  0.43860497606E+01  0.50979526802E+02  0.19375475975E+01  0.51204527887E+02  0.00000000000E+00 0. -1.
</event>
<event>
 7    1  0.2641580E-009  0.9864772E+02  0.7561462E-02  0.1283166E+00
         -1   -1    0    0    0  501 -0.00000000000E+00  0.00000000000E+00  0.22900074400E+03  0.22900074400E+03  0.00000000000E+00 0.  1.
          1   -1    0    0  501    0  0.00000000000E+00 -0.00000000000E+00 -0.98908164212E+02  0.98908164212E+02  0.00000000000E+00 0. -1.
         25    2    1    2    0    0 -0.81106737569E+02  0.31932293899E+02  0.78383219524E+01  0.15266603666E+03  0.12508998835E+03 0.  0.
          5    1    3    3  502    0 -0.36299959273E+02 -0.83778177223E+01  0.61391335710E+02  0.71932213739E+02  0.41800000000E+01 0. -1.
         -5    1    3    3    0  502 -0.44806778296E+02  0.40310111621E+02 -0.53553013758E+02  0.80733822917E+02  0.41800000000E+01 0. -1.
        -11    1    1    2    0    0 -0.15516072328E+01 -0.14920898651E+02 -0.10234425924E+02  0.18159960781E+02  0.00000000000E+00 0. -1.
         11    1    1    2    0    0  0.82658344802E+02 -0.17011395247E+02  0.13248868376E+03  0.15708291078E+03  0.00000000000E+00 0.  1.
</event>
<event>
 7    1  0.2641580E-009  0.9553848E+02  0.7561462E-02  0.1289968E+00
         -1   -1    0    0    0  501 -0.00000000000E+00  0.00000000000E+00  0.90057933818E+02  0.90057933818E+02  0.00000000000E+00 0.  1.
          1   -1    0    0  501    0  0.00000000000E+00 -0.00000000000E+00 -0.17626257503E+03  0.17626257503E+03  0.00000000000E+00 0. -1.
         25    2    1    2    0    0  0.42597894264E+02 -0.79925864289E+00 -0.10017635199E+03  0.16581746878E+03  0.12507962282E+03 0.  0.
          5    1    3    3  502    0  0.14471667203E+02 -0.62414688633E+02 -0.51398321158E+02  0.82245257168E+02  0.41800000000E+01 0.  1.
         -5    1    3    3    0  502  0.28126227061E+02  0.61615429990E+02 -0.48778030833E+02  0.83572211611E+02  0.41800000000E+01 0.  1.
        -11    1    1    2    0    0 -0.21745902741E+02  0.20817759809E+02  0.47499002216E+02  0.56235385844E+02  0.00000000000E+00 0.  1.
         11    1    1    2    0    0 -0.20851991523E+02 -0.20018501166E+02 -0.33527291436E+02  0.44267654224E+02  0.00000000000E+00 0. -1.
</event>
<event>
 7    1  0.2641580E-009  0.2245516E+03  0.7561462E-02  0.1130534E+00
         -1   -1    0    0    0  501 -0.00000000000E+00  0.00000000000E+00  0.21962038485E+02  0.21962038485E+02  0.00000000000E+00 0.  1.
          1   -1    0    0  501    0  0.00000000000E+00 -0.00000000000E+00 -0.27527111208E+04  0.27527111208E+04  0.00000000000E+00 0. -1.
         25    2    1    2    0    0 -0.94228001192E+02  0.18886363281E+03 -0.17661225421E+04  0.17830829861E+04  0.12509082208E+03 0.  0.
          5    1    3    3  502    0  0.23066353972E+02  0.55560766143E+02 -0.66496832253E+03  0.66769708535E+03  0.41800000000E+01 0.  1.
         -5    1    3    3    0  502 -0.11729435516E+03  0.13330286667E+03 -0.11011542196E+04  0.11153859008E+04  0.41800000000E+01 0.  1.
        -11    1    1    2    0    0  0.62865093402E+02 -0.13347646308E+03 -0.82568333156E+03  0.83876155741E+03  0.00000000000E+00 0. -1.
         11    1    1    2    0    0  0.31362907789E+02 -0.55387169728E+02 -0.13894320867E+03  0.15282861574E+03  0.00000000000E+00 0.  1.
</event>
<event>
 7    1  0.2641580E-009  0.1277346E+03  0.7561462E-02  0.1230856E+00
         -2   -1    0    0    0  501 -0.00000000000E+00  0.00000000000E+00  0.57928629134E+02  0.57928629134E+02  0.00000000000E+00 0.  1.
          2   -1    0    0  501    0  0.00000000000E+00 -0.00000000000E+00 -0.51332159938E+03  0.51332159938E+03  0.00000000000E+00 0. -1.
         25    2    1    2    0    0  0.10411223950E+03  0.18721421142E+02 -0.10656711556E+03  0.19543272309E+03  0.12509016393E+03 0.  0.
          5    1    3    3  502    0  0.73509711772E+01  0.18876033413E+02 -0.95773480067E+02  0.97981494676E+02  0.41800000000E+01 0.  1.
         -5    1    3    3    0  502  0.96761268325E+02 -0.15461227158E+00 -0.10793635496E+02  0.97451228418E+02  0.41800000000E+01 0.  1.
        -11    1    1    2    0    0 -0.53492719734E+02 -0.54174440118E+02 -0.16116983984E+03  0.17824718315E+03  0.00000000000E+00 0.  1.
         11    1    1    2    0    0 -0.50619519768E+02  0.35453018976E+02 -0.18765601484E+03  0.19757032227E+03  0.00000000000E+00 0. -1.
</event>
<event>
 7    1  0.2641580E-009  0.1323583E+03  0.7561462E-02  0.1223998E+00
         -3   -1    0    0    0  501 -0.00000000000E+00  0.00000000000E+00  0.27468821066E+03  0.27468821066E+03  0.00000000000E+00 0.  1.
          3   -1    0    0  501    0  0.00000000000E+00 -0.00000000000E+00 -0.76529423829E+02  0.76529423829E+02  0.00000000000E+00 0. -1.
         25    2    1    2    0    0  0.30842221868E+02  0.90787270527E+02  0.13392960254E+03  0.20682852795E+03  0.12508928969E+03 0.  0.
          5    1    3    3  502    0  0.35983705579E+01 -0.25462143373E+02 -0.16689970559E+01  0.26106071459E+02  0.41800000000E+01 0.  1.
         -5    1    3    3    0  502  0.27243851310E+02  0.11624941390E+03  0.13559859960E+03  0.18072245649E+03  0.41800000000E+01 0.  1.
        -11    1    1    2    0    0 -0.53966123482E+02 -0.60212798948E+02  0.68294662933E+02  0.10583990092E+03  0.00000000000E+00 0.  1.
         11    1    1    2    0    0  0.23123901614E+02 -0.30574471579E+02 -0.40654786398E+01  0.38549205630E+02  0.00000000000E+00 0. -1.
</event>
<event>
 7    1  0.2641580E-009  0.9944864E+02  0.7561462E-02  0.1281460E+00
          1   -1    0    0  501    0  0.00000000000E+00  0.00000000000E+00  0.68912415290E+03  0.68912415290E+03  0.00000000000E+00 0. -1.
         -1   -1    0    0    0  501 -0.00000000000E+00 -0.00000000000E+00 -0.24691215772E+02  0.24691215772E+02  0.00000000000E+00 0.  1.
         25    2    1    2    0    0  0.34283190270E+02 -0.34832273311E+01  0.54336024624E+03  0.55863667525E+03  0.12508839967E+03 0.  0.
          5    1    3    3  502    0  0.73892113215E+02  0.93892574433E+01  0.45237072249E+03  0.45848112886E+03  0.41800000000E+01 0. -1.
         -5    1    3    3    0  502 -0.39608922944E+02 -0.12872484774E+02  0.90989523746E+02  0.10015554639E+03  0.41800000000E+01 0. -1.
        -11    1    1    2    0    0  0.51628225923E+01  0.32853813280E+02  0.92510460780E+02  0.98306729871E+02  0.00000000000E+00 0. -1.
         11    1    1    2    0    0 -0.39446012863E+02 -0.29370585949E+02  0.28562230113E+02  0.56871963557E+02  0.00000000000E+00 0.  1.
</event>
<event>
 7    1  0.2641580E-009  0.8427727E+02  0.7561462E-02  0.1317333E+00
         -2   -1    0    0    0  501 -0.00000000000E+00  0.00000000000E+00  0.16220472054E+02  0.16220472054E+02  0.00000000000E+00 0. -1.
          2   -1    0    0  501    0  0.00000000000E+00 -0.00000000000E+00 -0.79071674864E+03  0.79071674864E+03  0.00000000000E+00 0.  1.
         25    2    1    2    0    0  0.24261515977E+02 -0.22018743293E+02 -0.42631321690E+03  0.44549294561E+03  0.12509020533E+03 0.  0.
          5    1    3    3  502    0  0.45577251165E+02 -0.38573428508E+00 -0.40632742412E+03  0.40889715407E+03  0.41800000000E+01 0.  1.
         -5    1    3    3    0  502 -0.21315735187E+02 -0.21633009008E+02 -0.19985792780E+02  0.36595791539E+02  0.41800000000E+01 0.  1.
        -11    1    1    2    0    0 -0.53217220686E+02 -0.37733012945E+01 -0.14297480370E+03  0.15260440646E+03  0.00000000000E+00 0. -1.
         11    1    1    2    0    0  0.28955704709E+02  0.25792044587E+02 -0.20520825599E+03  0.20883986862E+03  0.00000000000E+00 0.  1.
</event>
<event>
 7    1  0.2641580E-009  0.2267226E+03  0.7561462E-02  0.1128968E+00
          2   -1    0    0  501    0  0.00000000000E+00  0.00000000000E+00  0.69210150584E+03  0.69210150584E+03  0.00000000000E+00 0. -1.
         -2   -1    0    0    0  501 -0.00000000000E+00 -0.00000000000E+00 -0.83758490513E+02  0.83758490513E+02  0.00000000000E+00 0.  1.
         25    2    1    2    0    0  0.17191307287E+03  0.12159515314E+03  0.37698606319E+03  0.44956031401E+03  0.12508596327E+03 0.  0.
          5    1    3    3  502    0  0.18927590355E+03  0.10422575738E+03  0.35825048107E+03  0.41838888101E+03  0.41800000000E+01 0.  1.
         -5    1    3    3    0  502 -0.17362830678E+02  0.17369395758E+02  0.18735582114E+02  0.31171433001E+02  0.41800000000E+01 0.  1.
        -11    1    1    2    0    0 -0.16768681098E+03 -0.11123040136E+03  0.16850710248E+03  0.26246087775E+03  0.00000000000E+00 0.  1.
         11    1    1    2    0    0 -0.42262618833E+01 -0.10364751775E+02  0.62849849664E+02  0.63838804592E+02  0.00000000000E+00 0. -1.
</event>
<event>
 7    1  0.2641580E-009  0.1410537E+03  0.7561462E-02  0.1211918E+00
          1   -1    0    0  501    0  0.00000000000E+00  0.00000000000E+00  0.29271315132E+02  0.29271315132E+02  0.00000000000E+00 0. -1.
         -1   -1    0    0    0  501 -0.00000000000E+00 -0.00000000000E+00 -0.72859427792E+03  0.72859427792E+03  0.00000000000E+00 0.  1.
         25    2    1    2    0    0 -0.78492697884E+02  0.57423511821E+02 -0.39717537090E+03  0.42761650199E+03  0.12509609983E+03 0.  0.
          5    1    3    3  502    0 -0.77672703962E+02 -0.14155561723E+02 -0.14165217998E+03  0.16222281394E+03  0.41800000000E+01 0.  1.
         -5    1    3    3    0  502 -0.81999392167E+00  0.71579073544E+02 -0.25552319092E+03  0.26539368805E+03  0.41800000000E+01 0.  1.
        -11    1    1    2    0    0  0.29217364270E+02  0.22888714362E+02 -0.11286719470E+03  0.11881309381E+03  0.00000000000E+00 0. -1.
         11    1    1    2    0    0  0.49275333614E+02 -0.80312226183E+02 -0.18928039718E+03  0.21143599725E+03  0.00000000000E+00 0.  1.
</event>
<event>
 7    1  0.2641580E-009  0.9593358E+02  0.7561462E-02  0.1289087E+00
          3   -1    0    0  501    0  0.00000000000E+00  0.00000000000E+00  0.51042453916E+02  0.51042453916E+02  0.00000000000E+00 0. -1.
         -3   -1    0    0    0  501 -0.00000000000E+00 -0.00000000000E+00 -0.23994009518E+03  0.23994009518E+03  0.00000000000E+00 0.  1.
         25    2    1    2    0    0 -0.14453770075E+02  0.68717341146E+01 -0.10058789851E+03  0.16131459727E+03  0.12509333222E+03 0.  0.
          5    1    3    3  502    0  0.43220141629E+02  0.54380490001E+01 -0.93250447022E+02  0.10300811273E+03  0.41800000000E+01 0. -1.
         -5    1    3    3    0  502 -0.57673911704E+02  0.14336851145E+01 -0.73374514887E+01  0.58306484533E+02  0.41800000000E+01 0. -1.
        -11    1    1    2    0    0  0.33776907839E+02 -0.39728088505E+02 -0.30463288770E+02  0.60392155799E+02  0.00000000000E+00 0. -1.
         11    1    1    2    0    0 -0.19323137763E+02  0.32856354391E+02 -0.57846453984E+02  0.69275796029E+02  0.00000000000E+00 0.  1.
</event>
<event>
 7    1  0.4207694E-009  0.9886144E+02  0.7561462E-02  0.1282709E+00
         -2   -1    0    0    0  501 -0.00000000000E+00  0.00000000000E+00  0.14051042901E+03  0.14051042901E+03  0.00000000000E+00 0.  1.
          2   -1    0    0  501    0  0.00000000000E+00 -0.00000000000E+00 -0.12701948943E+03  0.12701948943E+03  0.00000000000E+00 0. -1.
         25    2    1    2    0    0  0.45759655952E+02  0.30362882731E+02  0.62304788336E+02  0.15015384685E+03  0.12509372612E+03 0.  0.
          5    1    3    3  502    0  0.72843295053E+02  0.55889996440E+02  0.20768991878E+02  0.94226645700E+02  0.41800000000E+01 0. -1.
         -5    1    3    3    0  502 -0.27083639101E+02 -0.25527113709E+02  0.41535796459E+02  0.55927201152E+02  0.41800000000E+01 0. -1.
        -11    1    1    2    0    0 -0.68563721603E+01 -0.28609018764E+02  0.21881429822E+02  0.36664461880E+02  0.00000000000E+00 0.  1.
         11    1    1    2    0    0 -0.38903283792E+02 -0.17538639661E+01 -0.70695278576E+02  0.80711609707E+02  0.00000000000E+00 0. -1.
</event>
<event>
 7    1  0.2641580E-009  0.1276496E+03  0.7561462E-02  0.1230986E+00
          3   -1    0    0  501    0  0.00000000000E+00  0.00000000000E+00  0.12668566075E+03  0.12668566075E+03  0.00000000000E+00 0. -1.
         -3   -1    0    0    0  501 -0.00000000000E+00 -0.00000000000E+00 -0.23264926104E+03  0.23264926104E+03  0.00000000000E+00 0.  1.
         25    2    1    2    0    0  0.46111103931E+02 -0.50626251448E+02  0.61881246844E+02  0.15545299257E+03  0.12508834058E+03 0.  0.
          5    1    3    3  502    0 -0.39812378525E+02 -0.36661355954E+02  0.33545265702E+02  0.63810953254E+02  0.41800000000E+01 0.  1.
         -5    1    3    3    0  502  0.85923482456E+02 -0.13964895494E+02  0.28335981143E+02  0.91642039320E+02  0.41800000000E+01 0.  1.
        -11    1    1    2    0    0 -0.13489880613E+02 -0.26714279470E+02 -0.61557176918E+02  0.68446443565E+02  0.00000000000E+00 0.  1.
         11    1    1    2    0    0 -0.32621223318E+02  0.77340530918E+02 -0.10628767021E+03  0.13543548565E+03  0.00000000000E+00 0. -1.
</event>
<event>
 7    1  0.2641580E-009  0.1009144E+03  0.7561462E-02  0.1278385E+00
          2   -1    0    0  501    0  0.00000000000E+00  0.00000000000E+00  0.18068286337E+03  0.18068286337E+03  0.00000000000E+00 0.  1.
         -2   -1    0    0    0  501 -0.00000000000E+00 -0.00000000000E+00 -0.87607069952E+02  0.87607069952E+02  0.00000000000E+00 0. -1.
         25    2    1    2    0    0  0.34777668203E+02  0.40539300182E+02  0.14933259955E+02  0.13683106309E+03  0.12508723559E+03 0.  0.
          5    1    3    3  502    0 -0.25692331599E+02 -0.16134811784E+02 -0.29653517113E+02  0.42628998715E+02  0.41800000000E+01 0.  1.
         -5    1    3    3    0  502  0.60469999802E+02  0.56674111966E+02  0.44586777068E+02  0.94202064375E+02  0.41800000000E+01 0.  1.
        -11    1    1    2    0    0  0.14609470609E+02 -0.35729029027E+02 -0.34415391046E+00  0.38602054202E+02  0.00000000000E+00 0. -1.
         11    1    1    2    0    0 -0.49387138812E+02 -0.48102711557E+01  0.78486687370E+02  0.92856816028E+02  0.00000000000E+00 0.  1.
</event>
<event>
 7    1  0.2641580E-009  0.1019303E+03  0.7561462E-02  0.1276288E+00
         -1   -1    0    0    0  501 -0.00000000000E+00  0.00000000000E+00  0.76742298022E+03  0.76742298022E+03  0.00000000000E+00 0.  1.
          1   -1    0    0  501    0  0.00000000000E+00 -0.00000000000E+00 -0.24107162014E+02  0.24107162014E+02  0.00000000000E+00 0. -1.
         25    2    1    2    0    0  0.19702296957E+02 -0.78669042210E+02  0.48881490556E+03  0.51104281855E+03  0.12509097401E+03 0.  0.
          5    1    3    3  502    0  0.23560371974E+02 -0.36434252456E+02  0.45379508314E+03  0.45588375247E+03  0.41800000000E+01 0.  1.
         -5    1    3    3    0  502 -0.38580750168E+01 -0.42234789754E+02  0.35019822422E+02  0.55159066080E+02  0.41800000000E+01 0.  1.
        -11    1    1    2    0    0 -0.28080749258E+02 -0.90761069853E+01  0.72077329793E+02  0.77884823085E+02  0.00000000000E+00 0.  1.
         11    1    1    2    0    0  0.83784523007E+01  0.87745149195E+02  0.18242358285E+03  0.20260250060E+03  0.00000000000E+00 0. -1.
</event>
<event>
 7    1  0.2641580E-009  0.7909322E+02  0.7561462E-02  0.1331645E+00
         -3   -1    0    0    0  501 -0.00000000000E+00  0.00000000000E+00  0.68925440126E+02  0.68925440126E+02  0.00000000000E+00 0.  1.
          3   -1    0    0  501    0  0.00000000000E+00 -0.00000000000E+00 -0.18916675493E+03  0.18916675493E+03  0.00000000000E+00 0. -1.
         25    2    1    2    0    0  0.32033837962E+02 -0.13673029113E+02 -0.77233082740E+02  0.15107925997E+03  0.12508747029E+03 0.  0.
          5    1    3    3  502    0  0.21459338978E+01 -0.58173155506E+02 -0.77862253414E+02  0.97307368480E+02  0.41800000000E+01 0. -1.
         -5    1    3    3    0  502  0.29887904064E+02  0.44500126393E+02  0.62917067452E+00  0.53771891487E+02  0.41800000000E+01 0. -1.
        -11    1    1    2    0    0 -0.27610745182E+02 -0.39447305629E+01 -0.69502390866E+02  0.74889895746E+02  0.00000000000E+00 0. -1.
         11    1    1    2    0    0 -0.44230927794E+01  0.17617759676E+02  0.26494158804E+02  0.32123039340E+02  0.00000000000E+00 0.  1.
</event>
<event>
 7    1  0.2641580E-009  0.2572962E+03  0.7561462E-02  0.1108779E+00
         -1   -1    0    0    0  501 -0.00000000000E+00  0.00000000000E+00  0.22929690726E+03  0.22929690726E+03  0.00000000000E+00 0.  1.
          1   -1    0    0  501    0  0.00000000000E+00 -0.00000000000E+00 -0.31684838371E+03  0.31684838371E+03  0.00000000000E+00 0. -1.
         25    2    1    2    0    0 -0.12838320658E+03  0.20710858633E+03 -0.22399764888E+02  0.27481979462E+03  0.12509178943E+03 0.  0.
          5    1    3    3  502    0 -0.14013704663E+03  0.13426814420E+03  0.94379327239E+01  0.19435244624E+03  0.41800000000E+01 0.  1.
         -5    1    3    3    0  502  0.11753840051E+02  0.72840442136E+02 -0.31837697612E+02  0.80467348382E+02  0.41800000000E+01 0.  1.
        -11    1    1    2    0    0  0.76179777158E+02 -0.87203923037E+02 -0.78465098153E+02  0.13987370828E+03  0.00000000000E+00 0. -1.
         11    1    1    2    0    0  0.52203429425E+02 -0.11990466330E+03  0.13313386591E+02  0.13145178807E+03  0.00000000000E+00 0.  1.
</event>
<event>
 7    1  0.2641580E-009  0.1108737E+03  0.7561462E-02  0.1258960E+00
          2   -1    0    0  501    0  0.00000000000E+00  0.00000000000E+00  0.53783095279E+03  0.53783095279E+03  0.00000000000E+00 0. -1.
         -2   -1    0    0    0  501 -0.00000000000E+00 -0.00000000000E+00 -0.27869017001E+02  0.27869017001E+02  0.00000000000E+00 0.  1.
         25    2    1    2    0    0 -0.21366234673E+02 -0.52243901102E+02  0.26596606904E+03  0.29928438539E+03  0.12508897744E+03 0.  0.
          5    1    3    3  502    0  0.46004460942E+02 -0.29083606798E+02  0.17704068368E+03  0.18526506063E+03  0.41800000000E+01 0.  1.
         -5    1    3    3    0  502 -0.67370695615E+02 -0.23160294304E+02  0.88925385357E+02  0.11401932477E+03  0.41800000000E+01 0.  1.
        -11    1    1    2    0    0  0.50387073916E+02  0.39850257485E+02  0.98935027725E+02  0.11796202758E+03  0.00000000000E+00 0.  1.
         11    1    1    2    0    0 -0.29020839242E+02  0.12393643617E+02  0.14506083903E+03  0.14845355682E+03  0.00000000000E+00 0. -1.
</event>
<event>
 7    1  0.2641580E-009  0.1264866E+03  0.7561462E-02  0.1232764E+00
         -1   -1    0    0    0  501 -0.00000000000E+00  0.00000000000E+00  0.67937487038E+02  0.67937487038E+02  0.00000000000E+00 0.  1.
          1   -1    0    0  501    0  0.00000000000E+00 -0.00000000000E+00 -0.34495372613E+03  0.34495372613E+03  0.00000000000E+00 0. -1.
         25    2    1    2    0    0 -0.94827823063E+02  0.12326965224E+02 -0.21354076497E+03  0.26531658388E+03  0.12509580841E+03 0.  0.
          5    1    3    3  502    0 -0.18976162200E+02  0.59165306950E+02 -0.53615619618E+02  0.82175028721E+02  0.41800000000E+01 0.  1.
         -5    1    3    3    0  502 -0.75851660863E+02 -0.46838341726E+02 -0.15992514535E+03  0.18314155516E+03  0.41800000000E+01 0.  1.
        -11    1    1    2    0    0  0.75407204451E+02  0.47994339578E+01  0.36298253651E+01  0.75646921165E+02  0.00000000000E+00 0.  1.
         11    1    1    2    0    0  0.19420618612E+02 -0.17126399182E+02 -0.67105299490E+02  0.71927708123E+02  0.00000000000E+00 0. -1.
</event>
<event>
 7    1  0.2641580E-009  0.9079485E+02  0.7561462E-02  0.1300938E+00
         -2   -1    0    0    0  501 -0.00000000000E+00  0.00000000000E+00  0.35001796671E+02  0.35001796671E+02  0.00000000000E+00 0. -1.
          2   -1    0    0  501    0  0.00000000000E+00 -0.00000000000E+00 -0.39484399541E+03  0.39484399541E+03  0.00000000000E+00 0.  1.
         25    2    1    2    0    0 -0.31856672488E+02 -0.23980701207E+02 -0.21490640042E+03  0.25183747042E+03  0.12508968364E+03 0.  0.
          5    1    3    3  502    0  0.80330089164E+01 -0.53334760920E+02 -0.33238564949E+02  0.63493311100E+02  0.41800000000E+01 0. -1.
         -5    1    3    3    0  502 -0.39889681405E+02  0.29354059713E+02 -0.18166783547E+03  0.18834415932E+03  0.41800000000E+01 0. -1.
        -11    1    1    2    0    0  0.45507219592E+02  0.37207492795E+02 -0.39377411012E+02  0.70752279490E+02  0.00000000000E+00 0. -1.
         11    1    1    2    0    0 -0.13650547103E+02 -0.13226791588E+02 -0.10555838731E+03  0.10725604217E+03  0.00000000000E+00 0.  1.
</event>
<event>
 7    1  0.2641580E-009  0.2331431E+03  0.7561462E-02  0.1124447E+00
          2   -1    0    0  501    0  0.00000000000E+00  0.00000000000E+00  0.51970359543E+03  0.51970359543E+03  0.00000000000E+00 0. -1.
         -2   -1    0    0    0  501 -0.00000000000E+00 -0.00000000000E+00 -0.11993756416E+03  0.11993756416E+03  0.00000000000E+00 0.  1.
         25    2    1    2    0    0  0.14112796626E+03  0.15514559790E+03  0.10408851747E+03  0.26544920095E+03  0.12506638000E+03 0.  0.
          5    1    3    3  502    0  0.80047773945E+02  0.41211689758E+01  0.45581929040E+02  0.92302842873E+02  0.41800000000E+01 0.  1.
         -5    1    3    3    0  502  0.61080192317E+02  0.15102442892E+03  0.58506588430E+02  0.17314635808E+03  0.41800000000E+01 0.  1.
        -11    1    1    2    0    0 -0.22029280436E+02 -0.78259992647E+02  0.68006680517E+02  0.10599445382E+03  0.00000000000E+00 0.  1.
         11    1    1    2    0    0 -0.11909868583E+03 -0.76885605254E+02  0.22767083328E+03  0.26819750481E+03  0.00000000000E+00 0. -1.
</event>
<event>
 7    1  0.2641580E-009  0.8651124E+02  0.7561462E-02  0.1311527E+00
          2   -1    0    0  501    0  0.00000000000E+00  0.00000000000E+00  0.56119783802E+03  0.56119783802E+03  0.00000000000E+00 0. -1.
         -2   -1    0    0    0  501 -0.00000000000E+00 -0.00000000000E+00 -0.24468473544E+02  0.24468473544E+02  0.00000000000E+00 0.  1.
         25    2    1    2    0    0  0.33548204070E+02 -0.22073211596E+02  0.23881322487E+03  0.27256708184E+03  0.12509336138E+03 0.  0.
          5    1    3    3  502    0 -0.19292961193E+02  0.72849473115E+00  0.20446114461E+03  0.20541319605E+03  0.41800000000E+01 0.  1.
         -5    1    3    3    0  502  0.52841165263E+02 -0.22801706327E+02  0.34352080255E+02  0.67153885782E+02  0.41800000000E+01 0.  1.
        -11    1    1    2    0    0 -0.12933822700E+02  0.55119775607E+02  0.15687870205E+03  0.16678249485E+03  0.00000000000E+00 0.  1.
         11    1    1    2    0    0 -0.20614381370E+02 -0.33046564011E+02  0.14103743756E+03  0.14631673488E+03  0.00000000000E+00 0. -1.
</event>
<event>
 7    1  0.2641580E-009  0.1087370E+03  0.7561462E-02  0.1262927E+00
          2   -1    0    0  501    0  0.00000000000E+00  0.00000000000E+00  0.42289904066E+03  0.42289904066E+03  0.00000000000E+00 0. -1.
         -2   -1    0    0    0  501 -0.00000000000E+00 -0.00000000000E+00 -0.40093231873E+02  0.40093231873E+02  0.00000000000E+00 0.  1.
         25    2    1    2    0    0 -0.47000532651E+02  0.37711498949E+02  0.14082796690E+03  0.19776565295E+03  0.12509008754E+03 0.  0.
          5    1    3    3  502    0 -0.70239208459E+02  0.69646491291E+02  0.96603530642E+02  0.13832532193E+03  0.41800000000E+01 0.  1.
         -5    1    3    3    0  502  0.23238675807E+02 -0.31934992342E+02  0.44224436257E+02  0.59440331017E+02  0.41800000000E+01 0.  1.
        -11    1    1    2    0    0 -0.63390706551E+01 -0.22372724640E+02  0.77469153396E+01  0.24509943326E+02  0.00000000000E+00 0.  1.
         11    1    1    2    0    0  0.53339603307E+02 -0.15338774309E+02  0.23423092655E+03  0.24071667626E+03  0.00000000000E+00 0. -1.
</event>
<event>
 7    1  0.2641580E-009  0.1274110E+03  0.7561462E-02  0.1231349E+00
         -1   -1    0    0    0  501 -0.00000000000E+00  0.00000000000E+00  0.69030160400E+02  0.69030160400E+02  0.00000000000E+00 0.  1.
          1   -1    0    0  501    0  0.00000000000E+00 -0.00000000000E+00 -0.26556884079E+03  0.26556884079E+03  0.00000000000E+00 0. -1.
         25    2    1    2    0    0 -0.38720185843E+02 -0.60779376405E+02 -0.80982827747E+02  0.16552691662E+03  0.12509019285E+03 0.  0.
          5    1    3    3  502    0 -0.40831299925E+02 -0.97630799125E+02 -0.49826814355E+02  0.11704337581E+03  0.41800000000E+01 0.  1.
         -5    1    3    3    0  502  0.21111140825E+01  0.36851422721E+02 -0.31156013392E+02  0.48483540813E+02  0.41800000000E+01 0.  1.
        -11    1    1    2    0    0  0.36863852022E+02 -0.12149234485E+02 -0.88473758746E+01  0.39809842304E+02  0.00000000000E+00 0.  1.
         11    1    1    2    0    0  0.18563338210E+01  0.72928610889E+02 -0.10670847677E+03  0.12926224227E+03  0.00000000000E+00 0. -1.
</event>
<event>
 7    1  0.2641580E-009  0.1070698E+03  0.7561462E-02  0.1266094E+00
          1   -1    0    0  501    0  0.00000000000E+00  0.00000000000E+00  0.63750601101E+03  0.63750601101E+03  0.00000000000E+00 0. -1.
         -1   -1    0    0    0  501 -0.00000000000E+00 -0.00000000000E+00 -0.19528874087E+02  0.19528874087E+02  0.00000000000E+00 0.  1.
         25    2    1    2    0    0  0.12758305319E+02 -0.19908666701E+02  0.30982951675E+03  0.33496472525E+03  0.12509159981E+03 0.  0.
          5    1    3    3  502    0 -0.18849860532E+02  0.44556901704E+02  0.18120692271E+03  0.18760078883E+03  0.41800000000E+01 0.  1.
         -5    1    3    3    0  502  0.31608165851E+02 -0.64465568405E+02  0.12862259405E+03  0.14736393642E+03  0.41800000000E+01 0.  1.
        -11    1    1    2    0    0 -0.48682379362E+02 -0.64435512413E+01  0.15911927059E+03  0.16652457982E+03  0.00000000000E+00 0. -1.
         11    1    1    2    0    0  0.35924074043E+02  0.26352217943E+02  0.14902834959E+03  0.15554558003E+03  0.00000000000E+00 0.  1.
</event>
<event>
 7    1  0.2641580E-009  0.1180234E+03  0.7561462E-02  0.1246394E+00
         -2   -1    0    0    0  501 -0.00000000000E+00  0.00000000000E+00  0.30937412490E+02  0.30937412490E+02  0.00000000000E+00 0. -1.
          2   -1    0    0  501    0  0.00000000000E+00 -0.00000000000E+00 -0.55841134453E+03  0.55841134453E+03  0.00000000000E+00 0.  1.
         25    2    1    2    0    0 -0.14583474534E+02 -0.70170830820E+02 -0.24782101411E+03  0.28670295002E+03  0.12508678302E+03 0.  0.
          5    1    3    3  502    0 -0.31450649581E+02 -0.10011622658E+03 -0.15144916329E+03  0.18430063387E+03  0.41800000000E+01 0. -1.
         -5    1    3    3    0  502  0.16867175047E+02  0.29945395760E+02 -0.96371850825E+02  0.10240231615E+03  0.41800000000E+01 0. -1.
        -11    1    1    2    0    0  0.35282815220E+02  0.16643741288E+02 -0.38692953162E+02  0.54945753232E+02  0.00000000000E+00 0. -1.
         11    1    1    2    0    0 -0.20699340685E+02  0.53527089532E+02 -0.24095996477E+03  0.24770005377E+03  0.00000000000E+00 0.  1.
</event>
<event>
 7    1  0.2803271E-009  0.1055389E+03  0.7561462E-02  0.1269061E+00
         -2   -1    0    0    0  501 -0.00000000000E+00  0.00000000000E+00  0.17801022205E+02  0.17801022205E+02  0.00000000000E+00 0.  1.
          2   -1    0    0  501    0  0.00000000000E+00 -0.00000000000E+00 -0.11397597538E+04  0.11397597538E+04  0.00000000000E+00 0. -1.
         25    2    1    2    0    0 -0.62338871592E+02 -0.70585525709E+01 -0.88383332568E+03  0.89484377371E+03  0.12509226068E+03 0.  0.
          5    1    3    3  502    0  0.37261302760E+01  0.41078851394E+02 -0.53210353064E+03  0.53371621280E+03  0.41800000000E+01 0.  1.
         -5    1    3    3    0  502 -0.66065001868E+02 -0.48137403965E+02 -0.35172979504E+03  0.36112756091E+03  0.41800000000E+01 0.  1.
        -11    1    1    2    0    0  0.16240331675E+02 -0.26270502804E+02 -0.18849778533E+02  0.36182894318E+02  0.00000000000E+00 0.  1.
         11    1    1    2    0    0  0.46098539917E+02  0.33329055375E+02 -0.21927562736E+03  0.22653410796E+03  0.00000000000E+00 0. -1.
</event>
<event>
 7    1  0.2641580E-009  0.6007089E+02  0.7561462E-02  0.1397534E+00
         -2   -1    0    0    0  501 -0.00000000000E+00  0.00000000000E+00  0.30978972441E+02  0.30978972441E+02  0.00000000000E+00 0.  1.
          2   -1    0    0  501    0  0.00000000000E+00 -0.00000000000E+00 -0.36529497575E+03  0.36529497575E+03  0.00000000000E+00 0. -1.
         25    2    1    2    0    0  0.77563003088E+01 -0.10407988423E+02 -0.20893287706E+03  0.24386234205E+03  0.12508960123E+03 0.  0.
          5    1    3    3  502    0  0.20109282652E+02  0.10513373135E+02 -0.21676926599E+03  0.21799381033E+03  0.41800000000E+01 0.  1.
         -5    1    3    3    0  502 -0.12352982343E+02 -0.20921361558E+02  0.78363889265E+01  0.25868531725E+02  0.41800000000E+01 0.  1.
        -11    1    1    2    0    0 -0.38487054004E+02  0.15071133021E+02 -0.27333343131E+02  0.49553042522E+02  0.00000000000E+00 0.  1.
         11    1    1    2    0    0  0.30730753696E+02 -0.46631445985E+01 -0.98049783115E+02  0.10285856362E+03  0.00000000000E+00 0. -1.
</event>
<event>
 7    1  0.2641580E-009  0.9342441E+02  0.7561462E-02  0.1294765E+00
          1   -1    0    0  501    0  0.00000000000E+00  0.00000000000E+00  0.34414179687E+03  0.34414179687E+03  0.00000000000E+00 0. -1.
         -1   -1    0    0    0  501 -0.00000000000E+00 -0.00000000000E+00 -0.31546845776E+02  0.31546845776E+02  0.00000000000E+00 0.  1.
         25    2    1    2    0    0  0.23489251005E+02  0.11616093880E+02  0.19925889390E+03  0.23670428570E+03  0.12505252304E+03 0.  0.
          5    1    3    3  502    0  0.70599258163E+02 -0.78828060651E+01  0.80784011650E+02  0.10765650386E+03  0.41800000000E+01 0.  1.
         -5    1    3    3    0  502 -0.47110007158E+02  0.19498899945E+02  0.11847488225E+03  0.12904778184E+03  0.41800000000E+01 0.  1.
        -11    1    1    2    0    0 -0.22988399282E+02 -0.34600554800E+02  0.26774922485E+02  0.49422276032E+02  0.00000000000E+00 0.  1.
         11    1    1    2    0    0 -0.50085172276E+00  0.22984460920E+02  0.86561134703E+02  0.89562080912E+02  0.00000000000E+00 0. -1.
</event>
<event>
 7    1  0.2641580E-009  0.8534322E+02  0.7561462E-02  0.1314537E+00
          1   -1    0    0  501    0  0.00000000000E+00  0.00000000000E+00  0.16585358414E+03  0.16585358414E+03  0.00000000000E+00 0.  1.
         -1   -1    0    0    0  501 -0.00000000000E+00 -0.00000000000E+00 -0.76325679735E+02  0.76325679735E+02  0.00000000000E+00 0. -1.
         25    2    1    2    0    0  0.24090540248E+02  0.46683643000E+01  0.70152325135E+02  0.14550268451E+03  0.12509010642E+03 0.  0.
          5    1    3    3  502    0 -0.31315622009E+02  0.17349989738E+02  0.79926790783E+02  0.87678130743E+02  0.41800000000E+01 0. -1.
         -5    1    3    3    0  502  0.55406162256E+02 -0.12681625438E+02 -0.97744656477E+01  0.57824553767E+02  0.41800000000E+01 0. -1.
        -11    1    1    2    0    0 -0.45953156316E+01 -0.38408634175E+02  0.37342733408E+02  0.53766344894E+02  0.00000000000E+00 0.  1.
         11    1    1    2    0    0 -0.19495224616E+02  0.33740269875E+02 -0.17967154142E+02  0.42910234467E+02  0.00000000000E+00 0. -1.
</event>
<event>
 7    1  0.2641580E-009  0.1072316E+03  0.7561462E-02  0.1265784E+00
         -2   -1    0    0    0  501 -0.00000000000E+00  0.00000000000E+00  0.14549925188E+02  0.14549925188E+02  0.00000000000E+00 0.  1.
          2   -1    0    0  501    0  0.00000000000E+00 -0.00000000000E+00 -0.84742073175E+03  0.84742073175E+03  0.00000000000E+00 0. -1.
         25    2    1    2    0    0  0.18338806988E+02  0.10902837692E+02 -0.54074901880E+03  0.55543825866E+03  0.12508786567E+03 0.  0.
          5    1    3    3  502    0  0.69297089787E+02 -0.17897501814E+01 -0.37949720282E+03  0.38579902697E+03  0.41800000000E+01 0. -1.
         -5    1    3    3    0  502 -0.50958282799E+02  0.12692587874E+02 -0.16125181598E+03  0.16963923169E+03  0.41800000000E+01 0. -1.
        -11    1    1    2    0    0  0.24255675022E+02 -0.35616179827E+02 -0.15299304244E+03  0.15894565446E+03  0.00000000000E+00 0.  1.
         11    1    1    2    0    0 -0.42594482009E+02  0.24713342135E+02 -0.13912874533E+03  0.14758674383E+03  0.00000000000E+00 0. -1.
</event>
<event>
 7    1  0.2641580E-009  0.1126274E+03  0.7561462E-02  0.1255780E+00
          1   -1    0    0  501    0  0.00000000000E+00  0.00000000000E+00  0.44763838841E+03  0.44763838841E+03  0.00000000000E+00 0. -1.
         -1   -1    0    0    0  501 -0.00000000000E+00 -0.00000000000E+00 -0.39132341141E+02  0.39132341141E+02  0.00000000000E+00 0.  1.
         25    2    1    2    0    0  0.73559008019E+02  0.54258157175E+01  0.15719161398E+03  0.21400344116E+03  0.12509157519E+03 0.  0.
          5    1    3    3  502    0  0.59817308841E+02 -0.40630027033E+02  0.14816593811E+03  0.16492279148E+03  0.41800000000E+01 0. -1.
         -5    1    3    3    0  502  0.13741699179E+02  0.46055842750E+02  0.90256758696E+01  0.49080649676E+02  0.41800000000E+01 0. -1.
        -11    1    1    2    0    0 -0.79486577147E+02 -0.25635436397E+02  0.21684819875E+03  0.23237562877E+03  0.00000000000E+00 0. -1.
         11    1    1    2    0    0  0.59275691273E+01  0.20209620680E+02  0.34466234531E+02  0.40391659616E+02  0.00000000000E+00 0.  1.
</event>
<event>
 7    1  0.2641580E-009  0.1025781E+03  0.7561462E-02  0.1274966E+00
         -1   -1    0    0    0  501 -0.00000000000E+00  0.00000000000E+00  0.13964099678E+03  0.13964099678E+03  0.00000000000E+00 0.  1.
          1   -1    0    0  501    0  0.00000000000E+00 -0.00000000000E+00 -0.91394312582E+02  0.91394312582E+02  0.00000000000E+00 0. -1.
         25    2    1    2    0    0  0.66409145340E+00  0.17026511501E+02 -0.25888417728E+01  0.12627163508E+03  0.12508989013E+03 0.  0.
          5    1    3    3  502    0  0.57468198332E+02  0.10834809624E+00  0.22390037190E+02  0.61817406321E+02  0.41800000000E+01 0.  1.
         -5    1    3    3    0  502 -0.56804106879E+02  0.16918163405E+02 -0.24978878963E+02  0.64454228764E+02  0.41800000000E+01 0.  1.
        -11    1    1    2    0    0 -0.11172744947E+02  0.34120633393E+02  0.35145026708E+02  0.50241623731E+02  0.00000000000E+00 0. -1.
         11    1    1    2    0    0  0.10508653494E+02 -0.51147144894E+02  0.15690499267E+02  0.54522050551E+02  0.00000000000E+00 0.  1.
</event>
<event>
 7    1  0.2641580E-009  0.1267142E+03  0.7561462E-02  0.1232414E+00
          2   -1    0    0  501    0  0.00000000000E+00  0.00000000000E+00  0.67529572958E+03  0.67529572958E+03  0.00000000000E+00 0. -1.
         -2   -1    0    0    0  501 -0.00000000000E+00 -0.00000000000E+00 -0.38272693135E+02  0.38272693135E+02  0.00000000000E+00 0.  1.
         25    2    1    2    0    0 -0.10786324558E+03 -0.34344372791E+02  0.41344705050E+03  0.44654207163E+03  0.12508933800E+03 0.  0.
          5    1    3    3  502    0 -0.89100550374E+02  0.11901477675E+02  0.12641372533E+03  0.15517234160E+03  0.41800000000E+01 0. -1.
         -5    1    3    3    0  502 -0.18762695207E+02 -0.46245850465E+02  0.28703332517E+03  0.29136973002E+03  0.41800000000E+01 0. -1.
        -11    1    1    2    0    0  0.25126887205E+02  0.53685557209E+01 -0.12394469144E+01  0.25723881507E+02  0.00000000000E+00 0.  1.
         11    1    1    2    0    0  0.82736358376E+02  0.28975817070E+02  0.22481543287E+03  0.24130246958E+03  0.00000000000E+00 0. -1.
</event>
<event>
 7    1  0.2641580E-009  0.1337204E+03  0.7561462E-02  0.1222038E+00
          1   -1    0    0  501    0  0.00000000000E+00  0.00000000000E+00  0.90159551947E+02  0.90159551947E+02  0.00000000000E+00 0. -1.
         -1   -1    0    0    0  501 -0.00000000000E+00 -0.00000000000E+00 -0.41405584117E+03  0.41405584117E+03  0.00000000000E+00 0.  1.
         25    2    1    2    0    0 -0.63151287493E+02 -0.46739556395E+02 -0.35153779421E+03  0.38130469540E+03  0.12506709693E+03 0.  0.
          5    1    3    3  502    0 -0.89621540005E+02  0.45439784442E+01 -0.21390013184E+03  0.23199872192E+03  0.41800000000E+01 0.  1.
         -5    1    3    3    0  502  0.26470252513E+02 -0.51283534839E+02 -0.13763766237E+03  0.14930597348E+03  0.41800000000E+01 0.  1.
        -11    1    1    2    0    0  0.84246494548E+02  0.21688323027E+02  0.19112815009E+02  0.89068259762E+02  0.00000000000E+00 0.  1.
         11    1    1    2    0    0 -0.21095207056E+02  0.25051233368E+02  0.85286899765E+01  0.33842437954E+02  0.00000000000E+00 0. -1.
</event>
<event>
 7    1  0.2641580E-009  0.1344102E+03  0.7561462E-02  0.1221055E+00
         -2   -1    0    0    0  501 -0.00000000000E+00  0.00000000000E+00  0.24812650253E+03  0.24812650253E+03  0.00000000000E+00 0.  1.
          2   -1    0    0  501    0  0.00000000000E+00 -0.00000000000E+00 -0.21587925615E+03  0.21587925615E+03  0.00000000000E+00 0. -1.
         25    2    1    2    0    0 -0.56302998303E+01 -0.10854835695E+03 -0.15701183923E+03  0.22828709296E+03  0.12509129899E+03 0.  0.
          5    1    3    3  502    0  0.42188744782E+02 -0.41838169707E+01 -0.77960896629E+02  0.88841253446E+02  0.41800000000E+01 0. -1.
         -5    1    3    3    0  502 -0.47819044612E+02 -0.10436453998E+03 -0.79050942599E+02  0.13944583951E+03  0.41800000000E+01 0. -1.
        -11    1    1    2    0    0  0.15213782490E+02  0.67015558635E+02  0.17919818930E+03  0.19192325374E+03  0.00000000000E+00 0.  1.
         11    1    1    2    0    0 -0.95834826599E+01  0.41532798312E+02  0.10060896311E+02  0.43795411976E+02  0.00000000000E+00 0. -1.
</event>
<event>
 7    1  0.2641580E-009  0.1240407E+03  0.7561462E-02  0.1236576E+00
         -2   -1    0    0    0  501 -0.00000000000E+00  0.00000000000E+00  0.29949779831E+02  0.29949779831E+02  0.00000000000E+00 0.  1.
          2   -1    0    0  501    0  0.00000000000E+00 -0.00000000000E+00 -0.67936126283E+03  0.67936126283E+03  0.00000000000E+00 0. -1.
         25    2    1    2    0    0 -0.43515392423E+02  0.77013372855E+02 -0.43001893868E+03  0.45649479030E+03  0.12508619819E+03 0.  0.
          5    1    3    3  502    0  0.14573709439E+02 -0.28498862084E+02 -0.10504454107E+03  0.10989270293E+03  0.41800000000E+01 0. -1.
         -5    1    3    3    0  502 -0.58089101862E+02  0.10551223494E+03 -0.32497439760E+03  0.34660208738E+03  0.41800000000E+01 0. -1.
        -11    1    1    2    0    0  0.39220217750E+02 -0.33564645545E+02 -0.32747720866E+02  0.61132840052E+02  0.00000000000E+00 0.  1.
         11    1    1    2    0    0  0.42951746729E+01 -0.43448727310E+02 -0.18664482345E+03  0.19168341230E+03  0.00000000000E+00 0. -1.
</event>
<event>
 7    1  0.2641580E-009  0.1371710E+03  0.7561462E-02  0.1217187E+00
          1   -1    0    0  501    0  0.00000000000E+00  0.00000000000E+00  0.86417730157E+02  0.86417730157E+02  0.00000000000E+00 0. -1.
         -1   -1    0    0    0  501 -0.00000000000E+00 -0.00000000000E+00 -0.22992738430E+03  0.22992738430E+03  0.00000000000E+00 0.  1.
         25    2    1    2    0    0 -0.72381367239E+02 -0.29809956697E+02 -0.48937825763E+02  0.15546590306E+03  0.12508813046E+03 0.  0.
          5    1    3    3  502    0 -0.74672027755E+02  0.32952082587E+02 -0.42715661468E+02  0.92216330498E+02  0.41800000000E+01 0. -1.
         -5    1    3    3    0  502  0.22906605167E+01 -0.62762039284E+02 -0.62221642957E+01  0.63249572562E+02  0.41800000000E+01 0. -1.
        -11    1    1    2    0    0  0.73707811405E+02  0.62692341402E+02 -0.64420948925E+02  0.11624641841E+03  0.00000000000E+00 0.  1.
         11    1    1    2    0    0 -0.13264441659E+01 -0.32882384705E+02 -0.30150879453E+02  0.44632792987E+02  0.00000000000E+00 0. -1.
</event>
<event>
 7    1  0.2641580E-009  0.1260765E+03  0.7561462E-02  0.1233396E+00
         -1   -1    0    0    0  501 -0.00000000000E+00  0.00000000000E+00  0.17342538565E+03  0.17342538565E+03  0.00000000000E+00 0.  1.
          1   -1    0    0  501    0  0.00000000000E+00 -0.00000000000E+00 -0.11636198073E+03  0.11636198073E+03  0.00000000000E+00 0. -1.
         25    2    1    2    0    0 -0.14560136931E+02  0.86900679024E+02  0.62033556858E+02  0.16513974172E+03  0.12513691109E+03 0.  0.
          5    1    3    3  502    0  0.54276837843E+02  0.53843814855E+02  0.30761646461E+02  0.82515954926E+02  0.41800000000E+01 0. -1.
         -5    1    3    3    0  502 -0.68836974774E+02  0.33056864169E+02  0.31271910396E+02  0.82623786796E+02  0.41800000000E+01 0. -1.
        -11    1    1    2    0    0 -0.10137257892E+02 -0.15487526021E+01 -0.30517571096E+02  0.32194483655E+02  0.00000000000E+00 0. -1.
         11    1    1    2    0    0  0.24697394823E+02 -0.85351926422E+02  0.25547419154E+02  0.92453140998E+02  0.00000000000E+00 0.  1.
</event>
<event>
 7    1  0.2641580E-009  0.1174998E+03  0.7561462E-02  0.1247279E+00
         -2   -1    0    0    0  501 -0.00000000000E+00  0.00000000000E+00  0.77912093973E+02  0.77912093973E+02  0.00000000000E+00 0.  1.
          2   -1    0    0  501    0  0.00000000000E+00 -0.00000000000E+00 -0.21891577685E+03  0.21891577685E+03  0.00000000000E+00 0. -1.
         25    2    1    2    0    0  0.65135610050E+02  0.34240093900E+02 -0.81575944423E+02  0.16648324543E+03  0.12508798733E+03 0.  0.
          5    1    3    3  502    0 -0.30680981795E+01 -0.28346547772E+02 -0.66667896565E+02  0.72629338627E+02  0.41800000000E+01 0. -1.
         -5    1    3    3    0  502  0.68203708229E+02  0.62586641672E+02 -0.14908047858E+02  0.93853906807E+02  0.41800000000E+01 0. -1.
        -11    1    1    2    0    0  0.16383042393E+02 -0.27129220784E+02 -0.29255459235E+02  0.43130970235E+02  0.00000000000E+00 0. -1.
         11    1    1    2    0    0 -0.81518652442E+02 -0.71108731167E+01 -0.30172279224E+02  0.87213655158E+02  0.00000000000E+00 0.  1.
</event>
<event>
 7    1  0.2641580E-009  0.1251453E+03  0.7561462E-02  0.1234842E+00
         -2   -1    0    0    0  501 -0.00000000000E+00  0.00000000000E+00  0.40069987498E+02  0.40069987498E+02  0.00000000000E+00 0.  1.
          2   -1    0    0  501    0  0.00000000000E+00 -0.00000000000E+00 -0.62925790132E+03  0.62925790132E+03  0.00000000000E+00 0. -1.
         25    2    1    2    0    0 -0.17730858123E+02 -0.68425327252E+02 -0.50569113599E+03  0.52570598990E+03  0.12508738569E+03 0.  0.
          5    1    3    3  502    0 -0.69694884970E+02 -0.37482854197E+02 -0.34436550125E+03  0.35336583338E+03  0.41800000000E+01 0. -1.
         -5    1    3    3    0  502  0.51964026847E+02 -0.30942473056E+02 -0.16132563473E+03  0.17234015651E+03  0.41800000000E+01 0. -1.
        -11    1    1    2    0    0 -0.32828176996E+02  0.12752856210E+02 -0.50331696425E+02  0.61429668821E+02  0.00000000000E+00 0.  1.
         11    1    1    2    0    0  0.50559035119E+02  0.55672471042E+02 -0.33165081413E+02  0.82192230102E+02  0.00000000000E+00 0. -1.
</event>
<event>
 7    1  0.2641580E-009  0.1225524E+03  0.7561462E-02  0.1238945E+00
         -3   -1    0    0    0  501 -0.00000000000E+00  0.00000000000E+00  0.10135062307E+03  0.10135062307E+03  0.00000000000E+00 0.  1.
          3   -1    0    0  501    0  0.00000000000E+00 -0.00000000000E+00 -0.20767344617E+03  0.20767344617E+03  0.00000000000E+00 0. -1.
         25    2    1    2    0    0  0.67549573870E+02  0.54914562959E+02 -0.14508047801E+02  0.15308938618E+03  0.12508925835E+03 0.  0.
          5    1    3    3  502    0 -0.21437700951E+02 -0.17058168177E+02  0.19189406705E+02  0.33708483403E+02  0.41800000000E+01 0. -1.
         -5    1    3    3    0  502  0.88987274821E+02  0.71972731136E+02 -0.33697454506E+02  0.11938090278E+03  0.41800000000E+01 0. -1.
        -11    1    1    2    0    0 -0.41315476412E+01 -0.36632215985E+02 -0.81079428794E+02  0.89066619491E+02  0.00000000000E+00 0. -1.
         11    1    1    2    0    0 -0.63418026229E+02 -0.18282346974E+02 -0.10735346501E+02  0.66868063574E+02  0.00000000000E+00 0.  1.
</event>
<event>
 7    1  0.2641580E-009  0.1015963E+03  0.7561462E-02  0.1276975E+00
          1   -1    0    0  501    0  0.00000000000E+00  0.00000000000E+00  0.36912602519E+03  0.36912602519E+03  0.00000000000E+00 0. -1.
         -1   -1    0    0    0  501 -0.00000000000E+00 -0.00000000000E+00 -0.49053439396E+02  0.49053439396E+02  0.00000000000E+00 0.  1.
         25    2    1    2    0    0 -0.59229574568E+02 -0.21953533415E+02  0.25535458195E+03  0.29127878279E+03  0.12508903487E+03 0.  0.
          5    1    3    3  502    0 -0.12173303622E+02  0.50854617540E+02  0.11242448330E+03  0.12406094588E+03  0.41800000000E+01 0. -1.
         -5    1    3    3    0  502 -0.47056270946E+02 -0.72808150955E+02  0.14293009865E+03  0.16721783691E+03  0.41800000000E+01 0. -1.
        -11    1    1    2    0    0  0.26662764746E+02  0.46523218098E+01 -0.20561025360E+02  0.33989746777E+02  0.00000000000E+00 0.  1.
         11    1    1    2    0    0  0.32566809822E+02  0.17301211605E+02  0.85279029199E+02  0.92910935019E+02  0.00000000000E+00 0. -1.
</event>
<event>
 7    1  0.3057681E-009  0.1784143E+03  0.7561462E-02  0.1169347E+00
         -2   -1    0    0    0  501 -0.00000000000E+00  0.00000000000E+00  0.24381475480E+02  0.24381475480E+02  0.00000000000E+00 0.  1.
          2   -1    0    0  501    0  0.00000000000E+00 -0.00000000000E+00 -0.14044534109E+04  0.14044534109E+04  0.00000000000E+00 0. -1.
         25    2    1    2    0    0  0.61797853139E+02 -0.13595943804E+03 -0.69924637893E+03  0.72587645362E+03  0.12508870463E+03 0.  0.
          5    1    3    3  502    0  0.70496180194E+02 -0.14942036851E+03 -0.68286971810E+03  0.70258428835E+03  0.41800000000E+01 0. -1.
         -5    1    3    3    0  502 -0.86983270551E+01  0.13460930470E+02 -0.16376660836E+02  0.23292165267E+02  0.41800000000E+01 0. -1.
        -11    1    1    2    0    0  0.15801446375E+02  0.74080038502E+02 -0.29818268956E+03  0.30765313937E+03  0.00000000000E+00 0.  1.
         11    1    1    2    0    0 -0.77599299514E+02  0.61879399535E+02 -0.38264286697E+03  0.39530529343E+03  0.00000000000E+00 0. -1.
</event>
<event>
 7    1  0.2641580E-009  0.1369357E+03  0.7561462E-02  0.1217513E+00
          2   -1    0    0  501    0  0.00000000000E+00  0.00000000000E+00  0.10478910264E+04  0.10478910264E+04  0.00000000000E+00 0. -1.
         -2   -1    0    0    0  501 -0.00000000000E+00 -0.00000000000E+00 -0.21966272105E+02  0.21966272105E+02  0.00000000000E+00 0.  1.
         25    2    1    2    0    0 -0.64112084732E+02 -0.75727617961E+02  0.42640022269E+03  0.45531202148E+03  0.12508739132E+03 0.  0.
          5    1    3    3  502    0 -0.14557529585E+02  0.23656526915E+02  0.21320648139E+02  0.35264647600E+02  0.41800000000E+01 0.  1.
         -5    1    3    3    0  502 -0.49554555147E+02 -0.99384144877E+02  0.40507957455E+03  0.42004737388E+03  0.41800000000E+01 0.  1.
        -11    1    1    2    0    0  0.60894416374E+02  0.96239654235E+02  0.52281815309E+03  0.53507851966E+03  0.00000000000E+00 0.  1.
         11    1    1    2    0    0  0.32176683583E+01 -0.20512036274E+02  0.76706378547E+02  0.79466757400E+02  0.00000000000E+00 0. -1.
</event>
<event>
 7    1  0.2641580E-009  0.9160610E+02  0.7561462E-02  0.1299008E+00
         -2   -1    0    0    0  501 -0.00000000000E+00  0.00000000000E+00  0.32140314053E+02  0.32140314053E+02  0.00000000000E+00 0.  1.
          2   -1    0    0  501    0  0.00000000000E+00 -0.00000000000E+00 -0.57459745086E+03  0.57459745086E+03  0.00000000000E+00 0. -1.
         25    2    1    2    0    0  0.41462282157E+02 -0.65259774359E+02 -0.35662868023E+03  0.38575616938E+03  0.12508336287E+03 0.  0.
          5    1    3    3  502    0  0.11424364373E+02 -0.48404550868E+02 -0.34583742754E+03  0.34942025604E+03  0.41800000000E+01 0.  1.
         -5    1    3    3    0  502  0.30037917784E+02 -0.16855223492E+02 -0.10791252689E+02  0.36335913341E+02  0.41800000000E+01 0.  1.
        -11    1    1    2    0    0 -0.94564271657E+01  0.65918425246E+02 -0.17491011111E+03  0.18715824793E+03  0.00000000000E+00 0. -1.
         11    1    1    2    0    0 -0.32005854992E+02 -0.65865088717E+00 -0.10918345472E+02  0.33823347596E+02  0.00000000000E+00 0.  1.
</event>
<event>
 7    1  0.2641580E-009  0.1060117E+03  0.7561462E-02  0.1268139E+00
          1   -1    0    0  501    0  0.00000000000E+00  0.00000000000E+00  0.93681138661E+02  0.93681138661E+02  0.00000000000E+00 0. -1.
         -1   -1    0    0    0  501 -0.00000000000E+00 -0.00000000000E+00 -0.23109485122E+03  0.23109485122E+03  0.00000000000E+00 0.  1.
         25    2    1    2    0    0  0.87161357227E+02 -0.96916086760E+01 -0.24815523042E+02  0.15477208921E+03  0.12509020722E+03 0.  0.
          5    1    3    3  502    0 -0.13098840486E+02 -0.15794258911E+02 -0.47324339291E+02  0.51750398316E+02  0.41800000000E+01 0. -1.
         -5    1    3    3    0  502  0.10026019771E+03  0.61026502346E+01  0.22508816249E+02  0.10302169089E+03  0.41800000000E+01 0. -1.
        -11    1    1    2    0    0 -0.49084296154E+02  0.16672222085E+02 -0.11988485625E+03  0.13061244151E+03  0.00000000000E+00 0.  1.
         11    1    1    2    0    0 -0.38077061072E+02 -0.69806134094E+01  0.72866667296E+01  0.39391459170E+02  0.00000000000E+00 0. -1.
</event>
<event>
 7    1  0.2641580E-009  0.1631182E+03  0.7561462E-02  0.1185221E+00
          1   -1    0    0  501    0  0.00000000000E+00  0.00000000000E+00  0.16572013090E+04  0.16572013090E+04  0.00000000000E+00 0. -1.
         -1   -1    0    0    0  501 -0.00000000000E+00 -0.00000000000E+00 -0.21111557858E+02  0.21111557858E+02  0.00000000000E+00 0.  1.
         25    2    1    2    0    0  0.96562007624E+02  0.83788134868E+02  0.12252280400E+04  0.12382151364E+04  0.12509317015E+03 0.  0.
          5    1    3    3  502    0  0.24441328309E+02 -0.30693005755E+02  0.40196160363E+03  0.40389360273E+03  0.41800000000E+01 0.  1.
         -5    1    3    3    0  502  0.72120679314E+02  0.11448114062E+03  0.82326643638E+03  0.83432153371E+03  0.41800000000E+01 0.  1.
        -11    1    1    2    0    0  0.14773571201E+02 -0.94513643485E+01  0.18344104614E+02  0.25378984774E+02  0.00000000000E+00 0.  1.
         11    1    1    2    0    0 -0.11133557882E+03 -0.74336770519E+02  0.39251760653E+03  0.41471874566E+03  0.00000000000E+00 0. -1.
</event>
<event>
 7    1  0.2731372E-009  0.1887569E+03  0.7561462E-02  0.1159587E+00
          2   -1    0    0  501    0  0.00000000000E+00  0.00000000000E+00  0.11876450890E+04  0.11876450890E+04  0.00000000000E+00 0. -1.
         -2   -1    0    0    0  501 -0.00000000000E+00 -0.00000000000E+00 -0.36970532552E+02  0.36970532552E+02  0.00000000000E+00 0.  1.
         25    2    1    2    0    0 -0.14321013060E+03 -0.58006424353E+02  0.86170583480E+03  0.88434071650E+03  0.12509064861E+03 0.  0.
          5    1    3    3  502    0 -0.67980326127E+02  0.37014282545E+02  0.34142301102E+03  0.35011216303E+03  0.41800000000E+01 0. -1.
         -5    1    3    3    0  502 -0.75229804472E+02 -0.95020706899E+02  0.52028282378E+03  0.53422855347E+03  0.41800000000E+01 0. -1.
        -11    1    1    2    0    0  0.85428796436E+02 -0.13827003394E+02  0.15741829409E+03  0.17963792639E+03  0.00000000000E+00 0.  1.
         11    1    1    2    0    0  0.57781334162E+02  0.71833427747E+02  0.13155042753E+03  0.16063697863E+03  0.00000000000E+00 0. -1.
</event>
<event>
 7    1  0.2641580E-009  0.1514153E+03  0.7561462E-02  0.1198745E+00
          4   -1    0    0  501    0  0.00000000000E+00  0.00000000000E+00  0.31030907358E+03  0.31030907358E+03  0.00000000000E+00 0.  1.
         -4   -1    0    0    0  501 -0.00000000000E+00 -0.00000000000E+00 -0.21617017962E+03  0.21617017962E+03  0.00000000000E+00 0. -1.
         25    2    1    2    0    0 -0.81179544318E+02 -0.12481223964E+03 -0.13644680898E+03  0.23756027167E+03  0.12509571302E+03 0.  0.
          5    1    3    3  502    0 -0.51327976620E+02 -0.56966911558E+02  0.58967797114E+01  0.77019702722E+02  0.41800000000E+01 0. -1.
         -5    1    3    3    0  502 -0.29851567698E+02 -0.67845328082E+02 -0.14234358870E+03  0.16054056895E+03  0.41800000000E+01 0. -1.
        -11    1    1    2    0    0  0.35105937669E+02  0.80725110103E+02  0.19932993542E+03  0.21790225657E+03  0.00000000000E+00 0.  1.
         11    1    1    2    0    0  0.46073606649E+02  0.44087129537E+02  0.31255767527E+02  0.71016724960E+02  0.00000000000E+00 0. -1.
</event>
<event>
 7    1  0.2641580E-009  0.2153029E+03  0.7561462E-02  0.1137434E+00
         -2   -1    0    0    0  501 -0.00000000000E+00  0.00000000000E+00  0.27558308274E+03  0.27558308274E+03  0.00000000000E+00 0.  1.
          2   -1    0    0  501    0  0.00000000000E+00 -0.00000000000E+00 -0.17383850808E+03  0.17383850808E+03  0.00000000000E+00 0. -1.
         25    2    1    2    0    0 -0.98082527845E+02  0.16172907772E+03  0.46865834969E+02  0.23156042002E+03  0.12508934721E+03 0.  0.
          5    1    3    3  502    0 -0.12747997635E+03  0.12001426247E+03  0.42185014281E+02  0.18014331904E+03  0.41800000000E+01 0. -1.
         -5    1    3    3    0  502  0.29397448510E+02  0.41714815251E+02  0.46808206877E+01  0.51417100974E+02  0.41800000000E+01 0. -1.
        -11    1    1    2    0    0  0.38253566392E+01 -0.78294513601E+02  0.47735548960E+02  0.91778793018E+02  0.00000000000E+00 0.  1.
         11    1    1    2    0    0  0.94257171206E+02 -0.83434564115E+02  0.71431907247E+01  0.12608237778E+03  0.00000000000E+00 0. -1.
</event>
<event>
 7    1  0.2641580E-009  0.1290425E+03  0.7561462E-02  0.1228883E+00
         -1   -1    0    0    0  501 -0.00000000000E+00  0.00000000000E+00  0.14656763857E+03  0.14656763857E+03  0.00000000000E+00 0.  1.
          1   -1    0    0  501    0  0.00000000000E+00 -0.00000000000E+00 -0.15927404577E+03  0.15927404577E+03  0.00000000000E+00 0. -1.
         25    2    1    2    0    0 -0.80908981052E+02  0.66952036419E+02  0.20899426491E+02  0.16465306415E+03  0.12508000284E+03 0.  0.
          5    1    3    3  502    0 -0.57111598975E+02  0.92699739471E+02  0.49053532875E+02  0.11949350578E+03  0.41800000000E+01 0. -1.
         -5    1    3    3    0  502 -0.23797382077E+02 -0.25747703052E+02 -0.28154106384E+02  0.45159558374E+02  0.41800000000E+01 0. -1.
        -11    1    1    2    0    0  0.66545610465E+02 -0.27813622556E+02  0.18497682614E+02  0.74458579989E+02  0.00000000000E+00 0.  1.
         11    1    1    2    0    0  0.14363370587E+02 -0.39138413862E+02 -0.52103516302E+02  0.66730040201E+02  0.00000000000E+00 0. -1.
</event>
<event>
 7    1  0.2641580E-009  0.1923317E+03  0.7561462E-02  0.1156375E+00
         -1   -1    0    0    0  501 -0.00000000000E+00  0.00000000000E+00  0.17063946530E+03  0.17063946530E+03  0.00000000000E+00 0.  1.
          1   -1    0    0  501    0  0.00000000000E+00 -0.00000000000E+00 -0.22300683758E+03  0.22300683758E+03  0.00000000000E+00 0. -1.
         25    2    1    2    0    0 -0.14472131028E+02 -0.15958631303E+03 -0.36756264578E+01  0.20331743642E+03  0.12508891173E+03 0.  0.
          5    1    3    3  502    0 -0.41075720065E+02 -0.18403598149E+01 -0.12111911335E+02  0.43067069778E+02  0.41800000000E+01 0.  1.
         -5    1    3    3    0  502  0.26603589037E+02 -0.15774595322E+03  0.84362848767E+01  0.16025036664E+03  0.41800000000E+01 0.  1.
        -11    1    1    2    0    0 -0.35898319628E+02  0.93916511992E+02 -0.18502653326E+02  0.10223183827E+03  0.00000000000E+00 0.  1.
         11    1    1    2    0    0  0.50370450656E+02  0.65669801042E+02 -0.30189092500E+02  0.88097028180E+02  0.00000000000E+00 0. -1.
</event>
<event>
 7    1  0.2641580E-009  0.3688155E+03  0.7561462E-02  0.1055147E+00
          2   -1    0    0  501    0  0.00000000000E+00  0.00000000000E+00  0.88177448865E+03  0.88177448865E+03  0.00000000000E+00 0. -1.
         -2   -1    0    0    0  501 -0.00000000000E+00 -0.00000000000E+00 -0.17395438687E+03  0.17395438687E+03  0.00000000000E+00 0.  1.
         25    2    1    2    0    0  0.10513615771E+03 -0.34494041297E+03  0.21525011491E+03  0.43818529046E+03  0.12504493854E+03 0.  0.
          5    1    3    3  502    0 -0.70989082138E+01 -0.46068639463E+02  0.77336256665E+02  0.90394043138E+02  0.41800000000E+01 0. -1.
         -5    1    3    3    0  502  0.11223506593E+03 -0.29887177350E+03  0.13791385824E+03  0.34779124733E+03  0.41800000000E+01 0. -1.
        -11    1    1    2    0    0 -0.64173130704E+02  0.75813921980E+02  0.15143028351E+03  0.18109961964E+03  0.00000000000E+00 0. -1.
         11    1    1    2    0    0 -0.40963027011E+02  0.26912649099E+03  0.34113970337E+03  0.43644396541E+03  0.00000000000E+00 0.  1.
</event>
<event>
 7    1  0.2641580E-009  0.1106419E+03  0.7561462E-02  0.1259386E+00
         -1   -1    0    0    0  501 -0.00000000000E+00  0.00000000000E+00  0.53976073177E+02  0.53976073177E+02  0.00000000000E+00 0.  1.
          1   -1    0    0  501    0  0.00000000000E+00 -0.00000000000E+00 -0.32864044006E+03  0.32864044006E+03  0.00000000000E+00 0. -1.
         25    2    1    2    0    0 -0.48343616125E+02 -0.67383610326E+01 -0.24314380454E+03  0.27775632983E+03  0.12508860198E+03 0.  0.
          5    1    3    3  502    0 -0.86892587098E+02  0.40289639131E+00 -0.20588438341E+03  0.22350914019E+03  0.41800000000E+01 0. -1.
         -5    1    3    3    0  502  0.38548970973E+02 -0.71412574239E+01 -0.37259421129E+02  0.54247189637E+02  0.41800000000E+01 0. -1.
        -11    1    1    2    0    0  0.68048703262E+02  0.20217587863E+02 -0.81563579345E+01  0.71455601945E+02  0.00000000000E+00 0.  1.
         11    1    1    2    0    0 -0.19705087137E+02 -0.13479226830E+02 -0.23364204413E+02  0.33404581465E+02  0.00000000000E+00 0. -1.
</event>
<event>
 7    1  0.2641580E-009  0.1038557E+03  0.7561462E-02  0.1272391E+00
          1   -1    0    0  501    0  0.00000000000E+00  0.00000000000E+00  0.61161602299E+03  0.61161602299E+03  0.00000000000E+00 0. -1.
         -1   -1    0    0    0  501 -0.00000000000E+00 -0.00000000000E+00 -0.27952086823E+02  0.27952086823E+02  0.00000000000E+00 0.  1.
         25    2    1    2    0    0  0.32832922544E+02  0.55862746257E+02  0.33470223648E+03  0.36314100413E+03  0.12508858682E+03 0.  0.
          5    1    3    3  502    0  0.62311543581E+02 -0.11847367689E+02  0.19449925774E+03  0.20462287811E+03  0.41800000000E+01 0. -1.
         -5    1    3    3    0  502 -0.29478621037E+02  0.67710113946E+02  0.14020297874E+03  0.15851812602E+03  0.41800000000E+01 0. -1.
        -11    1    1    2    0    0 -0.14224648804E+02 -0.35583587182E+01 -0.57392000928E+01  0.15746141371E+02  0.00000000000E+00 0.  1.
         11    1    1    2    0    0 -0.18608273740E+02 -0.52304387538E+02  0.25470089978E+03  0.26068096432E+03  0.00000000000E+00 0. -1.
</event>
<event>
 7    1  0.2641580E-009  0.9506549E+02  0.7561462E-02  0.1291029E+00
          2   -1    0    0  501    0  0.00000000000E+00  0.00000000000E+00  0.17758228130E+03  0.17758228130E+03  0.00000000000E+00 0. -1.
         -2   -1    0    0    0  501 -0.00000000000E+00 -0.00000000000E+00 -0.69935606579E+02  0.69935606579E+02  0.00000000000E+00 0.  1.
         25    2    1    2    0    0 -0.11187918507E+02  0.11271297655E+00  0.91442336561E+02  0.15534889987E+03  0.12508556092E+03 0.  0.
          5    1    3    3  502    0  0.50827254938E+02  0.26918113636E+02  0.37410570167E+02  0.68738765238E+02  0.41800000000E+01 0. -1.
         -5    1    3    3    0  502 -0.62015173446E+02 -0.26805400660E+02  0.54031766394E+02  0.86610134636E+02  0.41800000000E+01 0. -1.
        -11    1    1    2    0    0 -0.45439835402E+01 -0.30350663280E+02 -0.24362320299E+02  0.39183328065E+02  0.00000000000E+00 0.  1.
         11    1    1    2    0    0  0.15731902048E+02  0.30237950303E+02  0.40566658454E+02  0.52985659935E+02  0.00000000000E+00 0. -1.
</event>
<event>
 7    1  0.2641580E-009  0.1219328E+03  0.7561462E-02  0.1239942E+00
          2   -1    0    0  501    0  0.00000000000E+00  0.00000000000E+00  0.17928599558E+03  0.17928599558E+03  0.00000000000E+00 0. -1.
         -2   -1    0    0    0  501 -0.00000000000E+00 -0.00000000000E+00 -0.10771118537E+03  0.10771118537E+03  0.00000000000E+00 0.  1.
         25    2    1    2    0    0  0.37697448539E+02 -0.54915859448E+02 -0.18614742475E+02  0.14293420403E+03  0.12508728473E+03 0.  0.
          5    1    3    3  502    0  0.26782684887E+02  0.35940906604E+02 -0.24291922556E+02  0.51153014366E+02  0.41800000000E+01 0.  1.
         -5    1    3    3    0  502  0.10914763652E+02 -0.90856766053E+02  0.56771800807E+01  0.91781189668E+02  0.41800000000E+01 0.  1.
        -11    1    1    2    0    0 -0.49190888366E+02  0.71669040610E+02  0.87891389474E+02  0.12361671094E+03  0.00000000000E+00 0. -1.
         11    1    1    2    0    0  0.11493439826E+02 -0.16753181162E+02  0.22981632148E+01  0.20446265973E+02  0.00000000000E+00 0.  1.
</event>
<event>
 7    1  0.2641580E-009  0.9147538E+02  0.7561462E-02  0.1299318E+00
         -1   -1    0    0    0  501 -0.00000000000E+00  0.00000000000E+00  0.15792021500E+03  0.15792021500E+03  0.00000000000E+00 0.  1.
          1   -1    0    0  501    0  0.00000000000E+00 -0.00000000000E+00 -0.10403386543E+03  0.10403386543E+03  0.00000000000E+00 0. -1.
         25    2    1    2    0    0 -0.64055254066E+02  0.13880319114E+02  0.35521128699E+02  0.14562281274E+03  0.12509402134E+03 0.  0.
          5    1    3    3  502    0 -0.24724514643E+02  0.17137931413E+02  0.80262289016E+02  0.85816768499E+02  0.41800000000E+01 0. -1.
         -5    1    3    3    0  502 -0.39330739423E+02 -0.32576122988E+01 -0.44741160317E+02  0.59806044243E+02  0.41800000000E+01 0. -1.
        -11    1    1    2    0    0 -0.14190750901E+02  0.22500736173E+02  0.13681475618E+02  0.29913931780E+02  0.00000000000E+00 0. -1.
         11    1    1    2    0    0  0.78246004967E+02 -0.36381055287E+02  0.46837452516E+01  0.86417335915E+02  0.00000000000E+00 0.  1.
</event>
<event>
 7    1  0.2641580E-009  0.7532295E+02  0.7561462E-02  0.1342874E+00
         -1   -1    0    0    0  501 -0.00000000000E+00  0.00000000000E+00  0.16239267108E+02  0.16239267108E+02  0.00000000000E+00 0.  1.
          1   -1    0    0  501    0  0.00000000000E+00 -0.00000000000E+00 -0.64691610881E+03  0.64691610881E+03  0.00000000000E+00 0. -1.
         25    2    1    2    0    0 -0.14506978725E+02  0.17478295530E+02 -0.46700464500E+03  0.48400125069E+03  0.12509168229E+03 0.  0.
          5    1    3    3  502    0 -0.57666176388E+02  0.86860543695E+01 -0.11287350757E+03  0.12711701912E+03  0.41800000000E+01 0.  1.
         -5    1    3    3    0  502  0.43159197663E+02  0.87922411607E+01 -0.35413113743E+03  0.35688423157E+03  0.41800000000E+01 0.  1.
        -11    1    1    2    0    0  0.28295733146E+02 -0.18970879002E+02 -0.16157483627E+03  0.16512713429E+03  0.00000000000E+00 0. -1.
         11    1    1    2    0    0 -0.13788754422E+02  0.14925834714E+01 -0.20973604412E+01  0.14026990937E+02  0.00000000000E+00 0.  1.
</event>
<event>
 7    1  0.2641580E-009  0.8178987E+02  0.7561462E-02  0.1324047E+00
         -1   -1    0    0    0  501 -0.00000000000E+00  0.00000000000E+00  0.32332690913E+02  0.32332690913E+02  0.00000000000E+00 0.  1.
          1   -1    0    0  501    0  0.00000000000E+00 -0.00000000000E+00 -0.57437938356E+03  0.57437938356E+03  0.00000000000E+00 0. -1.
         25    2    1    2    0    0  0.24057082339E+02 -0.35556650302E+01 -0.47106725135E+03  0.48799909465E+03  0.12508946843E+03 0.  0.
          5    1    3    3  502    0 -0.42550122756E+02  0.20595909449E+02 -0.10661222506E+03  0.11669765792E+03  0.41800000000E+01 0. -1.
         -5    1    3    3    0  502  0.66607205096E+02 -0.24151574480E+02 -0.36445502630E+03  0.37130143672E+03  0.41800000000E+01 0. -1.
        -11    1    1    2    0    0 -0.28945417918E+01 -0.16044800254E+02  0.18523609179E+02  0.24676670853E+02  0.00000000000E+00 0.  1.
         11    1    1    2    0    0 -0.21162540548E+02  0.19600465284E+02 -0.89503050467E+02  0.94036308970E+02  0.00000000000E+00 0. -1.
</event>
<event>
 7    1  0.2641580E-009  0.7800910E+02  0.7561462E-02  0.1334798E+00
          2   -1    0    0  501    0  0.00000000000E+00  0.00000000000E+00  0.77310258457E+03  0.77310258457E+03  0.00000000000E+00 0. -1.
         -2   -1    0    0    0  501 -0.00000000000E+00 -0.00000000000E+00 -0.22926156177E+02  0.22926156177E+02  0.00000000000E+00 0.  1.
         25    2    1    2    0    0 -0.14741350097E+02  0.38597251286E+02  0.58957343376E+03  0.60410978046E+03  0.12507892648E+03 0.  0.
          5    1    3    3  502    0  0.51763889574E+01  0.53568624709E+02  0.97965497892E+02  0.11185304526E+03  0.41800000000E+01 0. -1.
         -5    1    3    3    0  502 -0.19917739054E+02 -0.14971373423E+02  0.49160793587E+03  0.49225673521E+03  0.41800000000E+01 0. -1.
        -11    1    1    2    0    0  0.13850772206E+02  0.16571036296E+02 -0.52721680212E+00  0.21603728664E+02  0.00000000000E+00 0.  1.
         11    1    1    2    0    0  0.89057789092E+00 -0.55168287582E+02  0.16113021144E+03  0.17031523162E+03  0.00000000000E+00 0. -1.
</event>
<event>
 7    1  0.2641580E-009  0.1059583E+03  0.7561462E-02  0.1268243E+00
          2   -1    0    0  501    0  0.00000000000E+00  0.00000000000E+00  0.97321013480E+02  0.97321013480E+02  0.00000000000E+00 0. -1.
         -2   -1    0    0    0  501 -0.00000000000E+00 -0.00000000000E+00 -0.22470823845E+03  0.22470823845E+03  0.00000000000E+00 0.  1.
         25    2    1    2    0    0  0.91487943363E+02  0.31284403414E+02 -0.96959091860E+02  0.18546609218E+03  0.12509135932E+03 0.  0.
          5    1    3    3  502    0  0.84452045722E+02  0.72003960976E+01 -0.12275903574E+03  0.14923554197E+03  0.41800000000E+01 0. -1.
         -5    1    3    3    0  502  0.70358976402E+01  0.24084007316E+02  0.25799943882E+02  0.36230550208E+02  0.41800000000E+01 0. -1.
        -11    1    1    2    0    0 -0.21522324592E+02  0.59940715999E+01  0.29627427342E+02  0.37106923897E+02  0.00000000000E+00 0. -1.
         11    1    1    2    0    0 -0.69965618771E+02 -0.37278475014E+02 -0.60055560454E+02  0.99456235857E+02  0.00000000000E+00 0.  1.
</event>
<event>
 7    1  0.2641580E-009  0.1138550E+03  0.7561462E-02  0.1253593E+00
         -2   -1    0    0    0  501 -0.00000000000E+00  0.00000000000E+00  0.83389605357E+02  0.83389605357E+02  0.00000000000E+00 0. -1.
          2   -1    0    0  501    0  0.00000000000E+00 -0.00000000000E+00 -0.20041511565E+03  0.20041511565E+03  0.00000000000E+00 0.  1.
         25    2    1    2    0    0  0.68386515951E+02 -0.55158764683E+01 -0.81864103488E+02  0.16449175163E+03  0.12509462202E+03 0.  0.
          5    1    3    3  502    0  0.91176680577E+02 -0.23583944468E+02 -0.20525299675E+02  0.96478753332E+02  0.41800000000E+01 0. -1.
         -5    1    3    3    0  502 -0.22790164626E+02  0.18068068000E+02 -0.61338803813E+02  0.68012998303E+02  0.41800000000E+01 0. -1.
        -11    1    1    2    0    0  0.17437614664E+02  0.53269730483E+01  0.11566493953E+02  0.21592378965E+02  0.00000000000E+00 0. -1.
         11    1    1    2    0    0 -0.85824130614E+02  0.18890341999E+00 -0.46727900757E+02  0.97720590406E+02  0.00000000000E+00 0.  1.
</event>
<event>
 7    1  0.2641580E-009  0.2096659E+03  0.7561462E-02  0.1141831E+00
         -1   -1    0    0    0  501 -0.00000000000E+00  0.00000000000E+00  0.31444070728E+03  0.31444070728E+03  0.00000000000E+00 0.  1.
          1   -1    0    0  501    0  0.00000000000E+00 -0.00000000000E+00 -0.21506113165E+03  0.21506113165E+03  0.00000000000E+00 0. -1.
         25    2    1    2    0    0  0.18717849778E+03 -0.83911357256E+02 -0.59508231360E+02  0.24751794405E+03  0.12508795752E+03 0.  0.
          5    1    3    3  502    0  0.15001399114E+03 -0.49587712818E+02 -0.96069979202E+02  0.18495959587E+03  0.41800000000E+01 0. -1.
         -5    1    3    3    0  502  0.37164506640E+02 -0.34323644438E+02  0.36561747842E+02  0.62558348177E+02  0.41800000000E+01 0. -1.
        -11    1    1    2    0    0 -0.26729214180E+02  0.32398968276E+02  0.91153703746E+02  0.10036504243E+03  0.00000000000E+00 0.  1.
         11    1    1    2    0    0 -0.16044928360E+03  0.51512388980E+02  0.67734103246E+02  0.18161885246E+03  0.00000000000E+00 0. -1.
</event>
<event>
 7    1  0.2641580E-009  0.1866131E+03  0.7561462E-02  0.1161552E+00
         -4   -1    0    0    0  501 -0.00000000000E+00  0.00000000000E+00  0.25420983870E+03  0.25420983870E+03  0.00000000000E+00 0. -1.
          4   -1    0    0  501    0  0.00000000000E+00 -0.00000000000E+00 -0.14296477720E+03  0.14296477720E+03  0.00000000000E+00 0.  1.
         25    2    1    2    0    0  0.12230299741E+03 -0.10090699760E+03  0.49744592898E+02  0.20799494207E+03  0.12508847294E+03 0.  0.
          5    1    3    3  502    0  0.41911491925E+02  0.27499821663E+02  0.95352875852E+01  0.51197729014E+02  0.41800000000E+01 0.  1.
         -5    1    3    3    0  502  0.80391505489E+02 -0.12840681926E+03  0.40209305313E+02  0.15679721306E+03  0.41800000000E+01 0.  1.
        -11    1    1    2    0    0 -0.67097776235E+02  0.94351795297E+02  0.66236368511E+02  0.13338526667E+03  0.00000000000E+00 0. -1.
         11    1    1    2    0    0 -0.55205221179E+02  0.65552023038E+01 -0.47358999153E+01  0.55794407163E+02  0.00000000000E+00 0.  1.
</event>
<event>
 7    1  0.2641580E-009  0.9601404E+02  0.7561462E-02  0.1288908E+00
         -3   -1    0    0    0  501 -0.00000000000E+00  0.00000000000E+00  0.55796907461E+02  0.55796907461E+02  0.00000000000E+00 0.  1.
          3   -1    0    0  501    0  0.00000000000E+00 -0.00000000000E+00 -0.26753562109E+03  0.26753562109E+03  0.00000000000E+00 0. -1.
         25    2    1    2    0    0 -0.24029868538E+02  0.24209308540E+02 -0.18104529743E+03  0.22268451957E+03  0.12508984905E+03 0.  0.
          5    1    3    3  502    0  0.16141151297E+01  0.56837694164E+02 -0.26984558028E+02  0.63077473139E+02  0.41800000000E+01 0. -1.
         -5    1    3    3    0  502 -0.25643983668E+02 -0.32628385624E+02 -0.15406073940E+03  0.15960704644E+03  0.41800000000E+01 0. -1.
        -11    1    1    2    0    0  0.56872351641E+02 -0.19518933764E+02 -0.30611158691E+02  0.67472188292E+02  0.00000000000E+00 0. -1.
         11    1    1    2    0    0 -0.32842483103E+02 -0.46903747759E+01 -0.82257509633E-01  0.33175820687E+02  0.00000000000E+00 0.  1.
</event>
<event>
 7    1  0.2641580E-009  0.1142997E+03  0.7561462E-02  0.1252808E+00
         -1   -1    0    0    0  501 -0.00000000000E+00  0.00000000000E+00  0.19037126370E+03  0.19037126370E+03  0.00000000000E+00 0.  1.
          1   -1    0    0  501    0  0.00000000000E+00 -0.00000000000E+00 -0.87812250826E+02  0.87812250826E+02  0.00000000000E+00 0. -1.
         25    2    1    2    0    0  0.15464201190E+02 -0.69353204009E+02  0.51154898367E+02  0.15268859711E+03  0.12509186879E+03 0.  0.
          5    1    3    3  502    0 -0.29613136755E+02  0.22894311844E+02 -0.52512788890E+00  0.37667433449E+02  0.41800000000E+01 0.  1.
         -5    1    3    3    0  502  0.45077337945E+02 -0.92247515853E+02  0.51680026256E+02  0.11502116367E+03  0.41800000000E+01 0.  1.
        -11    1    1    2    0    0 -0.32438858210E+02  0.61379708342E+02 -0.14215881030E+01  0.69438959028E+02  0.00000000000E+00 0.  1.
         11    1    1    2    0    0  0.16974657020E+02  0.79734956667E+01  0.52825702607E+02  0.56055958381E+02  0.00000000000E+00 0. -1.
</event>
<event>
 7    1  0.2641580E-009  0.1189468E+03  0.7561462E-02  0.1244845E+00
          2   -1    0    0  501    0  0.00000000000E+00  0.00000000000E+00  0.26411586183E+03  0.26411586183E+03  0.00000000000E+00 0. -1.
         -2   -1    0    0    0  501 -0.00000000000E+00 -0.00000000000E+00 -0.55741382967E+02  0.55741382967E+02  0.00000000000E+00 0.  1.
         25    2    1    2    0    0  0.47699781343E+02 -0.19550301847E+02  0.94490239435E+02  0.16502574174E+03  0.12509039390E+03 0.  0.
          5    1    3    3  502    0  0.51763539304E+02  0.45916992500E+02  0.53506140616E+02  0.87568337229E+02  0.41800000000E+01 0.  1.
         -5    1    3    3    0  502 -0.40637579602E+01 -0.65467294348E+02  0.40984098819E+02  0.77457404514E+02  0.41800000000E+01 0.  1.
        -11    1    1    2    0    0 -0.74326945440E+02  0.15239633452E+02  0.96439226426E+02  0.12270805043E+03  0.00000000000E+00 0.  1.
         11    1    1    2    0    0  0.26627164097E+02  0.43106683953E+01  0.17445012997E+02  0.32123452622E+02  0.00000000000E+00 0. -1.
</event>
<event>
 7    1  0.2641580E-009  0.1981454E+03  0.7561462E-02  0.1151313E+00
         -1   -1    0    0    0  501 -0.00000000000E+00  0.00000000000E+00  0.31592835095E+02  0.31592835095E+02  0.00000000000E+00 0.  1.
          1   -1    0    0  501    0  0.00000000000E+00 -0.00000000000E+00 -0.14270022374E+04  0.14270022374E+04  0.00000000000E+00 0. -1.
         25    2    1    2    0    0 -0.87445392163E+02  0.15117361224E+03 -0.90870486110E+03  0.93375201365E+03  0.12509252882E+03 0.  0.
          5    1    3    3  502    0 -0.96570287908E+02  0.45136640219E+02 -0.39729052195E+03  0.41136403346E+03  0.41800000000E+01 0. -1.
         -5    1    3    3    0  502  0.91248957455E+01  0.10603697203E+03 -0.51141433915E+03  0.52238798019E+03  0.41800000000E+01 0. -1.
        -11    1    1    2    0    0  0.28452867051E+02 -0.10323845146E+03 -0.37302270801E+03  0.38808978883E+03  0.00000000000E+00 0. -1.
         11    1    1    2    0    0  0.58992525112E+02 -0.47935160786E+02 -0.11368183316E+03  0.13675326998E+03  0.00000000000E+00 0.  1.
</event>
<event>
 7    1  0.2641580E-009  0.6388394E+02  0.7561462E-02  0.1382220E+00
          2   -1    0    0  501    0  0.00000000000E+00  0.00000000000E+00  0.96044219179E+02  0.96044219179E+02  0.00000000000E+00 0.  1.
         -2   -1    0    0    0  501 -0.00000000000E+00 -0.00000000000E+00 -0.14215464760E+03  0.14215464760E+03  0.00000000000E+00 0. -1.
         25    2    1    2    0    0 -0.37409145547E+02 -0.18334986437E+02 -0.12144727992E+02  0.13239889999E+03  0.12508540444E+03 0.  0.
          5    1    3    3  502    0 -0.37354155287E+02 -0.28842464967E+02 -0.63829473735E+02  0.79491476397E+02  0.41800000000E+01 0. -1.
         -5    1    3    3    0  502 -0.54990260459E-01  0.10507478530E+02  0.51684745743E+02  0.52907423595E+02  0.41800000000E+01 0. -1.
        -11    1    1    2    0    0 -0.14547924225E+02  0.55803277642E+01  0.22916280237E+02  0.27711695313E+02  0.00000000000E+00 0.  1.
         11    1    1    2    0    0  0.51957069773E+02  0.12754658672E+02 -0.56881980666E+02  0.78088271473E+02  0.00000000000E+00 0. -1.
</event>
<event>
 7    1  0.2641580E-009  0.9774601E+02  0.7561462E-02  0.1285108E+00
          2   -1    0    0  501    0  0.00000000000E+00  0.00000000000E+00  0.45271791252E+02  0.45271791252E+02  0.00000000000E+00 0. -1.
         -2   -1    0    0    0  501 -0.00000000000E+00 -0.00000000000E+00 -0.39933274586E+03  0.39933274586E+03  0.00000000000E+00 0.  1.
         25    2    1    2    0    0  0.28224449492E+01 -0.53590438625E+02 -0.99471126123E+02  0.16858776776E+03  0.12508968461E+03 0.  0.
          5    1    3    3  502    0  0.36668938144E+02 -0.37067766896E+02 -0.11599723816E+03  0.12724567587E+03  0.41800000000E+01 0.  1.
         -5    1    3    3    0  502 -0.33846493195E+02 -0.16522671729E+02  0.16526112033E+02  0.41342091887E+02  0.41800000000E+01 0.  1.
        -11    1    1    2    0    0 -0.43926211469E+02  0.93683032119E+01 -0.87505551494E+02  0.98359029588E+02  0.00000000000E+00 0.  1.
         11    1    1    2    0    0  0.41103766520E+02  0.44222135413E+02 -0.16708427699E+03  0.17765773977E+03  0.00000000000E+00 0. -1.
</event>
<event>
 7    1  0.2641580E-009  0.8987160E+02  0.7561462E-02  0.1303163E+00
         -1   -1    0    0    0  501 -0.00000000000E+00  0.00000000000E+00  0.42934528164E+03  0.42934528164E+03  0.00000000000E+00 0.  1.
          1   -1    0    0  501    0  0.00000000000E+00 -0.00000000000E+00 -0.41592674023E+02  0.41592674023E+02  0.00000000000E+00 0. -1.
         25    2    1    2    0    0 -0.54432787629E+02 -0.53711859441E+02  0.19388602697E+03  0.24307914991E+03  0.12509112459E+03 0.  0.
          5    1    3    3  502    0 -0.68746945886E+02 -0.46341795680E+02  0.47281216752E+02  0.95533713699E+02  0.41800000000E+01 0. -1.
         -5    1    3    3    0  502  0.14314158258E+02 -0.73700637612E+01  0.14660481022E+03  0.14754543621E+03  0.41800000000E+01 0. -1.
        -11    1    1    2    0    0  0.25695647416E+02  0.41632153571E+02  0.19029356941E+03  0.19648192046E+03  0.00000000000E+00 0.  1.
         11    1    1    2    0    0  0.28737140213E+02  0.12079705870E+02  0.35730112296E+01  0.31376885294E+02  0.00000000000E+00 0. -1.
</event>
<event>
 7    1  0.2641580E-009  0.9859694E+02  0.7561462E-02  0.1283274E+00
         -1   -1    0    0    0  501 -0.00000000000E+00  0.00000000000E+00  0.31613807239E+02  0.31613807239E+02  0.00000000000E+00 0.  1.
          1   -1    0    0  501    0  0.00000000000E+00 -0.00000000000E+00 -0.56210922597E+03  0.56210922597E+03  0.00000000000E+00 0. -1.
         25    2    1    2    0    0  0.74439945937E+02  0.20121177139E+02 -0.29864846085E+03  0.33284270496E+03  0.12508875152E+03 0.  0.
          5    1    3    3  502    0  0.25422374185E+02 -0.16409467321E+00  0.35385780734E+01  0.26006114109E+02  0.41800000000E+01 0.  1.
         -5    1    3    3    0  502  0.49017571752E+02  0.20285271813E+02 -0.30218703892E+03  0.30683659085E+03  0.41800000000E+01 0.  1.
        -11    1    1    2    0    0  0.43454313048E+01  0.26377050937E+02 -0.70565098821E+02  0.75459027035E+02  0.00000000000E+00 0. -1.
         11    1    1    2    0    0 -0.78785377242E+02 -0.46498228076E+02 -0.16128185906E+03  0.18542130121E+03  0.00000000000E+00 0.  1.
</event>
<event>
 7    1  0.2641580E-009  0.8000947E+02  0.7561462E-02  0.1329025E+00
          2   -1    0    0  501    0  0.00000000000E+00  0.00000000000E+00  0.44028835252E+03  0.44028835252E+03  0.00000000000E+00 0. -1.
         -2   -1    0    0    0  501 -0.00000000000E+00 -0.00000000000E+00 -0.29008000122E+02  0.29008000122E+02  0.00000000000E+00 0.  1.
         25    2    1    2    0    0  0.36134546922E+02 -0.52923508957E+01  0.22517094078E+03  0.26016765611E+03  0.12510612398E+03 0.  0.
          5    1    3    3  502    0  0.38265248026E+02  0.17954934912E+02  0.99243764208E+01  0.43618511455E+02  0.41800000000E+01 0. -1.
         -5    1    3    3    0  502 -0.21307011044E+01 -0.23247285807E+02  0.21524656436E+03  0.21654914466E+03  0.41800000000E+01 0. -1.
        -11    1    1    2    0    0  0.16706940398E+02 -0.27109256189E+02  0.46286341011E+02  0.56182372616E+02  0.00000000000E+00 0.  1.
         11    1    1    2    0    0 -0.52841487319E+02  0.32401607084E+02  0.13982307060E+03  0.15294632391E+03  0.00000000000E+00 0. -1.
</event>
<event>
 7    1  0.2641580E-009  0.1279713E+03  0.7561462E-02  0.1230497E+00
         -4   -1    0    0    0  501 -0.00000000000E+00  0.00000000000E+00  0.26804219923E+03  0.26804219923E+03  0.00000000000E+00 0.  1.
          4   -1    0    0  501    0  0.00000000000E+00 -0.00000000000E+00 -0.89588015175E+02  0.89588015175E+02  0.00000000000E+00 0. -1.
         25    2    1    2    0    0  0.93487452127E+02 -0.18344265710E+02  0.29750164870E+02  0.16002708007E+03  0.12508868157E+03 0.  0.
          5    1    3    3  502    0 -0.19404402829E+02  0.20242203687E+02 -0.15560316572E+02  0.32339967704E+02  0.41800000000E+01 0. -1.
         -5    1    3    3    0  502  0.11289185496E+03 -0.38586469397E+02  0.45310481441E+02  0.12768711237E+03  0.41800000000E+01 0. -1.
        -11    1    1    2    0    0 -0.89189199674E+02 -0.18919172244E+00  0.15390421887E+03  0.17787989689E+03  0.00000000000E+00 0.  1.
         11    1    1    2    0    0 -0.42982524532E+01  0.18533457432E+02 -0.52001996843E+01  0.19723237445E+02  0.00000000000E+00 0. -1.
</event>
<event>
 7    1  0.2641580E-009  0.6806996E+02  0.7561462E-02  0.1366782E+00
         -2   -1    0    0    0  501 -0.00000000000E+00  0.00000000000E+00  0.37842481831E+02  0.37842481831E+02  0.00000000000E+00 0.  1.
          2   -1    0    0  501    0  0.00000000000E+00 -0.00000000000E+00 -0.32629630567E+03  0.32629630567E+03  0.00000000000E+00 0. -1.
         25    2    1    2    0    0 -0.11264973099E+02 -0.17461025862E+01 -0.18952912679E+03  0.22737410224E+03  0.12509094282E+03 0.  0.
          5    1    3    3  502    0 -0.27548901887E+01 -0.26896690211E+02 -0.19746298731E+03  0.19934925413E+03  0.41800000000E+01 0. -1.
         -5    1    3    3    0  502 -0.85100829105E+01  0.25150587625E+02  0.79338605200E+01  0.28024848113E+02  0.41800000000E+01 0. -1.
        -11    1    1    2    0    0  0.54472110452E+01 -0.39689180428E+02 -0.82690933221E+02  0.91884131318E+02  0.00000000000E+00 0. -1.
         11    1    1    2    0    0  0.58177620540E+01  0.41435283014E+02 -0.16233763824E+02  0.44880553936E+02  0.00000000000E+00 0.  1.
</event>
<event>
 7    1  0.2641580E-009  0.1160308E+03  0.7561462E-02  0.1249792E+00
          1   -1    0    0  501    0  0.00000000000E+00  0.00000000000E+00  0.49771834698E+03  0.49771834698E+03  0.00000000000E+00 0. -1.
         -1   -1    0    0    0  501 -0.00000000000E+00 -0.00000000000E+00 -0.30523274206E+02  0.30523274206E+02  0.00000000000E+00 0.  1.
         25    2    1    2    0    0  0.20227391801E+02 -0.51030223198E+02  0.30306873778E+03  0.33243437721E+03  0.12509486109E+03 0.  0.
          5    1    3    3  502    0 -0.61221804217E+01  0.35540251948E+02  0.39108639328E+02  0.53362427528E+02  0.41800000000E+01 0.  1.
         -5    1    3    3    0  502  0.26349572223E+02 -0.86570475146E+02  0.26396009845E+03  0.27907194968E+03  0.41800000000E+01 0.  1.
        -11    1    1    2    0    0  0.29947358497E+02 -0.45494883200E+01  0.32896381395E+02  0.44718162236E+02  0.00000000000E+00 0.  1.
         11    1    1    2    0    0 -0.50174750298E+02  0.55579711518E+02  0.13122995360E+03  0.15108908174E+03  0.00000000000E+00 0. -1.
</event>
<event>
 7    1  0.2641580E-009  0.1037416E+03  0.7561462E-02  0.1272619E+00
          1   -1    0    0  501    0  0.00000000000E+00  0.00000000000E+00  0.66604938409E+02  0.66604938409E+02  0.00000000000E+00 0. -1.
         -1   -1    0    0    0  501 -0.00000000000E+00 -0.00000000000E+00 -0.22581884264E+03  0.22581884264E+03  0.00000000000E+00 0.  1.
         25    2    1    2    0    0  0.36904057583E+02  0.98911598387E+01 -0.14934392428E+03  0.19852185266E+03  0.12509026244E+03 0.  0.
          5    1    3    3  502    0  0.43354713225E+02  0.62515800447E+02 -0.10202109870E+03  0.12733276657E+03  0.41800000000E+01 0.  1.
         -5    1    3    3    0  502 -0.64506556420E+01 -0.52624640608E+02 -0.47322825580E+02  0.71189086089E+02  0.41800000000E+01 0.  1.
        -11    1    1    2    0    0  0.20208067104E+02 -0.40028006727E+00 -0.26813559052E+02  0.33578164769E+02  0.00000000000E+00 0.  1.
         11    1    1    2    0    0 -0.57112124687E+02 -0.94908797714E+01  0.16943579093E+02  0.60323763622E+02  0.00000000000E+00 0. -1.
</event>
<event>
 7    1  0.2641580E-009  0.1865957E+03  0.7561462E-02  0.1161568E+00
         -2   -1    0    0    0  501 -0.00000000000E+00  0.00000000000E+00  0.26933123892E+02  0.26933123892E+02  0.00000000000E+00 0.  1.
          2   -1    0    0  501    0  0.00000000000E+00 -0.00000000000E+00 -0.13418424458E+04  0.13418424458E+04  0.00000000000E+00 0. -1.
         25    2    1    2    0    0 -0.14573762102E+03  0.33775502998E+02 -0.55705270613E+03  0.59019946002E+03  0.12508975342E+03 0.  0.
          5    1    3    3  502    0 -0.53942674145E+02  0.76395597773E+02 -0.25812182534E+03  0.27457321167E+03  0.41800000000E+01 0. -1.
         -5    1    3    3    0  502 -0.91794946878E+02 -0.42620094775E+02 -0.29893088080E+03  0.31562624834E+03  0.41800000000E+01 0. -1.
        -11    1    1    2    0    0  0.91162775194E+02  0.28467448735E+02 -0.42111907623E+03  0.43181283397E+03  0.00000000000E+00 0.  1.
         11    1    1    2    0    0  0.54574845829E+02 -0.62242951733E+02 -0.33673753959E+03  0.34676327575E+03  0.00000000000E+00 0. -1.
</event>
<event>
 7    1  0.2877150E-009  0.1468902E+03  0.7561462E-02  0.1204347E+00
          1   -1    0    0  501    0  0.00000000000E+00  0.00000000000E+00  0.12355591478E+04  0.12355591478E+04  0.00000000000E+00 0. -1.
         -1   -1    0    0    0  501 -0.00000000000E+00 -0.00000000000E+00 -0.20384273889E+02  0.20384273889E+02  0.00000000000E+00 0.  1.
         25    2    1    2    0    0  0.11438924797E+03  0.11605770271E+02  0.70666132167E+03  0.72679931783E+03  0.12508969142E+03 0.  0.
          5    1    3    3  502    0  0.30318868814E+02 -0.45067656725E+02  0.40220096424E+03  0.40587364478E+03  0.41800000000E+01 0. -1.
         -5    1    3    3    0  502  0.84070379157E+02  0.56673426996E+02  0.30446035743E+03  0.32092567306E+03  0.41800000000E+01 0. -1.
        -11    1    1    2    0    0 -0.60750218276E+02  0.32034224376E+02  0.16469970662E+03  0.17844543680E+03  0.00000000000E+00 0.  1.
         11    1    1    2    0    0 -0.53639029694E+02 -0.43639994648E+02  0.34381384563E+03  0.35069866707E+03  0.00000000000E+00 0. -1.
</event>
<event>
 7    1  0.2641580E-009  0.1231499E+03  0.7561462E-02  0.1237989E+00
          1   -1    0    0  501    0  0.00000000000E+00  0.00000000000E+00  0.19240191337E+03  0.19240191337E+03  0.00000000000E+00 0. -1.
         -1   -1    0    0    0  501 -0.00000000000E+00 -0.00000000000E+00 -0.96640404814E+02  0.96640404814E+02  0.00000000000E+00 0.  1.
         25    2    1    2    0    0 -0.79728770690E+02  0.18583520832E+02  0.44657188510E+02  0.15602536866E+03  0.12509047548E+03 0.  0.
          5    1    3    3  502    0  0.22333366371E+02 -0.28548610777E+02  0.54476274913E+01  0.36891075832E+02  0.41800000000E+01 0. -1.
         -5    1    3    3    0  502 -0.10206213706E+03  0.47132131609E+02  0.39209561018E+02  0.11913429282E+03  0.41800000000E+01 0. -1.
        -11    1    1    2    0    0  0.98032958363E+01  0.16416151180E+02 -0.19754152972E+02  0.27492202321E+02  0.00000000000E+00 0.  1.
         11    1    1    2    0    0  0.69925474854E+02 -0.34999672012E+02  0.70858473018E+02  0.10552474721E+03  0.00000000000E+00 0. -1.
</event>
<event>
 7    1  0.2641580E-009  0.1422389E+03  0.7561462E-02  0.1210348E+00
         -2   -1    0    0    0  501 -0.00000000000E+00  0.00000000000E+00  0.11395817411E+03  0.11395817411E+03  0.00000000000E+00 0.  1.
          2   -1    0    0  501    0  0.00000000000E+00 -0.00000000000E+00 -0.21084770733E+03  0.21084770733E+03  0.00000000000E+00 0. -1.
         25    2    1    2    0    0 -0.10889809285E+03  0.20654473353E-01 -0.35803903038E+02  0.16966875581E+03  0.12508705837E+03 0.  0.
          5    1    3    3  502    0 -0.16224076799E+02  0.38711179918E+02  0.27987401293E+02  0.50621568029E+02  0.41800000000E+01 0. -1.
         -5    1    3    3    0  502 -0.92674016050E+02 -0.38690525444E+02 -0.63791304331E+02  0.11904718778E+03  0.41800000000E+01 0. -1.
        -11    1    1    2    0    0  0.95000886643E+02 -0.37251576465E+02 -0.36332958662E+02  0.10831866089E+03  0.00000000000E+00 0.  1.
         11    1    1    2    0    0  0.13897206205E+02  0.37230921992E+02 -0.24752671527E+02  0.46818464738E+02  0.00000000000E+00 0. -1.
</event>
<event>
 7    1  0.2641580E-009  0.9790462E+02  0.7561462E-02  0.1284765E+00
         -2   -1    0    0    0  501 -0.00000000000E+00  0.00000000000E+00  0.36389120916E+03  0.36389120916E+03  0.00000000000E+00 0. -1.
          2   -1    0    0  501    0  0.00000000000E+00 -0.00000000000E+00 -0.11847451241E+03  0.11847451241E+03  0.00000000000E+00 0.  1.
         25    2    1    2    0    0  0.71479339275E+02  0.20141523521E+02  0.31471201953E+03  0.34670829737E+03  0.12509201141E+03 0.  0.
          5    1    3    3  502    0  0.91417387754E+01  0.32074613678E+02  0.26186127240E+03  0.26400975477E+03  0.41800000000E+01 0.  1.
         -5    1    3    3    0  502  0.62337600499E+02 -0.11933090156E+02  0.52850747128E+02  0.82698542603E+02  0.41800000000E+01 0.  1.
        -11    1    1    2    0    0 -0.29325683314E+02  0.23747894652E+02 -0.64355968240E+02  0.74603276405E+02  0.00000000000E+00 0.  1.
         11    1    1    2    0    0 -0.42153655960E+02 -0.43889418173E+02 -0.49393545374E+01  0.61054147784E+02  0.00000000000E+00 0. -1.
</event>
<event>
 7    1  0.2641580E-009  0.1014808E+03  0.7561462E-02  0.1277213E+00
         -2   -1    0    0    0  501 -0.00000000000E+00  0.00000000000E+00  0.42063828517E+02  0.42063828517E+02  0.00000000000E+00 0.  1.
          2   -1    0    0  501    0  0.00000000000E+00 -0.00000000000E+00 -0.45441068608E+03  0.45441068608E+03  0.00000000000E+00 0. -1.
         25    2    1    2    0    0  0.55562452266E+02  0.20538212103E+02 -0.34100406688E+03  0.36802221312E+03  0.12509025325E+03 0.  0.
          5    1    3    3  502    0 -0.40126859235E+02  0.98581770809E+01 -0.88808028967E+02  0.98039211015E+02  0.41800000000E+01 0. -1.
         -5    1    3    3    0  502  0.95689311500E+02  0.10680035022E+02 -0.25219603792E+03  0.26998300210E+03  0.41800000000E+01 0. -1.
        -11    1    1    2    0    0 -0.40498143524E+02 -0.11641665626E+01 -0.89287808887E+02  0.98049822685E+02  0.00000000000E+00 0. -1.
         11    1    1    2    0    0 -0.15064308742E+02 -0.19374045540E+02  0.17945018207E+02  0.30402478795E+02  0.00000000000E+00 0.  1.
</event>
<event>
 7    1  0.2647997E-009  0.1278607E+03  0.7561462E-02  0.1230665E+00
         -2   -1    0    0    0  501 -0.00000000000E+00  0.00000000000E+00  0.23770155754E+02  0.23770155754E+02  0.00000000000E+00 0.  1.
          2   -1    0    0  501    0  0.00000000000E+00 -0.00000000000E+00 -0.12362698855E+04  0.12362698855E+04  0.00000000000E+00 0. -1.
         25    2    1    2    0    0  0.10549682394E+03 -0.59722872177E+02 -0.83783594724E+03  0.85575200499E+03  0.12508404470E+03 0.  0.
          5    1    3    3  502    0  0.20228763128E+02 -0.80158365251E+01 -0.56161524527E+03  0.56205214403E+03  0.41800000000E+01 0. -1.
         -5    1    3    3    0  502  0.85268060808E+02 -0.51707035652E+02 -0.27622070197E+03  0.29369986095E+03  0.41800000000E+01 0. -1.
        -11    1    1    2    0    0 -0.64050410858E+02  0.38191478599E+01 -0.27719874926E+03  0.28452800849E+03  0.00000000000E+00 0. -1.
         11    1    1    2    0    0 -0.41446413079E+02  0.55903724317E+02 -0.97465033290E+02  0.11976002782E+03  0.00000000000E+00 0.  1.
</event>
<event>
 7    1  0.2641580E-009  0.1070575E+03  0.7561462E-02  0.1266118E+00
          2   -1    0    0  501    0  0.00000000000E+00  0.00000000000E+00  0.88194194961E+03  0.88194194961E+03  0.00000000000E+00 0. -1.
         -2   -1    0    0    0  501 -0.00000000000E+00 -0.00000000000E+00 -0.13723363152E+02  0.13723363152E+02  0.00000000000E+00 0.  1.
         25    2    1    2    0    0 -0.24071056497E+02  0.49707911881E-01  0.47367284356E+03  0.49049961750E+03  0.12507795093E+03 0.  0.
          5    1    3    3  502    0  0.45107590704E+02  0.20614761558E+02  0.26568176967E+03  0.27030341890E+03  0.41800000000E+01 0.  1.
         -5    1    3    3    0  502 -0.69178647202E+02 -0.20565053646E+02  0.20799107388E+03  0.22019619859E+03  0.41800000000E+01 0.  1.
        -11    1    1    2    0    0  0.21869494013E+02  0.43372690101E+02  0.21779566602E+03  0.22314662702E+03  0.00000000000E+00 0. -1.
         11    1    1    2    0    0  0.22015624846E+01 -0.43422398012E+02  0.17675007688E+03  0.18201906824E+03  0.00000000000E+00 0.  1.
</event>
<event>
 7    1  0.2641580E-009  0.1709312E+03  0.7561462E-02  0.1176880E+00
          1   -1    0    0  501    0  0.00000000000E+00  0.00000000000E+00  0.95367551990E+03  0.95367551990E+03  0.00000000000E+00 0. -1.
         -1   -1    0    0    0  501 -0.00000000000E+00 -0.00000000000E+00 -0.56884046797E+02  0.56884046797E+02  0.00000000000E+00 0.  1.
         25    2    1    2    0    0  0.61292655450E+02  0.14218926108E+03  0.16919750211E+03  0.26124706999E+03  0.12509061228E+03 0.  0.
          5    1    3    3  502    0 -0.12137335785E+02  0.30355716968E+02 -0.12775704735E+02  0.35347920789E+02  0.41800000000E+01 0. -1.
         -5    1    3    3    0  502  0.73429991236E+02  0.11183354411E+03  0.18197320685E+03  0.22589914921E+03  0.41800000000E+01 0. -1.
        -11    1    1    2    0    0 -0.47006677772E+02 -0.18460278552E+02  0.14468150553E+03  0.15324212111E+03  0.00000000000E+00 0.  1.
         11    1    1    2    0    0 -0.14285977678E+02 -0.12372898252E+03  0.58291246546E+03  0.59607037559E+03  0.00000000000E+00 0. -1.
</event>
<event>
 7    1  0.2641580E-009  0.7334249E+02  0.7561462E-02  0.1349082E+00
         -4   -1    0    0    0  501 -0.00000000000E+00  0.00000000000E+00  0.69500147082E+02  0.69500147082E+02  0.00000000000E+00 0.  1.
          4   -1    0    0  501    0  0.00000000000E+00 -0.00000000000E+00 -0.18521508563E+03  0.18521508563E+03  0.00000000000E+00 0. -1.
         25    2    1    2    0    0 -0.71620329439E+01 -0.20867754128E+02 -0.47240170709E+02  0.13552689455E+03  0.12509655287E+03 0.  0.
          5    1    3    3  502    0  0.49499064789E+01  0.16664829615E+02 -0.81303980803E+02  0.83246788614E+02  0.41800000000E+01 0. -1.
         -5    1    3    3    0  502 -0.12111939423E+02 -0.37532583743E+02  0.34063810094E+02  0.52280105940E+02  0.41800000000E+01 0. -1.
        -11    1    1    2    0    0  0.46008425792E+02  0.22372555688E+01 -0.59387404642E+02  0.75157463944E+02  0.00000000000E+00 0.  1.
         11    1    1    2    0    0 -0.38846392848E+02  0.18630498559E+02 -0.90873631950E+01  0.44030874210E+02  0.00000000000E+00 0. -1.
</event>
<event>
 7    1  0.2641580E-009  0.1624732E+03  0.7561462E-02  0.1185933E+00
         -2   -1    0    0    0  501 -0.00000000000E+00  0.00000000000E+00  0.72810212063E+02  0.72810212063E+02  0.00000000000E+00 0.  1.
          2   -1    0    0  501    0  0.00000000000E+00 -0.00000000000E+00 -0.43199007584E+03  0.43199007584E+03  0.00000000000E+00 0. -1.
         25    2    1    2    0    0 -0.13901775187E+03 -0.10338317796E+02 -0.18666401340E+03  0.26442836428E+03  0.12508433071E+03 0.  0.
          5    1    3    3  502    0 -0.73101515443E+01 -0.29888724886E+02  0.45507583589E+01  0.31384008549E+02  0.41800000000E+01 0. -1.
         -5    1    3    3    0  502 -0.13170760032E+03  0.19550407090E+02 -0.19121477176E+03  0.23304435573E+03  0.41800000000E+01 0. -1.
        -11    1    1    2    0    0 -0.24437936024E+01 -0.16510876332E+02 -0.45152133655E+02  0.48138304270E+02  0.00000000000E+00 0. -1.
         11    1    1    2    0    0  0.14146154547E+03  0.26849194129E+02 -0.12736371672E+03  0.19223361935E+03  0.00000000000E+00 0.  1.
</event>
<event>
 7    1  0.2641580E-009  0.9750429E+02  0.7561462E-02  0.1285633E+00
          1   -1    0    0  501    0  0.00000000000E+00  0.00000000000E+00  0.50534771468E+02  0.50534771468E+02  0.00000000000E+00 0. -1.
         -1   -1    0    0    0  501 -0.00000000000E+00 -0.00000000000E+00 -0.24664181115E+03  0.24664181115E+03  0.00000000000E+00 0.  1.
         25    2    1    2    0    0  0.29716852175E+02  0.12785154689E+02 -0.10872038331E+03  0.16886137591E+03  0.12508993182E+03 0.  0.
          5    1    3    3  502    0 -0.32056401245E+02  0.33091150903E+02 -0.52155117268E+01  0.46554388530E+02  0.41800000000E+01 0. -1.
         -5    1    3    3    0  502  0.61773253420E+02 -0.20305996214E+02 -0.10350487158E+03  0.12230698738E+03  0.41800000000E+01 0. -1.
        -11    1    1    2    0    0  0.23031148970E+02  0.11238428573E+02 -0.57828407602E+02  0.63252358260E+02  0.00000000000E+00 0.  1.
         11    1    1    2    0    0 -0.52748001145E+02 -0.24023583262E+02 -0.29558248768E+02  0.65062848445E+02  0.00000000000E+00 0. -1.
</event>
<event>
 7    1  0.2641580E-009  0.7608170E+02  0.7561462E-02  0.1340554E+00
          2   -1    0    0  501    0  0.00000000000E+00  0.00000000000E+00  0.84054340989E+02  0.84054340989E+02  0.00000000000E+00 0. -1.
         -2   -1    0    0    0  501 -0.00000000000E+00 -0.00000000000E+00 -0.18691220005E+03  0.18691220005E+03  0.00000000000E+00 0.  1.
         25    2    1    2    0    0  0.27248490816E+02 -0.28039307330E+02 -0.29642989093E+01  0.13110660051E+03  0.12510583768E+03 0.  0.
          5    1    3    3  502    0 -0.37819910955E+02 -0.23779314301E+02  0.33760297995E+02  0.56151861714E+02  0.41800000000E+01 0.  1.
         -5    1    3    3    0  502  0.65068401771E+02 -0.42599930283E+01 -0.36724596904E+02  0.74954738792E+02  0.41800000000E+01 0.  1.
        -11    1    1    2    0    0 -0.54001440967E+01  0.16255072626E+02  0.14722623188E+02  0.22586380318E+02  0.00000000000E+00 0. -1.
         11    1    1    2    0    0 -0.21848346719E+02  0.11784234704E+02 -0.11461618334E+03  0.11727356022E+03  0.00000000000E+00 0.  1.
</event>
<event>
 7    1  0.2641580E-009  0.2378332E+03  0.7561462E-02  0.1121245E+00
          1   -1    0    0  501    0  0.00000000000E+00  0.00000000000E+00  0.18724724584E+03  0.18724724584E+03  0.00000000000E+00 0. -1.
         -1   -1    0    0    0  501 -0.00000000000E+00 -0.00000000000E+00 -0.38646533816E+03  0.38646533816E+03  0.00000000000E+00 0.  1.
         25    2    1    2    0    0  0.22892906016E+03 -0.29466458031E+01 -0.60435952329E+01  0.26096195199E+03  0.12508964001E+03 0.  0.
          5    1    3    3  502    0  0.18341522559E+03  0.61235331780E+01 -0.56711038593E+02  0.19212562801E+03  0.41800000000E+01 0.  1.
         -5    1    3    3    0  502  0.45513834566E+02 -0.90701789811E+01  0.50667443360E+02  0.68836323989E+02  0.41800000000E+01 0.  1.
        -11    1    1    2    0    0 -0.12731581723E+03  0.45691922809E+02 -0.96930616993E+02  0.16641097811E+03  0.00000000000E+00 0.  1.
         11    1    1    2    0    0 -0.10161324293E+03 -0.42745277006E+02 -0.96243880098E+02  0.14633965389E+03  0.00000000000E+00 0. -1.
</event>
<event>
 7    1  0.2641580E-009  0.1094208E+03  0.7561462E-02  0.1261646E+00
          2   -1    0    0  501    0  0.00000000000E+00  0.00000000000E+00  0.76791075392E+03  0.76791075392E+03  0.00000000000E+00 0.  1.
         -2   -1    0    0    0  501 -0.00000000000E+00 -0.00000000000E+00 -0.21000013380E+02  0.21000013380E+02  0.00000000000E+00 0. -1.
         25    2    1    2    0    0  0.31320196192E+02 -0.39329341328E+02  0.53951726035E+03  0.55610652480E+03  0.12509133038E+03 0.  0.
          5    1    3    3  502    0 -0.13553829051E+02  0.36112405664E+02  0.26610936912E+03  0.26892281580E+03  0.41800000000E+01 0. -1.
         -5    1    3    3    0  502  0.44874025243E+02 -0.75441746992E+02  0.27340789123E+03  0.28718370900E+03  0.41800000000E+01 0. -1.
        -11    1    1    2    0    0  0.58660996314E+01  0.52416103784E+02  0.17172084150E+03  0.17963826559E+03  0.00000000000E+00 0.  1.
         11    1    1    2    0    0 -0.37186295823E+02 -0.13086762456E+02  0.35672638695E+02  0.53165976903E+02  0.00000000000E+00 0. -1.
</event>
<event>
 7    1  0.2641580E-009  0.1268704E+03  0.7561462E-02  0.1232175E+00
         -1   -1    0    0    0  501 -0.00000000000E+00  0.00000000000E+00  0.29364063570E+03  0.29364063570E+03  0.00000000000E+00 0.  1.
          1   -1    0    0  501    0  0.00000000000E+00 -0.00000000000E+00 -0.63998852292E+02  0.63998852292E+02  0.00000000000E+00 0. -1.
         25    2    1    2    0    0 -0.57383458673E+01 -0.82728688742E+02  0.13194870428E+03  0.19983669069E+03  0.12508907958E+03 0.  0.
          5    1    3    3  502    0  0.40489104737E+02  0.20955955131E+01  0.80683420439E+02  0.90393837493E+02  0.41800000000E+01 0.  1.
         -5    1    3    3    0  502 -0.46227450605E+02 -0.84824284255E+02  0.51265283841E+02  0.10944285320E+03  0.41800000000E+01 0.  1.
        -11    1    1    2    0    0  0.43556358042E+02  0.38881040391E+02  0.76295036215E+02  0.96071973951E+02  0.00000000000E+00 0.  1.
         11    1    1    2    0    0 -0.37818012174E+02  0.43847648351E+02  0.21398042912E+02  0.61730823348E+02  0.00000000000E+00 0. -1.
</event>
<event>
 7    1  0.2641580E-009  0.9039075E+02  0.7561462E-02  0.1301908E+00
         -1   -1    0    0    0  501 -0.00000000000E+00  0.00000000000E+00  0.54447508000E+02  0.54447508000E+02  0.00000000000E+00 0.  1.
          1   -1    0    0  501    0  0.00000000000E+00 -0.00000000000E+00 -0.25510971162E+03  0.25510971162E+03  0.00000000000E+00 0. -1.
         25    2    1    2    0    0 -0.27785851978E+02 -0.14462084721E+02 -0.68458294824E+02  0.14598995220E+03  0.12508126378E+03 0.  0.
          5    1    3    3  502    0 -0.54458539810E+02 -0.27600092481E+02 -0.90143059249E+02  0.10895293109E+03  0.41800000000E+01 0.  1.
         -5    1    3    3    0  502  0.26672687832E+02  0.13138007760E+02  0.21684764425E+02  0.37037021104E+02  0.41800000000E+01 0.  1.
        -11    1    1    2    0    0  0.28675400614E+02 -0.32069464042E+02 -0.93921199248E+02  0.10330498919E+03  0.00000000000E+00 0. -1.
         11    1    1    2    0    0 -0.88954863628E+00  0.46531548762E+02 -0.38282709552E+02  0.60262278231E+02  0.00000000000E+00 0.  1.
</event>
<event>
 7    1  0.2641580E-009  0.3182105E+03  0.7561462E-02  0.1076476E+00
          2   -1    0    0  501    0  0.00000000000E+00  0.00000000000E+00  0.93235420475E+03  0.93235420475E+03  0.00000000000E+00 0. -1.
         -2   -1    0    0    0  501 -0.00000000000E+00 -0.00000000000E+00 -0.14111882888E+03  0.14111882888E+03  0.00000000000E+00 0.  1.
         25    2    1    2    0    0 -0.30595607940E+03  0.30565829850E+02  0.16695562191E+03  0.37157178055E+03  0.12509202985E+03 0.  0.
          5    1    3    3  502    0 -0.31606719353E+03  0.26940345470E+02  0.14961795223E+03  0.35075241563E+03  0.41800000000E+01 0.  1.
         -5    1    3    3    0  502  0.10111114123E+02  0.36254843804E+01  0.17337669675E+02  0.20819364917E+02  0.41800000000E+01 0.  1.
        -11    1    1    2    0    0  0.23687356451E+03 -0.28015866361E+02  0.55474209313E+03  0.60384829571E+03  0.00000000000E+00 0. -1.
         11    1    1    2    0    0  0.69082514895E+02 -0.25499634887E+01  0.69537660825E+02  0.98052957380E+02  0.00000000000E+00 0.  1.
</event>
<event>
 7    1  0.2641580E-009  0.1085636E+03  0.7561462E-02  0.1263253E+00
          2   -1    0    0  501    0  0.00000000000E+00  0.00000000000E+00  0.11016668252E+03  0.11016668252E+03  0.00000000000E+00 0. -1.
         -2   -1    0    0    0  501 -0.00000000000E+00 -0.00000000000E+00 -0.11605767977E+03  0.11605767977E+03  0.00000000000E+00 0.  1.
         25    2    1    2    0    0  0.28364413530E+02 -0.65099959275E+01  0.12852229790E+02  0.12907376027E+03  0.12509170947E+03 0.  0.
          5    1    3    3  502    0  0.31937781265E+02  0.56567573867E+02  0.53685879729E+01  0.65316203366E+02  0.41800000000E+01 0.  1.
         -5    1    3    3    0  502 -0.35733677348E+01 -0.63077569794E+02  0.74836418171E+01  0.63757556909E+02  0.41800000000E+01 0.  1.
        -11    1    1    2    0    0  0.30054044845E+02  0.25848494783E+01 -0.23741720422E+02  0.38387450384E+02  0.00000000000E+00 0.  1.
         11    1    1    2    0    0 -0.58418458375E+02  0.39251464492E+01  0.49984933870E+01  0.58763151632E+02  0.00000000000E+00 0. -1.
</event>
<event>
 7    1  0.2641580E-009  0.5634023E+02  0.7561462E-02  0.1413865E+00
         -2   -1    0    0    0  501 -0.00000000000E+00  0.00000000000E+00  0.81953076012E+02  0.81953076012E+02  0.00000000000E+00 0.  1.
          2   -1    0    0  501    0  0.00000000000E+00 -0.00000000000E+00 -0.17322058272E+03  0.17322058272E+03  0.00000000000E+00 0. -1.
         25    2    1    2    0    0  0.48355761701E+02 -0.12836300379E+02 -0.62480322358E+02  0.14850790825E+03  0.12509099821E+03 0.  0.
          5    1    3    3  502    0  0.18847474835E+02 -0.17064360046E+02 -0.98357072556E+02  0.10167598445E+03  0.41800000000E+01 0.  1.
         -5    1    3    3    0  502  0.29508286866E+02  0.42280596675E+01  0.35876750198E+02  0.46831923803E+02  0.41800000000E+01 0.  1.
        -11    1    1    2    0    0 -0.54503451450E+01  0.12795151960E+02 -0.54768646813E+02  0.56506874357E+02  0.00000000000E+00 0. -1.
         11    1    1    2    0    0 -0.42905416556E+02  0.41148418408E-01  0.25981462459E+02  0.50158876130E+02  0.00000000000E+00 0.  1.
</event>
<event>
 7    1  0.2641580E-009  0.1050071E+03  0.7561462E-02  0.1270106E+00
          3   -1    0    0  501    0  0.00000000000E+00  0.00000000000E+00  0.25377987158E+03  0.25377987158E+03  0.00000000000E+00 0. -1.
         -3   -1    0    0    0  501 -0.00000000000E+00 -0.00000000000E+00 -0.87020966249E+02  0.87020966249E+02  0.00000000000E+00 0.  1.
         25    2    1    2    0    0  0.31516856549E+02  0.73174630148E+02  0.18720717157E+02  0.14948573273E+03  0.12509068828E+03 0.  0.
          5    1    3    3  502    0  0.45581118972E+02  0.70181776664E+02 -0.37141019263E+02  0.91651775184E+02  0.41800000000E+01 0. -1.
         -5    1    3    3    0  502 -0.14064262424E+02  0.29928534838E+01  0.55861736420E+02  0.57833957546E+02  0.41800000000E+01 0. -1.
        -11    1    1    2    0    0 -0.12679881704E+02 -0.86978241156E+02  0.78104747493E+02  0.11758548131E+03  0.00000000000E+00 0.  1.
         11    1    1    2    0    0 -0.18836974845E+02  0.13803611008E+02  0.69933440685E+02  0.73729623790E+02  0.00000000000E+00 0. -1.
</event>
<event>
 7    1  0.2641580E-009  0.9312626E+02  0.7561462E-02  0.1295453E+00
         -2   -1    0    0    0  501 -0.00000000000E+00  0.00000000000E+00  0.25298130789E+03  0.25298130789E+03  0.00000000000E+00 0. -1.
          2   -1    0    0  501    0  0.00000000000E+00 -0.00000000000E+00 -0.46502394320E+02  0.46502394320E+02  0.00000000000E+00 0.  1.
         25    2    1    2    0    0  0.11299589652E+02  0.75091348070E+01  0.86784604435E+02  0.15284730720E+03  0.12508662566E+03 0.  0.
          5    1    3    3  502    0 -0.46359030990E+02  0.37870089780E+00  0.82142171789E+02  0.94414574907E+02  0.41800000000E+01 0. -1.
         -5    1    3    3    0  502  0.57658620641E+02  0.71304339092E+01  0.46424326454E+01  0.58432732290E+02  0.41800000000E+01 0. -1.
        -11    1    1    2    0    0 -0.31462226808E+02 -0.35194089011E+02  0.48765837250E+02  0.67871956651E+02  0.00000000000E+00 0.  1.
         11    1    1    2    0    0  0.20162637156E+02  0.27684954204E+02  0.70928471885E+02  0.78764438361E+02  0.00000000000E+00 0. -1.
</event>
<event>
 7    1  0.2641580E-009  0.1446892E+03  0.7561462E-02  0.1207155E+00
         -1   -1    0    0    0  501 -0.00000000000E+00  0.00000000000E+00  0.25318726197E+03  0.25318726197E+03  0.00000000000E+00 0.  1.
          1   -1    0    0  501    0  0.00000000000E+00 -0.00000000000E+00 -0.10368848134E+03  0.10368848134E+03  0.00000000000E+00 0. -1.
         25    2    1    2    0    0 -0.56153488485E+02  0.28992236172E+02  0.29067062486E+02  0.14312951220E+03  0.12508956437E+03 0.  0.
          5    1    3    3  502    0  0.16824657435E+02  0.35395759699E+02  0.52909115773E+02  0.65975569981E+02  0.41800000000E+01 0.  1.
         -5    1    3    3    0  502 -0.72978145920E+02 -0.64035235269E+01 -0.23842053287E+02  0.77153942222E+02  0.41800000000E+01 0.  1.
        -11    1    1    2    0    0 -0.53726497854E+02  0.18584052255E+02  0.38372204131E+02  0.68588115732E+02  0.00000000000E+00 0.  1.
         11    1    1    2    0    0  0.10987998634E+03 -0.47576288427E+02  0.82059514011E+02  0.14515811537E+03  0.00000000000E+00 0. -1.
</event>
<event>
 7    1  0.2641580E-009  0.9033248E+02  0.7561462E-02  0.1302049E+00
          2   -1    0    0  501    0  0.00000000000E+00  0.00000000000E+00  0.81830406274E+02  0.81830406274E+02  0.00000000000E+00 0. -1.
         -2   -1    0    0    0  501 -0.00000000000E+00 -0.00000000000E+00 -0.16715048210E+03  0.16715048210E+03  0.00000000000E+00 0.  1.
         25    2    1    2    0    0 -0.34208818573E+02  0.24309436619E+02 -0.38364207684E+02  0.13740805608E+03  0.12509184413E+03 0.  0.
          5    1    3    3  502    0  0.34767709454E+01  0.70326372565E+02 -0.31961032730E+02  0.77439438450E+02  0.41800000000E+01 0. -1.
         -5    1    3    3    0  502 -0.37685589518E+02 -0.46016935946E+02 -0.64031749539E+01  0.59968617632E+02  0.41800000000E+01 0. -1.
        -11    1    1    2    0    0  0.26443192947E+02 -0.15876967097E+01 -0.72095369772E+02  0.76808238989E+02  0.00000000000E+00 0.  1.
         11    1    1    2    0    0  0.77656256262E+01 -0.22721739909E+02  0.25139501625E+02  0.34764593307E+02  0.00000000000E+00 0. -1.
</event>
<event>
 7    1  0.2641580E-009  0.1629958E+03  0.7561462E-02  0.1185355E+00
         -3   -1    0    0    0  501 -0.00000000000E+00  0.00000000000E+00  0.25261054015E+03  0.25261054015E+03  0.00000000000E+00 0.  1.
          3   -1    0    0  501    0  0.00000000000E+00 -0.00000000000E+00 -0.12873834696E+03  0.12873834696E+03  0.00000000000E+00 0. -1.
         25    2    1    2    0    0  0.98589488362E+02  0.74906178838E+02 -0.10847033616E+02  0.17633446482E+03  0.12508142349E+03 0.  0.
          5    1    3    3  502    0  0.10118569319E+03  0.10210942724E+03  0.60393225560E+01  0.14394035381E+03  0.41800000000E+01 0. -1.
         -5    1    3    3    0  502 -0.25962048297E+01 -0.27203248406E+02 -0.16886356172E+02  0.32394111010E+02  0.41800000000E+01 0. -1.
        -11    1    1    2    0    0 -0.58214511460E+02  0.11336041623E+02  0.51024756898E+02  0.78236570737E+02  0.00000000000E+00 0.  1.
         11    1    1    2    0    0 -0.40374976902E+02 -0.86242220461E+02  0.83694469915E+02  0.12677785155E+03  0.00000000000E+00 0. -1.
</event>
<event>
 7    1  0.2641580E-009  0.1359375E+03  0.7561462E-02  0.1218902E+00
          3   -1    0    0  501    0  0.00000000000E+00  0.00000000000E+00  0.81178411190E+03  0.81178411190E+03  0.00000000000E+00 0. -1.
         -3   -1    0    0    0  501 -0.00000000000E+00 -0.00000000000E+00 -0.31421591794E+02  0.31421591794E+02  0.00000000000E+00 0.  1.
         25    2    1    2    0    0  0.14576588029E+02 -0.11022918641E+03  0.32113984409E+03  0.36213342291E+03  0.12508743371E+03 0.  0.
          5    1    3    3  502    0 -0.34174372151E+02 -0.10100524121E+03  0.15130593182E+03  0.18515102989E+03  0.41800000000E+01 0. -1.
         -5    1    3    3    0  502  0.48750960180E+02 -0.92239451953E+01  0.16983391227E+03  0.17698239302E+03  0.41800000000E+01 0. -1.
        -11    1    1    2    0    0  0.91415735232E+01  0.46081428242E+02  0.60868846918E+02  0.76890070363E+02  0.00000000000E+00 0.  1.
         11    1    1    2    0    0 -0.23718161552E+02  0.64147758164E+02  0.39835382910E+03  0.40418221043E+03  0.00000000000E+00 0. -1.
</event>
<event>
 7    1  0.2641580E-009  0.8230603E+02  0.7561462E-02  0.1322632E+00
          2   -1    0    0  501    0  0.00000000000E+00  0.00000000000E+00  0.23932666703E+03  0.23932666703E+03  0.00000000000E+00 0. -1.
         -2   -1    0    0    0  501 -0.00000000000E+00 -0.00000000000E+00 -0.55051504929E+02  0.55051504929E+02  0.00000000000E+00 0.  1.
         25    2    1    2    0    0  0.11093577140E+02 -0.24532931452E+02  0.73582602506E+02  0.14760368090E+03  0.12509002776E+03 0.  0.
          5    1    3    3  502    0  0.55351121118E+02 -0.17399246192E+02  0.83244018772E+02  0.10155549930E+03  0.41800000000E+01 0.  1.
         -5    1    3    3    0  502 -0.44257543977E+02 -0.71336852599E+01 -0.96614162658E+01  0.46048181599E+02  0.41800000000E+01 0.  1.
        -11    1    1    2    0    0  0.52611210038E+01 -0.16460918534E+02 -0.87990072180E+01  0.19392363477E+02  0.00000000000E+00 0.  1.
         11    1    1    2    0    0 -0.16354698144E+02  0.40993849986E+02  0.11949156681E+03  0.12738212758E+03  0.00000000000E+00 0. -1.
</event>
<event>
 7    1  0.2641580E-009  0.6866357E+02  0.7561462E-02  0.1364698E+00
         -2   -1    0    0    0  501 -0.00000000000E+00  0.00000000000E+00  0.40711593605E+02  0.40711593605E+02  0.00000000000E+00 0.  1.
          2   -1    0    0  501    0  0.00000000000E+00 -0.00000000000E+00 -0.40833303061E+03  0.40833303061E+03  0.00000000000E+00 0. -1.
         25    2    1    2    0    0 -0.57168153432E+02  0.17028032636E+02 -0.14040986348E+03  0.19727979617E+03  0.12508491735E+03 0.  0.
          5    1    3    3  502    0 -0.42426434770E+02  0.92758721067E+01 -0.16309401506E+03  0.16882883142E+03  0.41800000000E+01 0. -1.
         -5    1    3    3    0  502 -0.14741718661E+02  0.77521605296E+01  0.22684151578E+02  0.28450964743E+02  0.41800000000E+01 0. -1.
        -11    1    1    2    0    0  0.63890410360E+02 -0.67521420382E+01 -0.23030795755E+03  0.23910109006E+03  0.00000000000E+00 0. -1.
         11    1    1    2    0    0 -0.67222569281E+01 -0.10275890598E+02  0.30963840274E+01  0.12663737988E+02  0.00000000000E+00 0.  1.
</event>
<event>
 7    1  0.2641580E-009  0.1165914E+03  0.7561462E-02  0.1248828E+00
          2   -1    0    0  501    0  0.00000000000E+00  0.00000000000E+00  0.11701525134E+04  0.11701525134E+04  0.00000000000E+00 0. -1.
         -2   -1    0    0    0  501 -0.00000000000E+00 -0.00000000000E+00 -0.17479312759E+02  0.17479312759E+02  0.00000000000E+00 0.  1.
         25    2    1    2    0    0  0.56777826583E+02  0.57822492859E+02  0.81540995345E+03  0.82892029837E+03  0.12509319164E+03 0.  0.
          5    1    3    3  502    0  0.69310294364E+02  0.79155337290E+02  0.76887472104E+03  0.77605108942E+03  0.41800000000E+01 0. -1.
         -5    1    3    3    0  502 -0.12532467782E+02 -0.21332844431E+02  0.46535232408E+02  0.52869208954E+02  0.41800000000E+01 0. -1.
        -11    1    1    2    0    0 -0.70854529285E+02 -0.46770702306E+02  0.32749876481E+03  0.33832425847E+03  0.00000000000E+00 0. -1.
         11    1    1    2    0    0  0.14076702702E+02 -0.11051790553E+02  0.97644823406E+01  0.20387269282E+02  0.00000000000E+00 0.  1.
</event>
<event>
 7    1  0.2641580E-009  0.8761297E+02  0.7561462E-02  0.1308737E+00
          1   -1    0    0  501    0  0.00000000000E+00  0.00000000000E+00  0.16641644892E+04  0.16641644892E+04  0.00000000000E+00 0.  1.
         -1   -1    0    0    0  501 -0.00000000000E+00 -0.00000000000E+00 -0.14336946619E+02  0.14336946619E+02  0.00000000000E+00 0. -1.
         25    2    1    2    0    0  0.65873822321E+02  0.15929752549E+02  0.13448897664E+04  0.13523934757E+04  0.12508601765E+03 0.  0.
          5    1    3    3  502    0  0.15069862511E+02  0.32089576453E+01  0.16478517739E+02  0.22943672595E+02  0.41800000000E+01 0. -1.
         -5    1    3    3    0  502  0.50803959811E+02  0.12720794904E+02  0.13284112487E+04  0.13294498031E+04  0.41800000000E+01 0.  1.
        -11    1    1    2    0    0  0.99122390786E+00 -0.36694079815E+02  0.17185308744E+03  0.17572968355E+03  0.00000000000E+00 0.  1.
         11    1    1    2    0    0 -0.66865046229E+02  0.20764327266E+02  0.13308468880E+03  0.15037827664E+03  0.00000000000E+00 0. -1.
</event>
<event>
 7    1  0.2641580E-009  0.1168818E+03  0.7561462E-02  0.1248332E+00
          3   -1    0    0  501    0  0.00000000000E+00  0.00000000000E+00  0.51837520303E+03  0.51837520303E+03  0.00000000000E+00 0. -1.
         -3   -1    0    0    0  501 -0.00000000000E+00 -0.00000000000E+00 -0.35907681597E+02  0.35907681597E+02  0.00000000000E+00 0.  1.
         25    2    1    2    0    0  0.78152172436E+02  0.43138527187E+01  0.20693058793E+03  0.25415607496E+03  0.12509464752E+03 0.  0.
          5    1    3    3  502    0  0.56407530240E+02  0.42436414839E+02  0.39453541384E+02  0.80973533330E+02  0.41800000000E+01 0.  1.
         -5    1    3    3    0  502  0.21744642196E+02 -0.38122562120E+02  0.16747704655E+03  0.17318254163E+03  0.41800000000E+01 0.  1.
        -11    1    1    2    0    0 -0.38006469201E+02  0.42685897088E+02  0.13445795754E+03  0.14610106042E+03  0.00000000000E+00 0. -1.
         11    1    1    2    0    0 -0.40145703235E+02 -0.46999749807E+02  0.14107897596E+03  0.15402574924E+03  0.00000000000E+00 0.  1.
</event>
<event>
 7    1  0.2641580E-009  0.1091182E+03  0.7561462E-02  0.1262212E+00
          4   -1    0    0  501    0  0.00000000000E+00  0.00000000000E+00  0.39989157679E+02  0.39989157679E+02  0.00000000000E+00 0. -1.
         -4   -1    0    0    0  501 -0.00000000000E+00 -0.00000000000E+00 -0.48247632234E+03  0.48247632234E+03  0.00000000000E+00 0.  1.
         25    2    1    2    0    0 -0.76302630154E+02 -0.24313373100E+02 -0.20093098883E+03  0.24987098557E+03  0.12509602582E+03 0.  0.
          5    1    3    3  502    0 -0.37293301682E+02 -0.50341311885E+02 -0.19192642062E+03  0.20193628046E+03  0.41800000000E+01 0.  1.
         -5    1    3    3    0  502 -0.39009328472E+02  0.26027938785E+02 -0.90045682108E+01  0.47934705109E+02  0.41800000000E+01 0.  1.
        -11    1    1    2    0    0  0.44754189343E+02 -0.23908803182E+02 -0.45185753807E+02  0.67943510951E+02  0.00000000000E+00 0. -1.
         11    1    1    2    0    0  0.31548440811E+02  0.48222176281E+02 -0.19637042202E+03  0.20465098350E+03  0.00000000000E+00 0.  1.
</event>
<event>
 7    1  0.2641580E-009  0.9973642E+02  0.7561462E-02  0.1280851E+00
          4   -1    0    0  501    0  0.00000000000E+00  0.00000000000E+00  0.28017667334E+03  0.28017667334E+03  0.00000000000E+00 0. -1.
         -4   -1    0    0    0  501 -0.00000000000E+00 -0.00000000000E+00 -0.71497799466E+02  0.71497799466E+02  0.00000000000E+00 0.  1.
         25    2    1    2    0    0  0.12414126598E+01 -0.59937586436E+02  0.30837662701E+02  0.14209862667E+03  0.12508798059E+03 0.  0.
          5    1    3    3  502    0  0.54048772230E+02 -0.65975254700E+02  0.18315100729E+02  0.87332235326E+02  0.41800000000E+01 0. -1.
         -5    1    3    3    0  502 -0.52807359571E+02  0.60376682637E+01  0.12522561972E+02  0.54766391347E+02  0.41800000000E+01 0. -1.
        -11    1    1    2    0    0  0.42867804430E+01  0.32197425525E+02  0.17835194517E+03  0.18128559524E+03  0.00000000000E+00 0. -1.
         11    1    1    2    0    0 -0.55281931029E+01  0.27740160911E+02 -0.51073399179E+00  0.28290250893E+02  0.00000000000E+00 0.  1.
</event>
<event>
 7    1  0.2641580E-009  0.1063369E+03  0.7561462E-02  0.1267508E+00
         -2   -1    0    0    0  501 -0.00000000000E+00  0.00000000000E+00  0.36479487351E+02  0.36479487351E+02  0.00000000000E+00 0. -1.
          2   -1    0    0  501    0  0.00000000000E+00 -0.00000000000E+00 -0.34855108142E+03  0.34855108142E+03  0.00000000000E+00 0.  1.
         25    2    1    2    0    0 -0.20110531434E+02 -0.44688156697E+00 -0.16877154432E+03  0.21103580085E+03  0.12509053477E+03 0.  0.
          5    1    3    3  502    0 -0.50783405430E+02 -0.47946067424E+02 -0.90748190609E+02  0.11458833338E+03  0.41800000000E+01 0.  1.
         -5    1    3    3    0  502  0.30672873996E+02  0.47499185857E+02 -0.78023353714E+02  0.96447467468E+02  0.41800000000E+01 0.  1.
        -11    1    1    2    0    0 -0.22267917758E+02 -0.27396326685E+02 -0.19771499493E+02  0.40463947772E+02  0.00000000000E+00 0. -1.
         11    1    1    2    0    0  0.42378449192E+02  0.27843208252E+02 -0.12352855025E+03  0.13353082014E+03  0.00000000000E+00 0.  1.
</event>
<event>
 7    1  0.2641580E-009  0.8937441E+02  0.7561462E-02  0.1304374E+00
          1   -1    0    0  501    0  0.00000000000E+00  0.00000000000E+00  0.47730763387E+02  0.47730763387E+02  0.00000000000E+00 0. -1.
         -1   -1    0    0    0  501 -0.00000000000E+00 -0.00000000000E+00 -0.35663509489E+03  0.35663509489E+03  0.00000000000E+00 0.  1.
         25    2    1    2    0    0  0.42404938612E+02  0.25632367583E+02 -0.88798608198E+02  0.16121036987E+03  0.12509353880E+03 0.  0.
          5    1    3    3  502    0 -0.13839363947E+02 -0.80366123839E+01 -0.93883133427E+02  0.95329063119E+02  0.41800000000E+01 0. -1.
         -5    1    3    3    0  502  0.56244302559E+02  0.33668979967E+02  0.50845252294E+01  0.65881306750E+02  0.41800000000E+01 0. -1.
        -11    1    1    2    0    0 -0.65487708721E+01  0.29796788265E+02 -0.11549521677E+03  0.11945660337E+03  0.00000000000E+00 0.  1.
         11    1    1    2    0    0 -0.35856167740E+02 -0.55429155848E+02 -0.10461050653E+03  0.12369888504E+03  0.00000000000E+00 0. -1.
</event>
<event>
 7    1  0.2641580E-009  0.2218406E+03  0.7561462E-02  0.1132518E+00
          1   -1    0    0  501    0  0.00000000000E+00  0.00000000000E+00  0.65079092201E+02  0.65079092201E+02  0.00000000000E+00 0. -1.
         -1   -1    0    0    0  501 -0.00000000000E+00 -0.00000000000E+00 -0.82349888190E+03  0.82349888190E+03  0.00000000000E+00 0.  1.
         25    2    1    2    0    0 -0.20296275895E+03  0.11930665281E+02 -0.35271647237E+03  0.42590307514E+03  0.12509315424E+03 0.  0.
          5    1    3    3  502    0 -0.19127881199E+03  0.50602075928E+02 -0.28594807385E+03  0.34775268129E+03  0.41800000000E+01 0. -1.
         -5    1    3    3    0  502 -0.11683946955E+02 -0.38671410647E+02 -0.66768398518E+02  0.78150393847E+02  0.41800000000E+01 0. -1.
        -11    1    1    2    0    0  0.12221912842E+03  0.63256829319E+01 -0.32408904387E+03  0.34642638175E+03  0.00000000000E+00 0.  1.
         11    1    1    2    0    0  0.80743630534E+02 -0.18256348213E+02 -0.81614273462E+02  0.11624851721E+03  0.00000000000E+00 0. -1.
</event>
<event>
 7    1  0.2641580E-009  0.1304109E+03  0.7561462E-02  0.1226847E+00
          2   -1    0    0  501    0  0.00000000000E+00  0.00000000000E+00  0.60226034578E+03  0.60226034578E+03  0.00000000000E+00 0.  1.
         -2   -1    0    0    0  501 -0.00000000000E+00 -0.00000000000E+00 -0.32391062953E+02  0.32391062953E+02  0.00000000000E+00 0. -1.
         25    2    1    2    0    0 -0.73099513548E+02 -0.36279837493E+02  0.25334282472E+03  0.29409176983E+03  0.12509043431E+03 0.  0.
          5    1    3    3  502    0 -0.77276069573E+02  0.19797567944E+02  0.85405542929E+02  0.11694064216E+03  0.41800000000E+01 0.  1.
         -5    1    3    3    0  502  0.41765560249E+01 -0.56077405437E+02  0.16793728179E+03  0.17715112767E+03  0.41800000000E+01 0.  1.
        -11    1    1    2    0    0 -0.64687990296E+01  0.44126817190E+02  0.92431611144E+02  0.10262857348E+03  0.00000000000E+00 0. -1.
         11    1    1    2    0    0  0.79568312578E+02 -0.78469796969E+01  0.22409484697E+03  0.23793106543E+03  0.00000000000E+00 0.  1.
</event>
<event>
 7    1  0.2641580E-009  0.1179030E+03  0.7561462E-02  0.1246597E+00
         -4   -1    0    0    0  501 -0.00000000000E+00  0.00000000000E+00  0.18123590226E+02  0.18123590226E+02  0.00000000000E+00 0. -1.
          4   -1    0    0  501    0  0.00000000000E+00 -0.00000000000E+00 -0.10360279907E+04  0.10360279907E+04  0.00000000000E+00 0.  1.
         25    2    1    2    0    0  0.73353538060E+02  0.17765994884E+02 -0.44750337544E+03  0.47075053810E+03  0.12510166255E+03 0.  0.
          5    1    3    3  502    0  0.77828287845E+02 -0.17144135299E+02 -0.41518483766E+03  0.42278491646E+03  0.41800000000E+01 0. -1.
         -5    1    3    3    0  502 -0.44747497853E+01  0.34910130183E+02 -0.32318537774E+02  0.47965621635E+02  0.41800000000E+01 0. -1.
        -11    1    1    2    0    0 -0.50191733969E+02  0.36165764750E+02 -0.34380468184E+03  0.34932625432E+03  0.00000000000E+00 0.  1.
         11    1    1    2    0    0 -0.23161804090E+02 -0.53931759635E+02 -0.22659634315E+03  0.23407478847E+03  0.00000000000E+00 0. -1.
</event>
<event>
 7    1  0.2641580E-009  0.1033105E+03  0.7561462E-02  0.1273484E+00
         -2   -1    0    0    0  501 -0.00000000000E+00  0.00000000000E+00  0.83731751810E+02  0.83731751810E+02  0.00000000000E+00 0.  1.
          2   -1    0    0  501    0  0.00000000000E+00 -0.00000000000E+00 -0.21096552652E+03  0.21096552652E+03  0.00000000000E+00 0. -1.
         25    2    1    2    0    0  0.20557805062E+02  0.43905167922E+02 -0.42049968611E+01  0.13422305697E+03  0.12509140620E+03 0.  0.
          5    1    3    3  502    0  0.20312627590E+02  0.78431147545E+02 -0.34444698146E+02  0.88136016334E+02  0.41800000000E+01 0. -1.
         -5    1    3    3    0  502  0.24517747223E+00 -0.34525979623E+02  0.30239701285E+02  0.46087040638E+02  0.41800000000E+01 0. -1.
        -11    1    1    2    0    0  0.25271791558E+02  0.26222092663E+01 -0.54649977433E+01  0.25988567300E+02  0.00000000000E+00 0.  1.
         11    1    1    2    0    0 -0.45829596621E+02 -0.46527377188E+02 -0.11756378010E+03  0.13448565406E+03  0.00000000000E+00 0. -1.
</event>
<event>
 7    1  0.2641580E-009  0.6717148E+02  0.7561462E-02  0.1369985E+00
          1   -1    0    0  501    0  0.00000000000E+00  0.00000000000E+00  0.21567787019E+03  0.21567787019E+03  0.00000000000E+00 0. -1.
         -1   -1    0    0    0  501 -0.00000000000E+00 -0.00000000000E+00 -0.64025866389E+02  0.64025866389E+02  0.00000000000E+00 0.  1.
         25    2    1    2    0    0  0.33171390865E+02  0.10833273935E+01  0.54347683342E+02  0.14035903444E+03  0.12508186557E+03 0.  0.
          5    1    3    3  502    0  0.41721516959E+02  0.16828751861E+02 -0.29865147379E+02  0.54159867934E+02  0.41800000000E+01 0. -1.
         -5    1    3    3    0  502 -0.85501260943E+01 -0.15745424467E+02  0.84212830722E+02  0.86199166504E+02  0.41800000000E+01 0. -1.
        -11    1    1    2    0    0 -0.38526016294E+02  0.23817110180E+02  0.73898206120E+01  0.45892462534E+02  0.00000000000E+00 0.  1.
         11    1    1    2    0    0  0.53546254284E+01 -0.24900437574E+02  0.89914499845E+02  0.93452239605E+02  0.00000000000E+00 0. -1.
</event>
<event>
 7    1  0.2641580E-009  0.1276486E+03  0.7561462E-02  0.1230987E+00
          1   -1    0    0  501    0  0.00000000000E+00  0.00000000000E+00  0.68786217460E+02  0.68786217460E+02  0.00000000000E+00 0. -1.
         -1   -1    0    0    0  501 -0.00000000000E+00 -0.00000000000E+00 -0.48863489875E+03  0.48863489875E+03  0.00000000000E+00 0.  1.
         25    2    1    2    0    0 -0.97216681873E+02  0.27277570030E+02 -0.58468796277E+02  0.17106110611E+03  0.12509257701E+03 0.  0.
          5    1    3    3  502    0 -0.48202956203E+02 -0.23321647267E+02 -0.80816688577E+02  0.97037280312E+02  0.41800000000E+01 0. -1.
         -5    1    3    3    0  502 -0.49013725670E+02  0.50599217296E+02  0.22347892300E+02  0.74023825795E+02  0.41800000000E+01 0. -1.
        -11    1    1    2    0    0  0.96212526409E+02  0.72394459971E+01 -0.30822292136E+03  0.32297156077E+03  0.00000000000E+00 0. -1.
         11    1    1    2    0    0  0.10041554638E+01 -0.34517016027E+02 -0.53156963653E+02  0.63388449330E+02  0.00000000000E+00 0.  1.
</event>
<event>
 7    1  0.3775205E-009  0.8324472E+02  0.7561462E-02  0.1320088E+00
          1   -1    0    0  501    0  0.00000000000E+00  0.00000000000E+00  0.61408298865E+03  0.61408298865E+03  0.00000000000E+00 0. -1.
         -1   -1    0    0    0  501 -0.00000000000E+00 -0.00000000000E+00 -0.24565052821E+02  0.24565052821E+02  0.00000000000E+00 0.  1.
         25    2    1    2    0    0 -0.55964244076E+02 -0.10578825683E+02  0.34094548625E+03  0.36760743489E+03  0.12508994135E+03 0.  0.
          5    1    3    3  502    0  0.94865343007E+01 -0.66582773130E+01  0.27233101447E+03  0.27260957582E+03  0.41800000000E+01 0.  1.
         -5    1    3    3    0  502 -0.65450778376E+02 -0.39205483704E+01  0.68614471781E+02  0.94997859067E+02  0.41800000000E+01 0.  1.
        -11    1    1    2    0    0  0.92489307414E+00 -0.23640042998E+02  0.13587963649E+02  0.27282591817E+02  0.00000000000E+00 0.  1.
         11    1    1    2    0    0  0.55039351002E+02  0.34218868681E+02  0.23498448594E+03  0.24375801477E+03  0.00000000000E+00 0. -1.
</event>
<event>
 7    1  0.2641580E-009  0.1014108E+03  0.7561462E-02  0.1277357E+00
          2   -1    0    0  501    0  0.00000000000E+00  0.00000000000E+00  0.89434621515E+02  0.89434621515E+02  0.00000000000E+00 0. -1.
         -2   -1    0    0    0  501 -0.00000000000E+00 -0.00000000000E+00 -0.19243902999E+03  0.19243902999E+03  0.00000000000E+00 0.  1.
         25    2    1    2    0    0 -0.54242578697E+02 -0.25232738391E+02 -0.89920464520E+02  0.16526151134E+03  0.12508688484E+03 0.  0.
          5    1    3    3  502    0 -0.80922611515E+01  0.20566302720E+02 -0.97139900625E+02  0.99710030547E+02  0.41800000000E+01 0.  1.
         -5    1    3    3    0  502 -0.46150317545E+02 -0.45799041110E+02  0.72194361057E+01  0.65551480791E+02  0.41800000000E+01 0.  1.
        -11    1    1    2    0    0  0.40496369833E+02  0.63051669198E+02 -0.23846721349E+01  0.74974366416E+02  0.00000000000E+00 0.  1.
         11    1    1    2    0    0  0.13746208864E+02 -0.37818930807E+02 -0.10699271820E+02  0.41637773752E+02  0.00000000000E+00 0. -1.
</event>
<event>
 7    1  0.2641580E-009  0.9008643E+02  0.7561462E-02  0.1302643E+00
          2   -1    0    0  501    0  0.00000000000E+00  0.00000000000E+00  0.58938647349E+03  0.58938647349E+03  0.00000000000E+00 0. -1.
         -2   -1    0    0    0  501 -0.00000000000E+00 -0.00000000000E+00 -0.25070956209E+02  0.25070956209E+02  0.00000000000E+00 0.  1.
         25    2    1    2    0    0 -0.22550132610E+02 -0.16053335807E+02  0.23162007360E+03  0.26469663452E+03  0.12510088633E+03 0.  0.
          5    1    3    3  502    0  0.21855708228E+02  0.10994943432E+02  0.20431948781E+03  0.20582149125E+03  0.41800000000E+01 0.  1.
         -5    1    3    3    0  502 -0.44405840838E+02 -0.27048279239E+02  0.27300585793E+02  0.58875143269E+02  0.41800000000E+01 0.  1.
        -11    1    1    2    0    0 -0.23683342646E+02 -0.29806248832E+02  0.76915356650E+02  0.85821240243E+02  0.00000000000E+00 0.  1.
         11    1    1    2    0    0  0.46233475256E+02  0.45859584639E+02  0.25578008704E+03  0.26393955494E+03  0.00000000000E+00 0. -1.
</event>
<event>
 7    1  0.2641580E-009  0.9299953E+02  0.7561462E-02  0.1295746E+00
          1   -1    0    0  501    0  0.00000000000E+00  0.00000000000E+00  0.27904944170E+03  0.27904944170E+03  0.00000000000E+00 0. -1.
         -1   -1    0    0    0  501 -0.00000000000E+00 -0.00000000000E+00 -0.48011407047E+02  0.48011407047E+02  0.00000000000E+00 0.  1.
         25    2    1    2    0    0 -0.15489129031E+02 -0.20755442945E+02  0.17759818527E+03  0.21877360349E+03  0.12510025038E+03 0.  0.
          5    1    3    3  502    0  0.51163072229E+02 -0.30699922301E+02  0.74612533338E+02  0.95627651442E+02  0.41800000000E+01 0.  1.
         -5    1    3    3    0  502 -0.66652201261E+02  0.99444793563E+01  0.10298565193E+03  0.12314595205E+03  0.41800000000E+01 0.  1.
        -11    1    1    2    0    0 -0.12905059464E+02  0.26701261681E+02  0.69189680207E+02  0.75277551649E+02  0.00000000000E+00 0. -1.
         11    1    1    2    0    0  0.28394188495E+02 -0.59458187360E+01 -0.15749830827E+02  0.33009693604E+02  0.00000000000E+00 0.  1.
</event>
<event>
 7    1  0.2641580E-009  0.1190109E+03  0.7561462E-02  0.1244738E+00
          1   -1    0    0  501    0  0.00000000000E+00  0.00000000000E+00  0.70404746707E+02  0.70404746707E+02  0.00000000000E+00 0. -1.
         -1   -1    0    0    0  501 -0.00000000000E+00 -0.00000000000E+00 -0.28326275548E+03  0.28326275548E+03  0.00000000000E+00 0.  1.
         25    2    1    2    0    0  0.45121512709E+02 -0.59855868212E+02 -0.17062797494E+03  0.22445399771E+03  0.12508803055E+03 0.  0.
          5    1    3    3  502    0  0.86469553788E+02 -0.24985905771E+02 -0.12150372605E+03  0.15126766695E+03  0.41800000000E+01 0.  1.
         -5    1    3    3    0  502 -0.41348041079E+02 -0.34869962441E+02 -0.49124248885E+02  0.73186330761E+02  0.41800000000E+01 0.  1.
        -11    1    1    2    0    0 -0.51245739619E+01  0.52806349756E+02  0.18471838101E+02  0.56178115273E+02  0.00000000000E+00 0. -1.
         11    1    1    2    0    0 -0.39996938747E+02  0.70495184562E+01 -0.60701871937E+02  0.73035389205E+02  0.00000000000E+00 0.  1.
</event>
<event>
 7    1  0.2641580E-009  0.1779190E+03  0.7561462E-02  0.1169832E+00
          1   -1    0    0  501    0  0.00000000000E+00  0.00000000000E+00  0.46283593883E+03  0.46283593883E+03  0.00000000000E+00 0. -1.
         -1   -1    0    0    0  501 -0.00000000000E+00 -0.00000000000E+00 -0.89826966336E+02  0.89826966336E+02  0.00000000000E+00 0.  1.
         25    2    1    2    0    0 -0.60907509687E+02  0.14568017661E+03  0.26663627756E+03  0.33417758468E+03  0.12508922814E+03 0.  0.
          5    1    3    3  502    0 -0.86538997864E+02  0.57483092654E+02  0.10225768253E+03  0.14583350139E+03  0.41800000000E+01 0.  1.
         -5    1    3    3    0  502  0.25631488177E+02  0.88197083955E+02  0.16437859503E+03  0.18834408329E+03  0.41800000000E+01 0.  1.
        -11    1    1    2    0    0  0.12648750449E+02 -0.62405839873E+02 -0.13159545667E+02  0.65020407414E+02  0.00000000000E+00 0.  1.
         11    1    1    2    0    0  0.48258759238E+02 -0.83274336736E+02  0.11953224060E+03  0.15346491307E+03  0.00000000000E+00 0. -1.
</event>
<event>
 7    1  0.2641580E-009  0.1313714E+03  0.7561462E-02  0.1225435E+00
          1   -1    0    0  501    0  0.00000000000E+00  0.00000000000E+00  0.61181785319E+03  0.61181785319E+03  0.00000000000E+00 0. -1.
         -1   -1    0    0    0  501 -0.00000000000E+00 -0.00000000000E+00 -0.35917652499E+02  0.35917652499E+02  0.00000000000E+00 0.  1.
         25    2    1    2    0    0  0.70398653532E+02  0.69070861158E+02  0.26715150847E+03  0.31103772698E+03  0.12509110619E+03 0.  0.
          5    1    3    3  502    0  0.52060515482E+02  0.10242204577E+03  0.15827458224E+03  0.19562435563E+03  0.41800000000E+01 0.  1.
         -5    1    3    3    0  502  0.18338138050E+02 -0.33351184608E+02  0.10887692623E+03  0.11541337136E+03  0.41800000000E+01 0.  1.
        -11    1    1    2    0    0 -0.30232951282E+02 -0.61614076670E+02  0.84993371092E+02  0.10924375917E+03  0.00000000000E+00 0.  1.
         11    1    1    2    0    0 -0.40165702250E+02 -0.74567844876E+01  0.22375532112E+03  0.22745401953E+03  0.00000000000E+00 0. -1.
</event>
<event>
 7    1  0.2737113E-009  0.6872110E+02  0.7561462E-02  0.1364497E+00
         -2   -1    0    0    0  501 -0.00000000000E+00  0.00000000000E+00  0.18927006352E+02  0.18927006352E+02  0.00000000000E+00 0.  1.
          2   -1    0    0  501    0  0.00000000000E+00 -0.00000000000E+00 -0.93358418421E+03  0.93358418421E+03  0.00000000000E+00 0. -1.
         25    2    1    2    0    0  0.11500511607E+02 -0.32033606839E+02 -0.74943938868E+03  0.76056886299E+03  0.12508870581E+03 0.  0.
          5    1    3    3  502    0 -0.33393548239E+02 -0.37460316361E+02 -0.12916667276E+03  0.13863587602E+03  0.41800000000E+01 0. -1.
         -5    1    3    3    0  502  0.44894059846E+02  0.54267095216E+01 -0.62027271591E+03  0.62193298698E+03  0.41800000000E+01 0. -1.
        -11    1    1    2    0    0  0.78569971619E+00  0.29006898515E+02 -0.17408775200E+03  0.17648955460E+03  0.00000000000E+00 0. -1.
         11    1    1    2    0    0 -0.12286211323E+02  0.30267083243E+01  0.88699628206E+01  0.15452772968E+02  0.00000000000E+00 0.  1.
</event>
<event>
 7    1  0.2641580E-009  0.1191910E+03  0.7561462E-02  0.1244438E+00
         -1   -1    0    0    0  501 -0.00000000000E+00  0.00000000000E+00  0.29875301318E+02  0.29875301318E+02  0.00000000000E+00 0.  1.
          1   -1    0    0  501    0  0.00000000000E+00 -0.00000000000E+00 -0.56421865675E+03  0.56421865675E+03  0.00000000000E+00 0. -1.
         25    2    1    2    0    0  0.79188379547E+01 -0.67012850746E+02 -0.25664009392E+03  0.29336827255E+03  0.12508946949E+03 0.  0.
          5    1    3    3  502    0  0.48859272176E+02 -0.84271956941E+02 -0.17687611867E+03  0.20196936639E+03  0.41800000000E+01 0.  1.
         -5    1    3    3    0  502 -0.40940434222E+02  0.17259106194E+02 -0.79763975243E+02  0.91398906161E+02  0.41800000000E+01 0.  1.
        -11    1    1    2    0    0 -0.38425135683E+02  0.34035948513E+02 -0.62471048763E+02  0.80855233454E+02  0.00000000000E+00 0.  1.
         11    1    1    2    0    0  0.30506297728E+02  0.32976902234E+02 -0.21523221275E+03  0.21987045206E+03  0.00000000000E+00 0. -1.
</event>
<event>
 7    1  0.2641580E-009  0.1250390E+03  0.7561462E-02  0.1235008E+00
          3   -1    0    0  501    0  0.00000000000E+00  0.00000000000E+00  0.69208919974E+03  0.69208919974E+03  0.00000000000E+00 0. -1.
         -3   -1    0    0    0  501 -0.00000000000E+00 -0.00000000000E+00 -0.25194098500E+02  0.25194098500E+02  0.00000000000E+00 0.  1.
         25    2    1    2    0    0 -0.52384562072E+02 -0.44308565135E+02  0.43686071398E+03  0.45956635003E+03  0.12508619177E+03 0.  0.
          5    1    3    3  502    0 -0.75555929939E+02 -0.70977723255E+02  0.27693033959E+03  0.29572693677E+03  0.41800000000E+01 0. -1.
         -5    1    3    3    0  502  0.23171367866E+02  0.26669158120E+02  0.15993037439E+03  0.16383941326E+03  0.41800000000E+01 0. -1.
        -11    1    1    2    0    0 -0.19400257187E+02  0.32718947276E+02  0.45090568261E+02  0.58992023494E+02  0.00000000000E+00 0.  1.
         11    1    1    2    0    0  0.71784819259E+02  0.11589617859E+02  0.18494381900E+03  0.19872492472E+03  0.00000000000E+00 0. -1.
</event>
<event>
 7    1  0.2641580E-009  0.1226944E+03  0.7561462E-02  0.1238717E+00
         -4   -1    0    0    0  501 -0.00000000000E+00  0.00000000000E+00  0.10858791382E+04  0.10858791382E+04  0.00000000000E+00 0.  1.
          4   -1    0    0  501    0  0.00000000000E+00 -0.00000000000E+00 -0.21066358540E+02  0.21066358540E+02  0.00000000000E+00 0. -1.
         25    2    1    2    0    0 -0.73220983880E+02  0.51283867696E+02  0.75991148915E+03  0.77530957209E+03  0.12509242054E+03 0.  0.
          5    1    3    3  502    0 -0.96137100297E+02  0.49927248005E+01  0.58500897521E+03  0.59289142584E+03  0.41800000000E+01 0. -1.
         -5    1    3    3    0  502  0.22916116416E+02  0.46291142896E+02  0.17490251394E+03  0.18241814626E+03  0.41800000000E+01 0. -1.
        -11    1    1    2    0    0  0.45386956877E+02 -0.52437656527E+02  0.29342047014E+03  0.30150498499E+03  0.00000000000E+00 0.  1.
         11    1    1    2    0    0  0.27834027004E+02  0.11537888309E+01  0.11480820364E+02  0.30130939649E+02  0.00000000000E+00 0. -1.
</event>
<event>
 7    1  0.2839758E-009  0.1126287E+03  0.7561462E-02  0.1255778E+00
         -1   -1    0    0    0  501 -0.00000000000E+00  0.00000000000E+00  0.17034757535E+02  0.17034757535E+02  0.00000000000E+00 0.  1.
          1   -1    0    0  501    0  0.00000000000E+00 -0.00000000000E+00 -0.80439148278E+03  0.80439148278E+03  0.00000000000E+00 0. -1.
         25    2    1    2    0    0 -0.19819188256E+02  0.24930849317E+02 -0.55691928905E+03  0.57168335937E+03  0.12509365050E+03 0.  0.
          5    1    3    3  502    0  0.50674919119E+02  0.28460333250E+02 -0.24001286128E+03  0.24698498735E+03  0.41800000000E+01 0.  1.
         -5    1    3    3    0  502 -0.70494107375E+02 -0.35294839334E+01 -0.31690642776E+03  0.32469837202E+03  0.41800000000E+01 0.  1.
        -11    1    1    2    0    0  0.14603185841E+02 -0.59527965992E+02 -0.14643443876E+03  0.15874469008E+03  0.00000000000E+00 0. -1.
         11    1    1    2    0    0  0.52160024150E+01  0.34597116675E+02 -0.84002997438E+02  0.90998190872E+02  0.00000000000E+00 0.  1.
</event>
<event>
 7    1  0.2641580E-009  0.7978205E+02  0.7561462E-02  0.1329671E+00
          2   -1    0    0  501    0  0.00000000000E+00  0.00000000000E+00  0.22682661583E+03  0.22682661583E+03  0.00000000000E+00 0. -1.
         -2   -1    0    0    0  501 -0.00000000000E+00 -0.00000000000E+00 -0.66514207683E+02  0.66514207683E+02  0.00000000000E+00 0.  1.
         25    2    1    2    0    0  0.13032252340E+02  0.31462171722E+01  0.14871880302E+03  0.19479246662E+03  0.12508830639E+03 0.  0.
          5    1    3    3  502    0 -0.46319043204E+02 -0.75916784864E-01  0.15781246960E+02  0.49111909780E+02  0.41800000000E+01 0. -1.
         -5    1    3    3    0  502  0.59351295544E+02  0.32221339571E+01  0.13293755606E+03  0.14568055684E+03  0.41800000000E+01 0. -1.
        -11    1    1    2    0    0 -0.77136119114E+01 -0.27490798343E+02  0.47154805212E+02  0.55125488269E+02  0.00000000000E+00 0. -1.
         11    1    1    2    0    0 -0.53186404287E+01  0.24344581171E+02 -0.35561200083E+02  0.43422868627E+02  0.00000000000E+00 0.  1.
</event>
<event>
 7    1  0.2641580E-009  0.1221804E+03  0.7561462E-02  0.1239543E+00
         -2   -1    0    0    0  501 -0.00000000000E+00  0.00000000000E+00  0.69472198379E+02  0.69472198379E+02  0.00000000000E+00 0. -1.
          2   -1    0    0  501    0  0.00000000000E+00 -0.00000000000E+00 -0.31897061926E+03  0.31897061926E+03  0.00000000000E+00 0.  1.
         25    2    1    2    0    0  0.37103022631E+02 -0.65164988138E+02 -0.44860159008E+02  0.15258172406E+03  0.12508252750E+03 0.  0.
          5    1    3    3  502    0 -0.29873101443E+02  0.12596035339E+02  0.12429185099E+02  0.34971693386E+02  0.41800000000E+01 0. -1.
         -5    1    3    3    0  502  0.66976124074E+02 -0.77761023477E+02 -0.57289344106E+02  0.11761003068E+03  0.41800000000E+01 0. -1.
        -11    1    1    2    0    0  0.13102845074E+02  0.56514000789E+02 -0.64507416661E+02  0.86756692182E+02  0.00000000000E+00 0. -1.
         11    1    1    2    0    0 -0.50205867705E+02  0.86509873491E+01 -0.14013084521E+03  0.14910440139E+03  0.00000000000E+00 0.  1.
</event>
<event>
 7    1  0.2641580E-009  0.1586967E+03  0.7561462E-02  0.1190176E+00
         -2   -1    0    0    0  501 -0.00000000000E+00  0.00000000000E+00  0.18262961759E+03  0.18262961759E+03  0.00000000000E+00 0.  1.
          2   -1    0    0  501    0  0.00000000000E+00 -0.00000000000E+00 -0.21458667372E+03  0.21458667372E+03  0.00000000000E+00 0. -1.
         25    2    1    2    0    0 -0.10520148917E+03 -0.95508411758E+02  0.68477339856E+02  0.20130214745E+03  0.12507677025E+03 0.  0.
          5    1    3    3  502    0 -0.70357924915E+01 -0.49437101477E+02  0.77628841449E+02  0.92397179627E+02  0.41800000000E+01 0.  1.
         -5    1    3    3    0  502 -0.98165696681E+02 -0.46071310281E+02 -0.91515015925E+01  0.10890496783E+03  0.41800000000E+01 0.  1.
        -11    1    1    2    0    0  0.27899955964E+02  0.73155695342E+02 -0.81969864066E+02  0.11335440847E+03  0.00000000000E+00 0. -1.
         11    1    1    2    0    0  0.77301533208E+02  0.22352716417E+02 -0.18464531923E+02  0.82559735384E+02  0.00000000000E+00 0.  1.
</event>
<event>
 7    1  0.2641580E-009  0.1645016E+03  0.7561462E-02  0.1183706E+00
         -1   -1    0    0    0  501 -0.00000000000E+00  0.00000000000E+00  0.24486582933E+03  0.24486582933E+03  0.00000000000E+00 0.  1.
          1   -1    0    0  501    0  0.00000000000E+00 -0.00000000000E+00 -0.18507351703E+03  0.18507351703E+03  0.00000000000E+00 0. -1.
         25    2    1    2    0    0  0.11371680030E+03  0.10083974531E+03 -0.71291615198E+02  0.20935870674E+03  0.12509360010E+03 0.  0.
          5    1    3    3  502    0  0.56074976551E+02  0.29085585103E+02  0.32009386952E+02  0.70939745622E+02  0.41800000000E+01 0. -1.
         -5    1    3    3    0  502  0.57641823753E+02  0.71754160209E+02 -0.10330100215E+03  0.13841896112E+03  0.41800000000E+01 0. -1.
        -11    1    1    2    0    0 -0.29946011408E+01 -0.52769875659E+02  0.62116817415E+02  0.81560569020E+02  0.00000000000E+00 0.  1.
         11    1    1    2    0    0 -0.11072219916E+03 -0.48069869652E+02  0.68967110080E+02  0.13902007060E+03  0.00000000000E+00 0. -1.
</event>
<event>
 7    1  0.2641580E-009  0.2588573E+03  0.7561462E-02  0.1107832E+00
          2   -1    0    0  501    0  0.00000000000E+00  0.00000000000E+00  0.32086761357E+03  0.32086761357E+03  0.00000000000E+00 0.  1.
         -2   -1    0    0    0  501 -0.00000000000E+00 -0.00000000000E+00 -0.24737302857E+03  0.24737302857E+03  0.00000000000E+00 0. -1.
         25    2    1    2    0    0 -0.19374712370E+03  0.14725651366E+03  0.12979546283E+03  0.30284754421E+03  0.12508934449E+03 0.  0.
          5    1    3    3  502    0 -0.61427647205E+02  0.12698567964E+01 -0.83936636287E+01  0.62152187142E+02  0.41800000000E+01 0.  1.
         -5    1    3    3    0  502 -0.13231947649E+03  0.14598665686E+03  0.13818912646E+03  0.24069535707E+03  0.41800000000E+01 0.  1.
        -11    1    1    2    0    0  0.52103428934E+02 -0.94493297903E+02 -0.29693940197E+02  0.11191729419E+03  0.00000000000E+00 0.  1.
         11    1    1    2    0    0  0.14164369476E+03 -0.52763215755E+02 -0.26606937626E+02  0.15347580374E+03  0.00000000000E+00 0. -1.
</event>
<event>
 7    1  0.3334877E-009  0.1677310E+03  0.7561462E-02  0.1180235E+00
          3   -1    0    0  501    0  0.00000000000E+00  0.00000000000E+00  0.13785074511E+03  0.13785074511E+03  0.00000000000E+00 0. -1.
         -3   -1    0    0    0  501 -0.00000000000E+00 -0.00000000000E+00 -0.21055376583E+03  0.21055376583E+03  0.00000000000E+00 0.  1.
         25    2    1    2    0    0 -0.55708175786E+02  0.11778043006E+03 -0.51906187255E+02  0.18794118244E+03  0.12510797427E+03 0.  0.
          5    1    3    3  502    0  0.24036965824E+02 -0.94507798054E+01 -0.23282396273E+02  0.35023354225E+02  0.41800000000E+01 0. -1.
         -5    1    3    3    0  502 -0.79745141610E+02  0.12723120987E+03 -0.28623790982E+02  0.15291782821E+03  0.41800000000E+01 0. -1.
        -11    1    1    2    0    0 -0.15747061017E+02 -0.73170020798E+02 -0.11266034164E+02  0.75688476005E+02  0.00000000000E+00 0.  1.
         11    1    1    2    0    0  0.71455236803E+02 -0.44610409263E+02 -0.95307993004E+01  0.84774852500E+02  0.00000000000E+00 0. -1.
</event>
<event>
 7    1  0.2641580E-009  0.1070066E+03  0.7561462E-02  0.1266216E+00
          1   -1    0    0  501    0  0.00000000000E+00  0.00000000000E+00  0.18444672598E+03  0.18444672598E+03  0.00000000000E+00 0. -1.
         -1   -1    0    0    0  501 -0.00000000000E+00 -0.00000000000E+00 -0.98684433148E+02  0.98684433148E+02  0.00000000000E+00 0.  1.
         25    2    1    2    0    0  0.70364267554E+02 -0.87714431161E+01  0.90721620832E+01  0.14407356476E+03  0.12508724785E+03 0.  0.
          5    1    3    3  502    0  0.15620689520E+02  0.55945294910E+02 -0.31980288392E+01  0.58323080784E+02  0.41800000000E+01 0. -1.
         -5    1    3    3    0  502  0.54743578035E+02 -0.64716738026E+02  0.12270190922E+02  0.85750483976E+02  0.41800000000E+01 0. -1.
        -11    1    1    2    0    0 -0.51965413104E+02  0.66466794536E+01  0.97816336841E+02  0.11096223799E+03  0.00000000000E+00 0. -1.
         11    1    1    2    0    0 -0.18398854450E+02  0.21247636625E+01 -0.21126206097E+02  0.28095356373E+02  0.00000000000E+00 0.  1.
</event>
<event>
 7    1  0.2641580E-009  0.7774071E+02  0.7561462E-02  0.1335588E+00
         -1   -1    0    0    0  501 -0.00000000000E+00  0.00000000000E+00  0.53766653622E+02  0.53766653622E+02  0.00000000000E+00 0.  1.
          1   -1    0    0  501    0  0.00000000000E+00 -0.00000000000E+00 -0.30863951026E+03  0.30863951026E+03  0.00000000000E+00 0. -1.
         25    2    1    2    0    0  0.42075927170E+02 -0.53848257747E+02 -0.14817732546E+03  0.20560742203E+03  0.12509146136E+03 0.  0.
          5    1    3    3  502    0  0.52454968356E+02 -0.46201088486E+02 -0.16776237582E+03  0.18179040520E+03  0.41800000000E+01 0. -1.
         -5    1    3    3    0  502 -0.10379041186E+02 -0.76471692612E+01  0.19585050354E+02  0.23817016837E+02  0.41800000000E+01 0. -1.
        -11    1    1    2    0    0 -0.30969749238E+02  0.21498363403E+02 -0.11548609128E+03  0.12148391777E+03  0.00000000000E+00 0. -1.
         11    1    1    2    0    0 -0.11106177932E+02  0.32349894344E+02  0.87905601110E+01  0.35314824074E+02  0.00000000000E+00 0.  1.
</event>
<event>
 7    1  0.2641580E-009  0.1670638E+03  0.7561462E-02  0.1180945E+00
         -1   -1    0    0    0  501 -0.00000000000E+00  0.00000000000E+00  0.20245141865E+02  0.20245141865E+02  0.00000000000E+00 0.  1.
          1   -1    0    0  501    0  0.00000000000E+00 -0.00000000000E+00 -0.15944225726E+04  0.15944225726E+04  0.00000000000E+00 0. -1.
         25    2    1    2    0    0 -0.13432025666E+03  0.25507806137E+01 -0.10431807430E+04  0.10592085342E+04  0.12509283957E+03 0.  0.
          5    1    3    3  502    0  0.60782292363E+01  0.37320784806E+02 -0.26067100874E+03  0.26343240698E+03  0.41800000000E+01 0. -1.
         -5    1    3    3    0  502 -0.14039848589E+03 -0.34770004193E+02 -0.78250973426E+03  0.79577612721E+03  0.41800000000E+01 0. -1.
        -11    1    1    2    0    0  0.68475920540E+02 -0.36183347645E+02 -0.37385008538E+03  0.38178799442E+03  0.00000000000E+00 0.  1.
         11    1    1    2    0    0  0.65844336117E+02  0.33632567032E+02 -0.15714660231E+03  0.17367118581E+03  0.00000000000E+00 0. -1.
</event>
<event>
 7    1  0.2641580E-009  0.9551566E+02  0.7561462E-02  0.1290019E+00
         -2   -1    0    0    0  501 -0.00000000000E+00  0.00000000000E+00  0.19056489082E+03  0.19056489082E+03  0.00000000000E+00 0.  1.
          2   -1    0    0  501    0  0.00000000000E+00 -0.00000000000E+00 -0.76762338086E+02  0.76762338086E+02  0.00000000000E+00 0. -1.
         25    2    1    2    0    0  0.29740545249E+02  0.66359277505E+01  0.19159284982E+02  0.13016699002E+03  0.12509129275E+03 0.  0.
          5    1    3    3  502    0 -0.48480209328E+01  0.61302387652E+02 -0.28667743995E+01  0.61702324383E+02  0.41800000000E+01 0. -1.
         -5    1    3    3    0  502  0.34588566182E+02 -0.54666459902E+02  0.22026059382E+02  0.68464665636E+02  0.41800000000E+01 0. -1.
        -11    1    1    2    0    0 -0.44943248337E+02  0.52831790905E+01  0.10564504555E+03  0.11492903550E+03  0.00000000000E+00 0.  1.
         11    1    1    2    0    0  0.15202703088E+02 -0.11919106841E+02 -0.11001777800E+02  0.22231203382E+02  0.00000000000E+00 0. -1.
</event>
<event>
 7    1  0.2641580E-009  0.1087912E+03  0.7561462E-02  0.1262825E+00
         -1   -1    0    0    0  501 -0.00000000000E+00  0.00000000000E+00  0.14292801148E+03  0.14292801148E+03  0.00000000000E+00 0.  1.
          1   -1    0    0  501    0  0.00000000000E+00 -0.00000000000E+00 -0.98276111338E+02  0.98276111338E+02  0.00000000000E+00 0. -1.
         25    2    1    2    0    0 -0.31278038484E+02 -0.33864372192E+02  0.35742646594E+02  0.13802319013E+03  0.12509097822E+03 0.  0.
          5    1    3    3  502    0 -0.33677405447E+02  0.43848391797E+02  0.15526092937E+02  0.57579345799E+02  0.41800000000E+01 0. -1.
         -5    1    3    3    0  502  0.23993669632E+01 -0.77712763989E+02  0.20216553657E+02  0.80443844328E+02  0.41800000000E+01 0. -1.
        -11    1    1    2    0    0  0.52481484488E+02  0.34931071137E+02  0.32927621867E+02  0.71124638675E+02  0.00000000000E+00 0.  1.
         11    1    1    2    0    0 -0.21203446004E+02 -0.10666989447E+01 -0.24018368321E+02  0.32056294013E+02  0.00000000000E+00 0. -1.
</event>
<event>
 7    1  0.2641580E-009  0.1274159E+03  0.7561462E-02  0.1231341E+00
          2   -1    0    0  501    0  0.00000000000E+00  0.00000000000E+00  0.18350223927E+03  0.18350223927E+03  0.00000000000E+00 0. -1.
         -2   -1    0    0    0  501 -0.00000000000E+00 -0.00000000000E+00 -0.10129896287E+03  0.10129896287E+03  0.00000000000E+00 0.  1.
         25    2    1    2    0    0  0.44059298828E+02  0.67959945244E+02  0.33274149251E+02  0.15269250461E+03  0.12509218995E+03 0.  0.
          5    1    3    3  502    0  0.84663842269E+02  0.45409002677E+02  0.13409910824E+01  0.96172835920E+02  0.41800000000E+01 0. -1.
         -5    1    3    3    0  502 -0.40604543441E+02  0.22550942568E+02  0.31933158168E+02  0.56519668694E+02  0.41800000000E+01 0. -1.
        -11    1    1    2    0    0 -0.64431568967E+02 -0.64866921372E+02  0.15345128532E+02  0.92707160119E+02  0.00000000000E+00 0.  1.
         11    1    1    2    0    0  0.20372270139E+02 -0.30930238729E+01  0.33583998615E+02  0.39401537409E+02  0.00000000000E+00 0. -1.
</event>
<event>
 7    1  0.2641580E-009  0.1915953E+03  0.7561462E-02  0.1157030E+00
          2   -1    0    0  501    0  0.00000000000E+00  0.00000000000E+00  0.10697722823E+04  0.10697722823E+04  0.00000000000E+00 0. -1.
         -2   -1    0    0    0  501 -0.00000000000E+00 -0.00000000000E+00 -0.45853024716E+02  0.45853024716E+02  0.00000000000E+00 0.  1.
         25    2    1    2    0    0 -0.17369857647E+03 -0.17839664044E+02  0.32143344542E+03  0.38659602029E+03  0.12509026337E+03 0.  0.
          5    1    3    3  502    0 -0.15963234284E+03 -0.41437558419E+02  0.31845168345E+03  0.35864816077E+03  0.41800000000E+01 0. -1.
         -5    1    3    3    0  502 -0.14066233630E+02  0.23597894376E+02  0.29817619671E+01  0.27947859523E+02  0.41800000000E+01 0. -1.
        -11    1    1    2    0    0  0.12084346445E+03 -0.23768831635E+02  0.37500298511E+03  0.39470918294E+03  0.00000000000E+00 0. -1.
         11    1    1    2    0    0  0.52855112017E+02  0.41608495679E+02  0.32748282702E+03  0.33432010375E+03  0.00000000000E+00 0.  1.
</event>
<event>
 7    1  0.2641580E-009  0.1111527E+03  0.7561462E-02  0.1258450E+00
         -2   -1    0    0    0  501 -0.00000000000E+00  0.00000000000E+00  0.25475695334E+02  0.25475695334E+02  0.00000000000E+00 0. -1.
          2   -1    0    0  501    0  0.00000000000E+00 -0.00000000000E+00 -0.12608884226E+04  0.12608884226E+04  0.00000000000E+00 0.  1.
         25    2    1    2    0    0  0.21995363064E+02 -0.46556352955E+02 -0.11289715165E+04  0.11370472295E+04  0.12509367333E+03 0.  0.
          5    1    3    3  502    0 -0.38256873471E+02 -0.55019045368E+02 -0.40666170091E+03  0.41216731446E+03  0.41800000000E+01 0.  1.
         -5    1    3    3    0  502  0.60252236535E+02  0.84626924128E+01 -0.72230981560E+03  0.72487991508E+03  0.41800000000E+01 0.  1.
        -11    1    1    2    0    0 -0.16385045042E+01 -0.22306586275E+02 -0.59400794820E+02  0.63472221589E+02  0.00000000000E+00 0.  1.
         11    1    1    2    0    0 -0.20356858560E+02  0.68862939230E+02 -0.47040415958E+02  0.85844666831E+02  0.00000000000E+00 0. -1.
</event>
<event>
 7    1  0.2641580E-009  0.1150220E+03  0.7561462E-02  0.1251543E+00
          2   -1    0    0  501    0  0.00000000000E+00  0.00000000000E+00  0.22592779923E+03  0.22592779923E+03  0.00000000000E+00 0. -1.
         -2   -1    0    0    0  501 -0.00000000000E+00 -0.00000000000E+00 -0.81756151585E+02  0.81756151585E+02  0.00000000000E+00 0.  1.
         25    2    1    2    0    0 -0.32756872212E+02  0.72203975656E+02  0.54756498677E+02  0.15789901801E+03  0.12508956377E+03 0.  0.
          5    1    3    3  502    0  0.42761735424E+02  0.40319469979E+02 -0.55136646007E+00  0.58923697108E+02  0.41800000000E+01 0.  1.
         -5    1    3    3    0  502 -0.75518607635E+02  0.31884505677E+02  0.55307865138E+02  0.98975320901E+02  0.41800000000E+01 0.  1.
        -11    1    1    2    0    0  0.29272761560E+02 -0.17247622831E+02  0.88404841643E+02  0.94708981034E+02  0.00000000000E+00 0. -1.
         11    1    1    2    0    0  0.34841106518E+01 -0.54956352826E+02  0.10103073261E+01  0.55075951774E+02  0.00000000000E+00 0.  1.
</event>
<event>
 7    1  0.2641580E-009  0.1010201E+03  0.7561462E-02  0.1278165E+00
         -1   -1    0    0    0  501 -0.00000000000E+00  0.00000000000E+00  0.11902768543E+03  0.11902768543E+03  0.00000000000E+00 0.  1.
          1   -1    0    0  501    0  0.00000000000E+00 -0.00000000000E+00 -0.17390967628E+03  0.17390967628E+03  0.00000000000E+00 0. -1.
         25    2    1    2    0    0  0.91566262733E+02 -0.14880041452E+02 -0.16281168113E+02  0.15659215700E+03  0.12510088366E+03 0.  0.
          5    1    3    3  502    0  0.62663585666E+02 -0.32742743537E+02 -0.65612229337E+02  0.96546617037E+02  0.41800000000E+01 0. -1.
         -5    1    3    3    0  502  0.28902677068E+02  0.17862702084E+02  0.49331061224E+02  0.60045539959E+02  0.41800000000E+01 0. -1.
        -11    1    1    2    0    0 -0.47061090907E+02  0.21932229391E+02 -0.65718860363E+02  0.83754030177E+02  0.00000000000E+00 0. -1.
         11    1    1    2    0    0 -0.44505171826E+02 -0.70521879394E+01  0.27118037633E+02  0.52591174536E+02  0.00000000000E+00 0.  1.
</event>
<event>
 7    1  0.2641580E-009  0.7296377E+02  0.7561462E-02  0.1350295E+00
          2   -1    0    0  501    0  0.00000000000E+00  0.00000000000E+00  0.11813581345E+03  0.11813581345E+03  0.00000000000E+00 0.  1.
         -2   -1    0    0    0  501 -0.00000000000E+00 -0.00000000000E+00 -0.19383004692E+03  0.19383004692E+03  0.00000000000E+00 0. -1.
         25    2    1    2    0    0  0.13039140005E+02 -0.62757740635E+02  0.44250791640E+02  0.14735710313E+03  0.12508968823E+03 0.  0.
          5    1    3    3  502    0  0.15692763871E+02 -0.21802634931E+02  0.85078356230E+02  0.89316386104E+02  0.41800000000E+01 0. -1.
         -5    1    3    3    0  502 -0.26536238661E+01 -0.40955105704E+02 -0.40827564590E+02  0.58040717029E+02  0.41800000000E+01 0. -1.
        -11    1    1    2    0    0  0.16112207872E+02  0.25788210203E+02  0.52466347096E+01  0.30857125656E+02  0.00000000000E+00 0.  1.
         11    1    1    2    0    0 -0.29151347877E+02  0.36969530432E+02 -0.12519165982E+03  0.13375163159E+03  0.00000000000E+00 0. -1.
</event>
<event>
 7    1  0.2641580E-009  0.1499610E+03  0.7561462E-02  0.1200521E+00
          1   -1    0    0  501    0  0.00000000000E+00  0.00000000000E+00  0.48660929268E+02  0.48660929268E+02  0.00000000000E+00 0. -1.
         -1   -1    0    0    0  501 -0.00000000000E+00 -0.00000000000E+00 -0.63068053790E+03  0.63068053790E+03  0.00000000000E+00 0.  1.
         25    2    1    2    0    0 -0.11634705611E+03 -0.21710411332E+02 -0.44538001107E+03  0.47751281120E+03  0.12508857331E+03 0.  0.
          5    1    3    3  502    0 -0.12743305388E+02  0.41814471238E+02 -0.67301539910E+02  0.80360509651E+02  0.41800000000E+01 0. -1.
         -5    1    3    3    0  502 -0.10360375072E+03 -0.63524882570E+02 -0.37807847116E+03  0.39715230155E+03  0.41800000000E+01 0. -1.
        -11    1    1    2    0    0  0.66315380845E+02  0.44054344553E+02 -0.36293899292E+02  0.87497212164E+02  0.00000000000E+00 0.  1.
         11    1    1    2    0    0  0.50031675265E+02 -0.22343933221E+02 -0.10034569827E+03  0.11433144380E+03  0.00000000000E+00 0. -1.
</event>
<event>
 7    1  0.2641580E-009  0.8295448E+02  0.7561462E-02  0.1320870E+00
         -1   -1    0    0    0  501 -0.00000000000E+00  0.00000000000E+00  0.29602146514E+02  0.29602146514E+02  0.00000000000E+00 0.  1.
          1   -1    0    0  501    0  0.00000000000E+00 -0.00000000000E+00 -0.44177865529E+03  0.44177865529E+03  0.00000000000E+00 0. -1.
         25    2    1    2    0    0  0.24748033247E+02  0.17235621568E+02 -0.27293816518E+03  0.30175090791E+03  0.12509531011E+03 0.  0.
          5    1    3    3  502    0  0.42111005144E+02  0.48002299340E+02 -0.25300569476E+03  0.26097300910E+03  0.41800000000E+01 0. -1.
         -5    1    3    3    0  502 -0.17362971897E+02 -0.30766677772E+02 -0.19932470416E+02  0.40777898807E+02  0.41800000000E+01 0. -1.
        -11    1    1    2    0    0  0.35053969641E+01  0.19604463636E+02  0.28780818403E+01  0.20122280125E+02  0.00000000000E+00 0.  1.
         11    1    1    2    0    0 -0.28253430211E+02 -0.36840085204E+02 -0.14211642544E+03  0.14950761377E+03  0.00000000000E+00 0. -1.
</event>
<event>
 7    1  0.2641580E-009  0.1702781E+03  0.7561462E-02  0.1177558E+00
         -1   -1    0    0    0  501 -0.00000000000E+00  0.00000000000E+00  0.77947537449E+02  0.77947537449E+02  0.00000000000E+00 0.  1.
          1   -1    0    0  501    0  0.00000000000E+00 -0.00000000000E+00 -0.47738010879E+03  0.47738010879E+03  0.00000000000E+00 0. -1.
         25    2    1    2    0    0  0.14472553519E+03  0.14780454214E+02 -0.30795660398E+03  0.36283417528E+03  0.12508967363E+03 0.  0.
          5    1    3    3  502    0  0.39341202043E+02 -0.52453396787E+02 -0.88256473328E+02  0.11002620823E+03  0.41800000000E+01 0. -1.
         -5    1    3    3    0  502  0.10538433315E+03  0.67233851001E+02 -0.21970013065E+03  0.25280796705E+03  0.41800000000E+01 0. -1.
        -11    1    1    2    0    0 -0.74647910139E+02  0.10289720537E+02 -0.10288571097E+01  0.75360781470E+02  0.00000000000E+00 0.  1.
         11    1    1    2    0    0 -0.70077625053E+02 -0.25070174751E+02 -0.90447110246E+02  0.11713268949E+03  0.00000000000E+00 0. -1.
</event>
<event>
 7    1  0.2641580E-009  0.1668922E+03  0.7561462E-02  0.1181128E+00
         -1   -1    0    0    0  501 -0.00000000000E+00  0.00000000000E+00  0.20527263562E+02  0.20527263562E+02  0.00000000000E+00 0.  1.
          1   -1    0    0  501    0  0.00000000000E+00 -0.00000000000E+00 -0.14339687006E+04  0.14339687006E+04  0.00000000000E+00 0. -1.
         25    2    1    2    0    0  0.48675696758E+02  0.12290744423E+03 -0.72791107023E+03  0.75031928798E+03  0.12509574112E+03 0.  0.
          5    1    3    3  502    0 -0.22694315156E+01 -0.24683683621E+02 -0.80507849864E+02  0.84341098204E+02  0.41800000000E+01 0.  1.
         -5    1    3    3    0  502  0.50945128274E+02  0.14759112785E+03 -0.64740322037E+03  0.66597818978E+03  0.41800000000E+01 0.  1.
        -11    1    1    2    0    0 -0.31437822145E+02 -0.32993888927E+01 -0.68741800858E+02  0.75661468487E+02  0.00000000000E+00 0. -1.
         11    1    1    2    0    0 -0.17237874613E+02 -0.11960805534E+03 -0.61678856598E+03  0.62851520773E+03  0.00000000000E+00 0.  1.
</event>
<event>
 7    1  0.2641580E-009  0.1053504E+03  0.7561462E-02  0.1269431E+00
          1   -1    0    0  501    0  0.00000000000E+00  0.00000000000E+00  0.35812448945E+03  0.35812448945E+03  0.00000000000E+00 0. -1.
         -1   -1    0    0    0  501 -0.00000000000E+00 -0.00000000000E+00 -0.70222191985E+02  0.70222191985E+02  0.00000000000E+00 0.  1.
         25    2    1    2    0    0 -0.93401067933E+02  0.60571013752E+01  0.62718893774E+02  0.16834934506E+03  0.12508954543E+03 0.  0.
          5    1    3    3  502    0 -0.30786667450E+02 -0.47952748524E+01 -0.37917623934E+02  0.49254767874E+02  0.41800000000E+01 0.  1.
         -5    1    3    3    0  502 -0.62614400483E+02  0.10852376228E+02  0.10063651771E+03  0.11909457718E+03  0.41800000000E+01 0.  1.
        -11    1    1    2    0    0  0.40933170908E+02  0.30997137447E+02  0.16182098766E+03  0.16977154961E+03  0.00000000000E+00 0.  1.
         11    1    1    2    0    0  0.52467897025E+02 -0.37054238822E+02  0.63362416037E+02  0.90225786774E+02  0.00000000000E+00 0. -1.
</event>
<event>
 7    1  0.2641580E-009  0.8845483E+02  0.7561462E-02  0.1306637E+00
         -2   -1    0    0    0  501 -0.00000000000E+00  0.00000000000E+00  0.92749986658E+02  0.92749986658E+02  0.00000000000E+00 0.  1.
          2   -1    0    0  501    0  0.00000000000E+00 -0.00000000000E+00 -0.19410998981E+03  0.19410998981E+03  0.00000000000E+00 0. -1.
         25    2    1    2    0    0  0.48974342426E+01  0.36246857979E+02  0.19493764576E+02  0.13175821328E+03  0.12506958197E+03 0.  0.
          5    1    3    3  502    0  0.24389809225E+02 -0.12002524549E+02  0.59788342805E+02  0.65810650544E+02  0.41800000000E+01 0. -1.
         -5    1    3    3    0  502 -0.19492374982E+02  0.48249382528E+02 -0.40294578229E+02  0.65947562741E+02  0.41800000000E+01 0. -1.
        -11    1    1    2    0    0  0.30181056367E+02 -0.50908163695E+02 -0.74886248364E+02  0.95448873688E+02  0.00000000000E+00 0. -1.
         11    1    1    2    0    0 -0.35078490610E+02  0.14661305717E+02 -0.45967519364E+02  0.59652889496E+02  0.00000000000E+00 0.  1.
</event>
<event>
 7    1  0.2641580E-009  0.1338570E+03  0.7561462E-02  0.1221842E+00
         -2   -1    0    0    0  501 -0.00000000000E+00  0.00000000000E+00  0.60762971420E+02  0.60762971420E+02  0.00000000000E+00 0.  1.
          2   -1    0    0  501    0  0.00000000000E+00 -0.00000000000E+00 -0.32420565475E+03  0.32420565475E+03  0.00000000000E+00 0. -1.
         25    2    1    2    0    0  0.81825283931E+02  0.16762357851E+02 -0.10890843677E+03  0.18569658707E+03  0.12508325676E+03 0.  0.
          5    1    3    3  502    0  0.39623911939E+02  0.69705961476E+02 -0.74955544298E+02  0.10983979918E+03  0.41800000000E+01 0. -1.
         -5    1    3    3    0  502  0.42201371992E+02 -0.52943603625E+02 -0.33952892469E+02  0.75856787895E+02  0.41800000000E+01 0. -1.
        -11    1    1    2    0    0 -0.89894567849E+02  0.11105107676E+02 -0.14019381473E+03  0.16690914425E+03  0.00000000000E+00 0. -1.
         11    1    1    2    0    0  0.80692839185E+01 -0.27867465527E+02 -0.14340431834E+02  0.32362894849E+02  0.00000000000E+00 0.  1.
</event>
<event>
 7    1  0.2641580E-009  0.9624658E+02  0.7561462E-02  0.1288393E+00
          2   -1    0    0  501    0  0.00000000000E+00  0.00000000000E+00  0.96954459809E+02  0.96954459809E+02  0.00000000000E+00 0. -1.
         -2   -1    0    0    0  501 -0.00000000000E+00 -0.00000000000E+00 -0.18967864756E+03  0.18967864756E+03  0.00000000000E+00 0.  1.
         25    2    1    2    0    0 -0.15956626091E+02  0.23751880984E+02  0.28915134461E+02  0.13153968225E+03  0.12509131560E+03 0.  0.
          5    1    3    3  502    0 -0.23878997852E+02 -0.32490709154E+02  0.55468000308E+02  0.68702432111E+02  0.41800000000E+01 0.  1.
         -5    1    3    3    0  502  0.79223717618E+01  0.56242590139E+02 -0.26552865848E+02  0.62837250136E+02  0.41800000000E+01 0.  1.
        -11    1    1    2    0    0  0.15317564324E+02  0.33977634659E+02 -0.36050178659E+02  0.51852895919E+02  0.00000000000E+00 0.  1.
         11    1    1    2    0    0  0.63906176623E+00 -0.57729515643E+02 -0.85589143555E+02  0.10324052921E+03  0.00000000000E+00 0. -1.
</event>
<event>
 7    1  0.3226968E-009  0.1380115E+03  0.7561462E-02  0.1216030E+00
         -2   -1    0    0    0  501 -0.00000000000E+00  0.00000000000E+00  0.10834013662E+03  0.10834013662E+03  0.00000000000E+00 0.  1.
          2   -1    0    0  501    0  0.00000000000E+00 -0.00000000000E+00 -0.24599884404E+03  0.24599884404E+03  0.00000000000E+00 0. -1.
         25    2    1    2    0    0 -0.11131750318E+03 -0.36574884766E+01 -0.22255916740E+02  0.16896747324E+03  0.12509883072E+03 0.  0.
          5    1    3    3  502    0  0.10886336902E+02  0.34562921692E+02 -0.18268138725E+02  0.40795896601E+02  0.41800000000E+01 0. -1.
         -5    1    3    3    0  502 -0.12220384008E+03 -0.38220410168E+02 -0.39877780149E+01  0.12817157664E+03  0.41800000000E+01 0. -1.
        -11    1    1    2    0    0  0.79627418278E+02  0.42483952120E+01 -0.12837435602E+03  0.15112428623E+03  0.00000000000E+00 0. -1.
         11    1    1    2    0    0  0.31690084901E+02 -0.59090673535E+00  0.12971565350E+02  0.34247221193E+02  0.00000000000E+00 0.  1.
</event>
<event>
 7    1  0.2641580E-009  0.1225784E+03  0.7561462E-02  0.1238903E+00
          1   -1    0    0  501    0  0.00000000000E+00  0.00000000000E+00  0.37890348177E+03  0.37890348177E+03  0.00000000000E+00 0. -1.
         -1   -1    0    0    0  501 -0.00000000000E+00 -0.00000000000E+00 -0.44154321997E+02  0.44154321997E+02  0.00000000000E+00 0.  1.
         25    2    1    2    0    0 -0.42939116131E+02 -0.69771183906E+02  0.19144267631E+03  0.24292103346E+03  0.12509414209E+03 0.  0.
          5    1    3    3  502    0  0.34767249401E+02  0.31464976618E+01  0.18467226722E+02  0.39713636716E+02  0.41800000000E+01 0.  1.
         -5    1    3    3    0  502 -0.77706365532E+02 -0.72917681568E+02  0.17297544959E+03  0.20320739674E+03  0.41800000000E+01 0.  1.
        -11    1    1    2    0    0  0.48513576716E+02  0.78921774156E+02  0.10345959156E+03  0.13887440602E+03  0.00000000000E+00 0.  1.
         11    1    1    2    0    0 -0.55744605851E+01 -0.91505902493E+01  0.39846891890E+02  0.41262364280E+02  0.00000000000E+00 0. -1.
</event>
<event>
 7    1  0.2641580E-009  0.1170708E+03  0.7561462E-02  0.1248009E+00
          1   -1    0    0  501    0  0.00000000000E+00  0.00000000000E+00  0.39924433736E+03  0.39924433736E+03  0.00000000000E+00 0. -1.
         -1   -1    0    0    0  501 -0.00000000000E+00 -0.00000000000E+00 -0.63733410908E+02  0.63733410908E+02  0.00000000000E+00 0.  1.
         25    2    1    2    0    0 -0.51157702137E+02  0.11508541413E+02  0.33148067277E+03  0.35816500254E+03  0.12511265168E+03 0.  0.
          5    1    3    3  502    0  0.30367941074E+02  0.37493637807E+02  0.14678988843E+03  0.15457272873E+03  0.41800000000E+01 0. -1.
         -5    1    3    3    0  502 -0.81525643211E+02 -0.25985096393E+02  0.18469078433E+03  0.20359227380E+03  0.41800000000E+01 0. -1.
        -11    1    1    2    0    0 -0.18671175472E+02 -0.22625481813E+02 -0.12994193749E+02  0.32083863420E+02  0.00000000000E+00 0.  1.
         11    1    1    2    0    0  0.69828877609E+02  0.11116940400E+02  0.17024447437E+02  0.72728882313E+02  0.00000000000E+00 0. -1.
</event>
<event>
 7    1  0.2641580E-009  0.2647918E+03  0.7561462E-02  0.1104298E+00
         -2   -1    0    0    0  501 -0.00000000000E+00  0.00000000000E+00  0.58877257848E+02  0.58877257848E+02  0.00000000000E+00 0. -1.
          2   -1    0    0  501    0  0.00000000000E+00 -0.00000000000E+00 -0.13689188793E+04  0.13689188793E+04  0.00000000000E+00 0.  1.
         25    2    1    2    0    0 -0.95200717737E+02  0.23618902001E+03 -0.51433588696E+03  0.58740117689E+03  0.12510119170E+03 0.  0.
          5    1    3    3  502    0 -0.95337121683E+02  0.24231500100E+03 -0.42983026719E+03  0.50257064923E+03  0.41800000000E+01 0. -1.
         -5    1    3    3    0  502  0.13640394589E+00 -0.61259809889E+01 -0.84505619776E+02  0.84830527658E+02  0.41800000000E+01 0. -1.
        -11    1    1    2    0    0  0.46710051895E+02 -0.46353196008E+02 -0.30501444062E+03  0.31203246099E+03  0.00000000000E+00 0.  1.
         11    1    1    2    0    0  0.48490665843E+02 -0.18983582400E+03 -0.49069129385E+03  0.52836249924E+03  0.00000000000E+00 0. -1.
</event>
<event>
 7    1  0.2641580E-009  0.2274347E+03  0.7561462E-02  0.1128458E+00
          2   -1    0    0  501    0  0.00000000000E+00  0.00000000000E+00  0.13200933211E+03  0.13200933211E+03  0.00000000000E+00 0. -1.
         -2   -1    0    0    0  501 -0.00000000000E+00 -0.00000000000E+00 -0.47227347041E+03  0.47227347041E+03  0.00000000000E+00 0.  1.
         25    2    1    2    0    0  0.19329197634E+02  0.20144769970E+03 -0.56815822085E+02  0.24460072669E+03  0.12508670698E+03 0.  0.
          5    1    3    3  502    0 -0.27997377103E+02  0.18341719727E+03 -0.33081084975E+02  0.18851406304E+03  0.41800000000E+01 0.  1.
         -5    1    3    3    0  502  0.47326574738E+02  0.18030502432E+02 -0.23734737111E+02  0.56086663656E+02  0.41800000000E+01 0.  1.
        -11    1    1    2    0    0  0.32419029050E+02 -0.87619182383E+02 -0.92753656993E+02  0.13164860596E+03  0.00000000000E+00 0. -1.
         11    1    1    2    0    0 -0.51748226685E+02 -0.11382851732E+03 -0.19069465923E+03  0.22803346986E+03  0.00000000000E+00 0.  1.
</event>
<event>
 7    1  0.2641580E-009  0.1036477E+03  0.7561462E-02  0.1272807E+00
         -2   -1    0    0    0  501 -0.00000000000E+00  0.00000000000E+00  0.58673644016E+02  0.58673644016E+02  0.00000000000E+00 0.  1.
          2   -1    0    0  501    0  0.00000000000E+00 -0.00000000000E+00 -0.21495020730E+03  0.21495020730E+03  0.00000000000E+00 0. -1.
         25    2    1    2    0    0 -0.25391661224E+02 -0.10698595898E+02 -0.70118898531E+02  0.14602556988E+03  0.12509041016E+03 0.  0.
          5    1    3    3  502    0  0.49657574912E+02  0.54961719292E+01 -0.18615921955E+02  0.53479973843E+02  0.41800000000E+01 0.  1.
         -5    1    3    3    0  502 -0.75049236136E+02 -0.16194767828E+02 -0.51502976575E+02  0.92545596036E+02  0.41800000000E+01 0.  1.
        -11    1    1    2    0    0 -0.23703026148E+02 -0.11551968881E+02 -0.47636934964E+00  0.26372492513E+02  0.00000000000E+00 0.  1.
         11    1    1    2    0    0  0.49094687372E+02  0.22250564779E+02 -0.85681295407E+02  0.10122578893E+03  0.00000000000E+00 0. -1.
</event>
<event>
 7    1  0.2641580E-009  0.1159724E+03  0.7561462E-02  0.1249893E+00
         -1   -1    0    0    0  501 -0.00000000000E+00  0.00000000000E+00  0.61441414470E+02  0.61441414470E+02  0.00000000000E+00 0.  1.
          1   -1    0    0  501    0  0.00000000000E+00 -0.00000000000E+00 -0.30742730922E+03  0.30742730922E+03  0.00000000000E+00 0. -1.
         25    2    1    2    0    0  0.38269259247E+00 -0.67978727865E+02 -0.67269724508E+02  0.15746307634E+03  0.12509256844E+03 0.  0.
          5    1    3    3  502    0  0.41276593701E+02  0.14714804655E+02 -0.14203161454E+01  0.44042846883E+02  0.41800000000E+01 0. -1.
         -5    1    3    3    0  502 -0.40893901108E+02 -0.82693532520E+02 -0.65849408363E+02  0.11342022946E+03  0.41800000000E+01 0. -1.
        -11    1    1    2    0    0 -0.11485559162E+02 -0.10951820496E+02 -0.16504300911E+00  0.15870969745E+02  0.00000000000E+00 0. -1.
         11    1    1    2    0    0  0.11102866570E+02  0.78930548361E+02 -0.17855112723E+03  0.19553467761E+03  0.00000000000E+00 0.  1.
</event>
<event>
 7    1  0.2641580E-009  0.8755040E+02  0.7561462E-02  0.1308895E+00
          1   -1    0    0  501    0  0.00000000000E+00  0.00000000000E+00  0.13141075365E+03  0.13141075365E+03  0.00000000000E+00 0. -1.
         -1   -1    0    0    0  501 -0.00000000000E+00 -0.00000000000E+00 -0.13796202583E+03  0.13796202583E+03  0.00000000000E+00 0.  1.
         25    2    1    2    0    0  0.16899213669E+01 -0.33214714124E+02  0.70861652591E+02  0.14756065599E+03  0.12508677116E+03 0.  0.
          5    1    3    3  502    0 -0.60951088460E+02 -0.79995392883E+01  0.30094137600E+02  0.68572278153E+02  0.41800000000E+01 0. -1.
         -5    1    3    3    0  502  0.62641009827E+02 -0.25215174836E+02  0.40767514991E+02  0.78988377833E+02  0.41800000000E+01 0. -1.
        -11    1    1    2    0    0 -0.13322520426E+02  0.31331315971E+02 -0.94845049454E+02  0.10077065206E+03  0.00000000000E+00 0.  1.
         11    1    1    2    0    0  0.11632599059E+02  0.18833981532E+01  0.17432124680E+02  0.21041471439E+02  0.00000000000E+00 0. -1.
</event>
<event>
 7    1  0.2641580E-009  0.1035431E+03  0.7561462E-02  0.1273017E+00
          1   -1    0    0  501    0  0.00000000000E+00  0.00000000000E+00  0.57083228177E+03  0.57083228177E+03  0.00000000000E+00 0. -1.
         -1   -1    0    0    0  501 -0.00000000000E+00 -0.00000000000E+00 -0.20255484175E+02  0.20255484175E+02  0.00000000000E+00 0.  1.
         25    2    1    2    0    0  0.55034553623E+01  0.18844274669E+02  0.33899022117E+03  0.36187037039E+03  0.12510155958E+03 0.  0.
          5    1    3    3  502    0  0.53982708566E+02  0.41788783908E+02  0.23552327419E+03  0.24525317606E+03  0.41800000000E+01 0. -1.
         -5    1    3    3    0  502 -0.48479253204E+02 -0.22944509238E+02  0.10346694699E+03  0.11661719433E+03  0.41800000000E+01 0. -1.
        -11    1    1    2    0    0 -0.27369463928E+02 -0.43840859989E+02  0.96928690804E+02  0.10984661880E+03  0.00000000000E+00 0.  1.
         11    1    1    2    0    0  0.21866008566E+02  0.24996585320E+02  0.11465788562E+03  0.11937077675E+03  0.00000000000E+00 0. -1.
</event>
<event>
 7    1  0.2641580E-009  0.1433646E+03  0.7561462E-02  0.1208872E+00
         -2   -1    0    0    0  501 -0.00000000000E+00  0.00000000000E+00  0.13098067999E+03  0.13098067999E+03  0.00000000000E+00 0.  1.
          2   -1    0    0  501    0  0.00000000000E+00 -0.00000000000E+00 -0.27725743798E+03  0.27725743798E+03  0.00000000000E+00 0. -1.
         25    2    1    2    0    0  0.32693732956E+02 -0.11004799816E+03  0.36938595530E+02  0.17375243245E+03  0.12508399525E+03 0.  0.
          5    1    3    3  502    0 -0.30552402640E+02 -0.10106709592E+03  0.25837423858E+02  0.10877983295E+03  0.41800000000E+01 0. -1.
         -5    1    3    3    0  502  0.63246135596E+02 -0.89809022369E+01  0.11101171672E+02  0.64972599496E+02  0.41800000000E+01 0. -1.
        -11    1    1    2    0    0 -0.47318660135E+00  0.39330547458E+02 -0.44807168995E+01  0.39587784642E+02  0.00000000000E+00 0.  1.
         11    1    1    2    0    0 -0.32220546355E+02  0.70717450700E+02 -0.17873463662E+03  0.19489790088E+03  0.00000000000E+00 0. -1.
</event>
<event>
 7    1  0.2641580E-009  0.1008487E+03  0.7561462E-02  0.1278521E+00
          1   -1    0    0  501    0  0.00000000000E+00  0.00000000000E+00  0.43353574678E+02  0.43353574678E+02  0.00000000000E+00 0. -1.
         -1   -1    0    0    0  501 -0.00000000000E+00 -0.00000000000E+00 -0.48230534317E+03  0.48230534317E+03  0.00000000000E+00 0.  1.
         25    2    1    2    0    0 -0.24377661174E+02 -0.87658762279E+02 -0.29012289423E+03  0.32878185805E+03  0.12509151633E+03 0.  0.
          5    1    3    3  502    0 -0.90763843353E+01 -0.29978000091E+02 -0.25979802336E+03  0.26171271766E+03  0.41800000000E+01 0. -1.
         -5    1    3    3    0  502 -0.15301276839E+02 -0.57680762188E+02 -0.30324870871E+02  0.67069140392E+02  0.41800000000E+01 0. -1.
        -11    1    1    2    0    0  0.27517475696E+02  0.55058525919E+01 -0.93897365618E+02  0.98001230357E+02  0.00000000000E+00 0.  1.
         11    1    1    2    0    0 -0.31398145217E+01  0.82152909688E+02 -0.54931508638E+02  0.98875829436E+02  0.00000000000E+00 0. -1.
</event>
<event>
 7    1  0.2641580E-009  0.7046252E+02  0.7561462E-02  0.1358527E+00
          2   -1    0    0  501    0  0.00000000000E+00  0.00000000000E+00  0.18557466976E+03  0.18557466976E+03  0.00000000000E+00 0. -1.
         -2   -1    0    0    0  501 -0.00000000000E+00 -0.00000000000E+00 -0.81599320768E+02  0.81599320768E+02  0.00000000000E+00 0.  1.
         25    2    1    2    0    0 -0.43473000244E+01 -0.48465364740E+02  0.20067042082E+02  0.13571149738E+03  0.12508850365E+03 0.  0.
          5    1    3    3  502    0 -0.50892496729E+01 -0.15106797914E+02 -0.52879000597E+02  0.55387515828E+02  0.41800000000E+01 0. -1.
         -5    1    3    3    0  502  0.74194964852E+00 -0.33358566826E+02  0.72946042679E+02  0.80323981553E+02  0.41800000000E+01 0. -1.
        -11    1    1    2    0    0 -0.36141244959E+02  0.25919855483E+02  0.70257519165E+02  0.83151352933E+02  0.00000000000E+00 0. -1.
         11    1    1    2    0    0  0.40488544983E+02  0.22545509257E+02  0.13650787743E+02  0.48311140211E+02  0.00000000000E+00 0.  1.
</event>
<event>
 7    1  0.2641580E-009  0.1265952E+03  0.7561462E-02  0.1232597E+00
         -1   -1    0    0    0  501 -0.00000000000E+00  0.00000000000E+00  0.41020073266E+02  0.41020073266E+02  0.00000000000E+00 0.  1.
          1   -1    0    0  501    0  0.00000000000E+00 -0.00000000000E+00 -0.60315972829E+03  0.60315972829E+03  0.00000000000E+00 0. -1.
         25    2    1    2    0    0  0.95537966168E+02  0.19586667595E+02 -0.42140786237E+03  0.45026947801E+03  0.12508747276E+03 0.  0.
          5    1    3    3  502    0  0.42436670799E+02  0.45070515287E+02 -0.35912429136E+03  0.36444471655E+03  0.41800000000E+01 0. -1.
         -5    1    3    3    0  502  0.53101295368E+02 -0.25483847692E+02 -0.62283571002E+02  0.85824761460E+02  0.41800000000E+01 0. -1.
        -11    1    1    2    0    0 -0.33965569209E+02 -0.52309168185E+02 -0.80026139303E+02  0.10145980455E+03  0.00000000000E+00 0.  1.
         11    1    1    2    0    0 -0.61572396959E+02  0.32722500590E+02 -0.60705653354E+02  0.92450518989E+02  0.00000000000E+00 0. -1.
</event>
<event>
 7    1  0.2823984E-009  0.9528426E+02  0.7561462E-02  0.1290537E+00
          2   -1    0    0  501    0  0.00000000000E+00  0.00000000000E+00  0.59843350814E+03  0.59843350814E+03  0.00000000000E+00 0. -1.
         -2   -1    0    0    0  501 -0.00000000000E+00 -0.00000000000E+00 -0.22537972348E+02  0.22537972348E+02  0.00000000000E+00 0.  1.
         25    2    1    2    0    0  0.87251384959E+01  0.41487015766E+02  0.33243757843E+03  0.35771475455E+03  0.12509117296E+03 0.  0.
          5    1    3    3  502    0  0.32101191506E+02  0.58607128358E+02  0.83342009681E+02  0.10690484071E+03  0.41800000000E+01 0.  1.
         -5    1    3    3    0  502 -0.23376053010E+02 -0.17120112592E+02  0.24909556875E+03  0.25080991384E+03  0.41800000000E+01 0.  1.
        -11    1    1    2    0    0 -0.38282064477E+02 -0.50563998123E+02  0.20076027513E+03  0.21053959826E+03  0.00000000000E+00 0.  1.
         11    1    1    2    0    0  0.29556925981E+02  0.90769823570E+01  0.42697682239E+02  0.52717127679E+02  0.00000000000E+00 0. -1.
</event>
<event>
 7    1  0.2641580E-009  0.1029267E+03  0.7561462E-02  0.1274259E+00
          2   -1    0    0  501    0  0.00000000000E+00  0.00000000000E+00  0.69524655301E+03  0.69524655301E+03  0.00000000000E+00 0.  1.
         -2   -1    0    0    0  501 -0.00000000000E+00 -0.00000000000E+00 -0.22811456552E+02  0.22811456552E+02  0.00000000000E+00 0. -1.
         25    2    1    2    0    0  0.54989626011E+02 -0.33024583377E+02  0.37881322314E+03  0.40405457024E+03  0.12508459392E+03 0.  0.
          5    1    3    3  502    0 -0.24535420451E+02 -0.25035422811E+02  0.30463363232E+02  0.46628833906E+02  0.41800000000E+01 0.  1.
         -5    1    3    3    0  502  0.79525046462E+02 -0.79891605667E+01  0.34834985990E+03  0.35742573634E+03  0.41800000000E+01 0.  1.
        -11    1    1    2    0    0 -0.23990511473E+02 -0.18561838845E+02  0.26793530414E+02  0.40471962815E+02  0.00000000000E+00 0. -1.
         11    1    1    2    0    0 -0.30999114538E+02  0.51586422223E+02  0.26682834291E+03  0.27353147651E+03  0.00000000000E+00 0.  1.
</event>
<event>
 7    1  0.2641580E-009  0.2107739E+03  0.7561462E-02  0.1140955E+00
         -2   -1    0    0    0  501 -0.00000000000E+00  0.00000000000E+00  0.55570837902E+02  0.55570837902E+02  0.00000000000E+00 0.  1.
          2   -1    0    0  501    0  0.00000000000E+00 -0.00000000000E+00 -0.81675701178E+03  0.81675701178E+03  0.00000000000E+00 0. -1.
         25    2    1    2    0    0  0.14026866145E+03 -0.11172255048E+03 -0.34080929693E+03  0.40491542900E+03  0.12509317365E+03 0.  0.
          5    1    3    3  502    0  0.20107628508E+02  0.27036081774E+02 -0.39634922602E+02  0.52188752922E+02  0.41800000000E+01 0. -1.
         -5    1    3    3    0  502  0.12016103294E+03 -0.13875863226E+03 -0.30117437433E+03  0.35272667607E+03  0.41800000000E+01 0. -1.
        -11    1    1    2    0    0 -0.11952158402E+03  0.12982013115E+03 -0.35369280495E+03  0.39526861218E+03  0.00000000000E+00 0. -1.
         11    1    1    2    0    0 -0.20747077427E+02 -0.18097580669E+02 -0.66684071997E+02  0.72143808507E+02  0.00000000000E+00 0.  1.
</event>
<event>
 7    1  0.3593594E-009  0.8639387E+02  0.7561462E-02  0.1311827E+00
          2   -1    0    0  501    0  0.00000000000E+00  0.00000000000E+00  0.13078155672E+03  0.13078155672E+03  0.00000000000E+00 0. -1.
         -2   -1    0    0    0  501 -0.00000000000E+00 -0.00000000000E+00 -0.10919431746E+03  0.10919431746E+03  0.00000000000E+00 0.  1.
         25    2    1    2    0    0 -0.47568753837E+02 -0.30979047105E+01  0.30204741134E+02  0.13723046987E+03  0.12508993612E+03 0.  0.
          5    1    3    3  502    0  0.33065341357E+02  0.10829166601E+00 -0.22988452423E+02  0.40487897833E+02  0.41800000000E+01 0. -1.
         -5    1    3    3    0  502 -0.80634095194E+02 -0.32061963765E+01  0.53193193557E+02  0.96742572035E+02  0.41800000000E+01 0. -1.
        -11    1    1    2    0    0  0.29518413525E+02  0.18574487852E+02  0.37282689450E+02  0.51052397286E+02  0.00000000000E+00 0. -1.
         11    1    1    2    0    0  0.18050340312E+02 -0.15476583141E+02 -0.45900191326E+02  0.51693007021E+02  0.00000000000E+00 0.  1.
</event>
<event>
 7    1  0.2641580E-009  0.1924537E+03  0.7561462E-02  0.1156267E+00
          2   -1    0    0  501    0  0.00000000000E+00  0.00000000000E+00  0.55254479602E+03  0.55254479602E+03  0.00000000000E+00 0. -1.
         -2   -1    0    0    0  501 -0.00000000000E+00 -0.00000000000E+00 -0.81920251676E+02  0.81920251676E+02  0.00000000000E+00 0.  1.
         25    2    1    2    0    0  0.40580615838E+02 -0.17493741594E+03  0.29592228642E+03  0.36805916933E+03  0.12509063375E+03 0.  0.
          5    1    3    3  502    0  0.56072185590E+02 -0.15916676462E+03  0.16794745159E+03  0.23812175006E+03  0.41800000000E+01 0. -1.
         -5    1    3    3    0  502 -0.15491569751E+02 -0.15770651313E+02  0.12797483483E+03  0.12993741927E+03  0.41800000000E+01 0. -1.
        -11    1    1    2    0    0  0.72043782802E+01  0.12229382758E+03  0.73953914332E+02  0.14309739612E+03  0.00000000000E+00 0. -1.
         11    1    1    2    0    0 -0.47784994118E+02  0.52643588355E+02  0.10074834360E+03  0.12330848225E+03  0.00000000000E+00 0.  1.
</event>
<event>
 7    1  0.2641580E-009  0.1615633E+03  0.7561462E-02  0.1186943E+00
          1   -1    0    0  501    0  0.00000000000E+00  0.00000000000E+00  0.11853388692E+03  0.11853388692E+03  0.00000000000E+00 0. -1.
         -1   -1    0    0    0  501 -0.00000000000E+00 -0.00000000000E+00 -0.29550016121E+03  0.29550016121E+03  0.00000000000E+00 0.  1.
         25    2    1    2    0    0 -0.12037826960E+03  0.89614955672E+02 -0.12198180882E+03  0.23032226313E+03  0.12508802956E+03 0.  0.
          5    1    3    3  502    0 -0.89321894730E+02  0.63958922523E+02 -0.90068319790E+01  0.11030747967E+03  0.41800000000E+01 0. -1.
         -5    1    3    3    0  502 -0.31056374866E+02  0.25656033149E+02 -0.11297497685E+03  0.12001478346E+03  0.41800000000E+01 0. -1.
        -11    1    1    2    0    0  0.32142301505E+02 -0.77147693960E+02 -0.10875522122E+02  0.84280313305E+02  0.00000000000E+00 0.  1.
         11    1    1    2    0    0  0.88235968092E+02 -0.12467261712E+02 -0.44108943347E+02  0.99431471692E+02  0.00000000000E+00 0. -1.
</event>
<event>
 7    1  0.2641580E-009  0.1377232E+03  0.7561462E-02  0.1216426E+00
          3   -1    0    0  501    0  0.00000000000E+00  0.00000000000E+00  0.31012051170E+03  0.31012051170E+03  0.00000000000E+00 0.  1.
         -3   -1    0    0    0  501 -0.00000000000E+00 -0.00000000000E+00 -0.89253383603E+02  0.89253383603E+02  0.00000000000E+00 0. -1.
         25    2    1    2    0    0 -0.55208902573E+02  0.87676998851E+02  0.30122883867E+02  0.16519782628E+03  0.12509058567E+03 0.  0.
          5    1    3    3  502    0 -0.75762194818E+02  0.36234596437E+02  0.58871722754E+02  0.10264603394E+03  0.41800000000E+01 0.  1.
         -5    1    3    3    0  502  0.20553292245E+02  0.51442402414E+02 -0.28748838887E+02  0.62551792345E+02  0.41800000000E+01 0.  1.
        -11    1    1    2    0    0  0.65463254989E+02 -0.10015813776E+03  0.16989794582E+03  0.20780375912E+03  0.00000000000E+00 0.  1.
         11    1    1    2    0    0 -0.10254352416E+02  0.12481138907E+02  0.20846298414E+02  0.26372309900E+02  0.00000000000E+00 0. -1.
</event>
<event>
 7    1  0.2641580E-009  0.1571835E+03  0.7561462E-02  0.1191914E+00
          2   -1    0    0  501    0  0.00000000000E+00  0.00000000000E+00  0.60772464918E+02  0.60772464918E+02  0.00000000000E+00 0.  1.
         -2   -1    0    0    0  501 -0.00000000000E+00 -0.00000000000E+00 -0.76616982577E+03  0.76616982577E+03  0.00000000000E+00 0. -1.
         25    2    1    2    0    0  0.13751521999E+03  0.73324981568E+02 -0.56090006279E+03  0.59543596272E+03  0.12509243229E+03 0.  0.
          5    1    3    3  502    0  0.34668108399E+02  0.11393080785E+02 -0.35621586810E+03  0.35810458963E+03  0.41800000000E+01 0.  1.
         -5    1    3    3    0  502  0.10284711159E+03  0.61931900783E+02 -0.20468419469E+03  0.23733137309E+03  0.41800000000E+01 0.  1.
        -11    1    1    2    0    0 -0.10618225951E+03 -0.45191701068E+02 -0.45717214368E+02  0.12412504087E+03  0.00000000000E+00 0.  1.
         11    1    1    2    0    0 -0.31332960478E+02 -0.28133280500E+02 -0.98780083691E+02  0.10738128709E+03  0.00000000000E+00 0. -1.
</event>
<event>
 7    1  0.2641580E-009  0.1224539E+03  0.7561462E-02  0.1239103E+00
          2   -1    0    0  501    0  0.00000000000E+00  0.00000000000E+00  0.10594147921E+03  0.10594147921E+03  0.00000000000E+00 0. -1.
         -2   -1    0    0    0  501 -0.00000000000E+00 -0.00000000000E+00 -0.18887659375E+03  0.18887659375E+03  0.00000000000E+00 0.  1.
         25    2    1    2    0    0  0.49065541130E+02  0.75617905564E+02 -0.52961791778E+02  0.16302643451E+03  0.12508865652E+03 0.  0.
          5    1    3    3  502    0 -0.32998220208E+02  0.61978800332E+02 -0.17413198272E+02  0.72463412158E+02  0.41800000000E+01 0.  1.
         -5    1    3    3    0  502  0.82063761338E+02  0.13639105232E+02 -0.35548593506E+02  0.90563022348E+02  0.41800000000E+01 0.  1.
        -11    1    1    2    0    0 -0.42129097408E+02 -0.53518813510E+02  0.24670621452E+02  0.72441450915E+02  0.00000000000E+00 0. -1.
         11    1    1    2    0    0 -0.69364437226E+01 -0.22099092054E+02 -0.54643944217E+02  0.59350187537E+02  0.00000000000E+00 0.  1.
</event>
<event>
 6    1  0.2641580E-009  0.1302819E+03  0.7561462E-02  0.1227038E+00
          1   -1    0    0  501    0  0.00000000000E+00  0.00000000000E+00  0.23387506978E+03  0.23387506978E+03  0.00000000000E+00 0. -1.
         -1   -1    0    0    0  501 -0.00000000000E+00 -0.00000000000E+00 -0.89642769610E+02  0.89642769610E+02  0.00000000000E+00 0.  1.
          5    1    1    2  502    0 -0.73120290147E+01  0.31714669893E+02  0.77894299307E+02  0.84523844679E+02  0.41800000000E+01 0. -1.
         -5    1    1    2    0  502 -0.72525126119E+02 -0.68948055296E+02  0.37012888711E+02  0.10677618919E+03  0.41800000000E+01 0. -1.
        -11    1    1    2    0    0  0.64497181107E+02  0.67686622563E+02  0.29756962583E+02  0.98116471945E+02  0.00000000000E+00 0.  1.
         11    1    1    2    0    0  0.15339974026E+02 -0.30453237159E+02 -0.43185043251E+00  0.34101333572E+02  0.00000000000E+00 0. -1.
</event>
<event>
 7    1  0.2641580E-009  0.7411554E+02  0.7561462E-02  0.1346632E+00
         -3   -1    0    0    0  501 -0.00000000000E+00  0.00000000000E+00  0.66926725181E+02  0.66926725181E+02  0.00000000000E+00 0.  1.
          3   -1    0    0  501    0  0.00000000000E+00 -0.00000000000E+00 -0.23927866824E+03  0.23927866824E+03  0.00000000000E+00 0. -1.
         25    2    1    2    0    0 -0.33797821071E+02  0.54377360715E+02 -0.11986763517E+03  0.18470072694E+03  0.12508764329E+03 0.  0.
          5    1    3    3  502    0  0.96110123315E+01  0.29231536386E+02  0.19399268685E+02  0.36615001066E+02  0.41800000000E+01 0. -1.
         -5    1    3    3    0  502 -0.43408833403E+02  0.25145824328E+02 -0.13926690386E+03  0.14808572588E+03  0.41800000000E+01 0. -1.
        -11    1    1    2    0    0  0.29462542455E+02 -0.29891190189E+02 -0.76294343133E+02  0.87076698680E+02  0.00000000000E+00 0. -1.
         11    1    1    2    0    0  0.43352786163E+01 -0.24486170526E+02  0.23810035251E+02  0.34427967793E+02  0.00000000000E+00 0.  1.
</event>
<event>
 7    1  0.2641580E-009  0.1371855E+03  0.7561462E-02  0.1217167E+00
         -2   -1    0    0    0  501 -0.00000000000E+00  0.00000000000E+00  0.20971744890E+02  0.20971744890E+02  0.00000000000E+00 0.  1.
          2   -1    0    0  501    0  0.00000000000E+00 -0.00000000000E+00 -0.11361795024E+04  0.11361795024E+04  0.00000000000E+00 0. -1.
         25    2    1    2    0    0 -0.10818635806E+03  0.32019733138E+01 -0.66853915062E+03  0.68869896646E+03  0.12508848784E+03 0.  0.
          5    1    3    3  502    0 -0.10103200455E+03 -0.25588522377E+02 -0.63588779719E+03  0.64438575515E+03  0.41800000000E+01 0. -1.
         -5    1    3    3    0  502 -0.71543535151E+01  0.28790495691E+02 -0.32651353428E+02  0.44313211315E+02  0.41800000000E+01 0. -1.
        -11    1    1    2    0    0  0.98675427710E+02 -0.36703498779E+02 -0.35903208418E+03  0.37414973517E+03  0.00000000000E+00 0. -1.
         11    1    1    2    0    0  0.95109303501E+01  0.33501525465E+02 -0.87636522692E+02  0.94302545639E+02  0.00000000000E+00 0.  1.
</event>
<event>
 7    1  0.2641580E-009  0.2046610E+03  0.7561462E-02  0.1145865E+00
          2   -1    0    0  501    0  0.00000000000E+00  0.00000000000E+00  0.84033914659E+03  0.84033914659E+03  0.00000000000E+00 0. -1.
         -2   -1    0    0    0  501 -0.00000000000E+00 -0.00000000000E+00 -0.72815821112E+02  0.72815821112E+02  0.00000000000E+00 0.  1.
         25    2    1    2    0    0  0.13485768900E+03 -0.13029204288E+03  0.23898538217E+03  0.32851871130E+03  0.12509163868E+03 0.  0.
          5    1    3    3  502    0  0.78605914706E+02 -0.14329269839E+03  0.20180949664E+03  0.25972337702E+03  0.41800000000E+01 0.  1.
         -5    1    3    3    0  502  0.56251774291E+02  0.13000655501E+02  0.37175885528E+02  0.68795334283E+02  0.41800000000E+01 0.  1.
        -11    1    1    2    0    0 -0.84455724668E+02  0.72932350478E+02  0.48301753903E+03  0.49573968995E+03  0.00000000000E+00 0. -1.
         11    1    1    2    0    0 -0.50401964329E+02  0.57359692406E+02  0.45520404277E+02  0.88896566451E+02  0.00000000000E+00 0.  1.
</event>
<event>
 7    1  0.2641580E-009  0.1366521E+03  0.7561462E-02  0.1217906E+00
          2   -1    0    0  501    0  0.00000000000E+00  0.00000000000E+00  0.29124863341E+03  0.29124863341E+03  0.00000000000E+00 0. -1.
         -2   -1    0    0    0  501 -0.00000000000E+00 -0.00000000000E+00 -0.64329496612E+02  0.64329496612E+02  0.00000000000E+00 0.  1.
         25    2    1    2    0    0 -0.50614847454E+02  0.66839312943E+02  0.12918131336E+03  0.19840097319E+03  0.12508308400E+03 0.  0.
          5    1    3    3  502    0 -0.42516942002E+02 -0.30545219008E+02  0.39699780889E+02  0.65834988904E+02  0.41800000000E+01 0.  1.
         -5    1    3    3    0  502 -0.80979054526E+01  0.97384531950E+02  0.89481532472E+02  0.13256598428E+03  0.41800000000E+01 0.  1.
        -11    1    1    2    0    0 -0.10554923050E+02 -0.60573353523E+02  0.45435483095E+02  0.76452080951E+02  0.00000000000E+00 0. -1.
         11    1    1    2    0    0  0.61169770504E+02 -0.62659594197E+01  0.52302340346E+02  0.80725075885E+02  0.00000000000E+00 0.  1.
</event>
<event>
 7    1  0.2641580E-009  0.1013225E+03  0.7561462E-02  0.1277539E+00
          3   -1    0    0  501    0  0.00000000000E+00  0.00000000000E+00  0.39743257730E+03  0.39743257730E+03  0.00000000000E+00 0. -1.
         -3   -1    0    0    0  501 -0.00000000000E+00 -0.00000000000E+00 -0.50550522281E+02  0.50550522281E+02  0.00000000000E+00 0.  1.
         25    2    1    2    0    0 -0.33465170433E+02  0.39396546750E+02  0.30737020367E+03  0.33585109188E+03  0.12509000075E+03 0.  0.
          5    1    3    3  502    0  0.15217938395E+02 -0.17771050406E+02  0.21693173244E+03  0.21822979820E+03  0.41800000000E+01 0.  1.
         -5    1    3    3    0  502 -0.48683108828E+02  0.57167597156E+02  0.90438471228E+02  0.11762129368E+03  0.41800000000E+01 0.  1.
        -11    1    1    2    0    0  0.29920603648E+02  0.25115645643E+02  0.65836483637E+01  0.39615433918E+02  0.00000000000E+00 0.  1.
         11    1    1    2    0    0  0.35445667854E+01 -0.64512192394E+02  0.32928202987E+02  0.72516573782E+02  0.00000000000E+00 0. -1.
</event>
<event>
 7    1  0.2641580E-009  0.8105342E+02  0.7561462E-02  0.1326088E+00
         -2   -1    0    0    0  501 -0.00000000000E+00  0.00000000000E+00  0.16531412466E+03  0.16531412466E+03  0.00000000000E+00 0.  1.
          2   -1    0    0  501    0  0.00000000000E+00 -0.00000000000E+00 -0.83029255695E+02  0.83029255695E+02  0.00000000000E+00 0. -1.
         25    2    1    2    0    0 -0.39362904749E+02  0.20146809328E+02  0.48291521790E+02  0.14119713431E+03  0.12509687232E+03 0.  0.
          5    1    3    3  502    0 -0.64268379391E+02 -0.62180991538E+01  0.72667325251E+02  0.97299033427E+02  0.41800000000E+01 0. -1.
         -5    1    3    3    0  502  0.24905474642E+02  0.26364908482E+02 -0.24375803462E+02  0.43898100879E+02  0.41800000000E+01 0. -1.
        -11    1    1    2    0    0  0.39786506555E+02 -0.30749169369E+02  0.60456523175E+02  0.78635034909E+02  0.00000000000E+00 0.  1.
         11    1    1    2    0    0 -0.42360180615E+00  0.10602360041E+02 -0.26463175998E+02  0.28511211142E+02  0.00000000000E+00 0. -1.
</event>
<event>
 7    1  0.2641580E-009  0.9829093E+02  0.7561462E-02  0.1283931E+00
          1   -1    0    0  501    0  0.00000000000E+00  0.00000000000E+00  0.11525630551E+03  0.11525630551E+03  0.00000000000E+00 0. -1.
         -1   -1    0    0    0  501 -0.00000000000E+00 -0.00000000000E+00 -0.12604202060E+03  0.12604202060E+03  0.00000000000E+00 0.  1.
         25    2    1    2    0    0 -0.21085409305E+02  0.25652762515E+02 -0.47767783879E+02  0.13796232836E+03  0.12509669924E+03 0.  0.
          5    1    3    3  502    0 -0.42475682667E+02 -0.24405812692E+02 -0.64275720361E+02  0.80923840363E+02  0.41800000000E+01 0. -1.
         -5    1    3    3    0  502  0.21390273363E+02  0.50058575207E+02  0.16507936482E+02  0.57038487999E+02  0.41800000000E+01 0. -1.
        -11    1    1    2    0    0  0.51707623976E+02  0.17331836573E+01  0.64210572595E+01  0.52133600290E+02  0.00000000000E+00 0.  1.
         11    1    1    2    0    0 -0.30622214671E+02 -0.27385946172E+02  0.30561011531E+02  0.51202397453E+02  0.00000000000E+00 0. -1.
</event>
<event>
 7    1  0.2641580E-009  0.2223324E+03  0.7561462E-02  0.1132156E+00
         -1   -1    0    0    0  501 -0.00000000000E+00  0.00000000000E+00  0.14273840547E+03  0.14273840547E+03  0.00000000000E+00 0.  1.
          1   -1    0    0  501    0  0.00000000000E+00 -0.00000000000E+00 -0.36469806633E+03  0.36469806633E+03  0.00000000000E+00 0. -1.
         25    2    1    2    0    0  0.81691017334E+02  0.17582844045E+03 -0.58168894760E+02  0.23795310697E+03  0.12509595524E+03 0.  0.
          5    1    3    3  502    0  0.11383782070E+03  0.11537872340E+03 -0.41350378776E+02  0.16732789803E+03  0.41800000000E+01 0. -1.
         -5    1    3    3    0  502 -0.32146803367E+02  0.60449717048E+02 -0.16818515984E+02  0.70625208940E+02  0.41800000000E+01 0. -1.
        -11    1    1    2    0    0 -0.14445086522E+02 -0.13392125516E+03 -0.10623983123E+03  0.17155309630E+03  0.00000000000E+00 0. -1.
         11    1    1    2    0    0 -0.67245930812E+02 -0.41907185284E+02 -0.57550934870E+02  0.97930268526E+02  0.00000000000E+00 0.  1.
</event>
<event>
 7    1  0.2641580E-009  0.1577273E+03  0.7561462E-02  0.1191287E+00
         -1   -1    0    0    0  501 -0.00000000000E+00  0.00000000000E+00  0.35639390903E+02  0.35639390903E+02  0.00000000000E+00 0.  1.
          1   -1    0    0  501    0  0.00000000000E+00 -0.00000000000E+00 -0.98462957089E+03  0.98462957089E+03  0.00000000000E+00 0. -1.
         25    2    1    2    0    0 -0.91212255180E+02 -0.10667681361E+03 -0.33417652324E+03  0.38343367357E+03  0.12509122784E+03 0.  0.
          5    1    3    3  502    0 -0.90066743906E+02 -0.58028618570E+02 -0.31178051309E+03  0.32970274442E+03  0.41800000000E+01 0. -1.
         -5    1    3    3    0  502 -0.11455112746E+01 -0.48648195042E+02 -0.22396010146E+02  0.53730929151E+02  0.41800000000E+01 0. -1.
        -11    1    1    2    0    0  0.55998216029E+02  0.10505810503E+02 -0.14093649144E+03  0.15201732425E+03  0.00000000000E+00 0.  1.
         11    1    1    2    0    0  0.35214039151E+02  0.96171003110E+02 -0.47387716531E+03  0.48481796398E+03  0.00000000000E+00 0. -1.
</event>
<event>
 7    1  0.2641580E-009  0.1101988E+03  0.7561462E-02  0.1260202E+00
         -1   -1    0    0    0  501 -0.00000000000E+00  0.00000000000E+00  0.67074035059E+02  0.67074035059E+02  0.00000000000E+00 0.  1.
          1   -1    0    0  501    0  0.00000000000E+00 -0.00000000000E+00 -0.22281291471E+03  0.22281291471E+03  0.00000000000E+00 0. -1.
         25    2    1    2    0    0 -0.37289678464E+02 -0.42457982858E+02 -0.92888157369E+02  0.16573731051E+03  0.12508975133E+03 0.  0.
          5    1    3    3  502    0 -0.38445030242E+01 -0.70603743045E+02 -0.94629288288E+01  0.71461095412E+02  0.41800000000E+01 0. -1.
         -5    1    3    3    0  502 -0.33445175439E+02  0.28145760187E+02 -0.83425228540E+02  0.94276215101E+02  0.41800000000E+01 0. -1.
        -11    1    1    2    0    0  0.32833861898E+02  0.70230377122E+02 -0.54644938273E+02  0.94849552644E+02  0.00000000000E+00 0. -1.
         11    1    1    2    0    0  0.44558165653E+01 -0.27772394264E+02 -0.82057840099E+01  0.29300086614E+02  0.00000000000E+00 0.  1.
</event>
<event>
 7    1  0.2641580E-009  0.1604231E+03  0.7561462E-02  0.1188220E+00
          2   -1    0    0  501    0  0.00000000000E+00  0.00000000000E+00  0.30300440567E+03  0.30300440567E+03  0.00000000000E+00 0. -1.
         -2   -1    0    0    0  501 -0.00000000000E+00 -0.00000000000E+00 -0.94053475869E+02  0.94053475869E+02  0.00000000000E+00 0.  1.
         25    2    1    2    0    0  0.84614733312E+02  0.96196395533E+02  0.11184505201E+03  0.21111706065E+03  0.12509075917E+03 0.  0.
          5    1    3    3  502    0 -0.27642259106E+02  0.12663423343E+02  0.48657815214E+02  0.57528359621E+02  0.41800000000E+01 0.  1.
         -5    1    3    3    0  502  0.11225699242E+03  0.83532972189E+02  0.63187236795E+02  0.15358870103E+03  0.41800000000E+01 0.  1.
        -11    1    1    2    0    0 -0.67857474742E+02 -0.18013221066E+02  0.15917951082E+02  0.71989542144E+02  0.00000000000E+00 0.  1.
         11    1    1    2    0    0 -0.16757258570E+02 -0.78183174466E+02  0.81187926707E+02  0.11395127874E+03  0.00000000000E+00 0. -1.
</event>
<event>
 7    1  0.2641580E-009  0.7619912E+02  0.7561462E-02  0.1340197E+00
          2   -1    0    0  501    0  0.00000000000E+00  0.00000000000E+00  0.55831924748E+02  0.55831924748E+02  0.00000000000E+00 0. -1.
         -2   -1    0    0    0  501 -0.00000000000E+00 -0.00000000000E+00 -0.25461395495E+03  0.25461395495E+03  0.00000000000E+00 0.  1.
         25    2    1    2    0    0 -0.75457844788E+01  0.30459642159E+02 -0.15769480334E+03  0.20371486249E+03  0.12508943014E+03 0.  0.
          5    1    3    3  502    0 -0.41468711110E+02  0.38400711877E+02 -0.15879800127E+03  0.16860766970E+03  0.41800000000E+01 0. -1.
         -5    1    3    3    0  502  0.33922926631E+02 -0.79410697183E+01  0.11031979295E+01  0.35107192784E+02  0.41800000000E+01 0. -1.
        -11    1    1    2    0    0 -0.21482764526E+02 -0.21161307542E+02  0.21554881696E+02  0.37066467778E+02  0.00000000000E+00 0. -1.
         11    1    1    2    0    0  0.29028549005E+02 -0.92983346169E+01 -0.62642108558E+02  0.69664549439E+02  0.00000000000E+00 0.  1.
</event>
<event>
 7    1  0.2641580E-009  0.1633235E+03  0.7561462E-02  0.1184995E+00
         -2   -1    0    0    0  501 -0.00000000000E+00  0.00000000000E+00  0.52603831661E+02  0.52603831661E+02  0.00000000000E+00 0.  1.
          2   -1    0    0  501    0  0.00000000000E+00 -0.00000000000E+00 -0.66024017148E+03  0.66024017148E+03  0.00000000000E+00 0. -1.
         25    2    1    2    0    0 -0.11131127790E+03  0.96087972909E+02 -0.38476132422E+03  0.43047767048E+03  0.12508656620E+03 0.  0.
          5    1    3    3  502    0  0.16903011235E+02  0.97270817758E+01 -0.51841263590E+01  0.20607655733E+02  0.41800000000E+01 0. -1.
         -5    1    3    3    0  502 -0.12821428914E+03  0.86360891134E+02 -0.37957719786E+03  0.40987001475E+03  0.41800000000E+01 0. -1.
        -11    1    1    2    0    0  0.10626015878E+03 -0.74217936828E+02 -0.22516370192E+03  0.25980418809E+03  0.00000000000E+00 0. -1.
         11    1    1    2    0    0  0.50511191259E+01 -0.21870036081E+02  0.22886863102E+01  0.22562144571E+02  0.00000000000E+00 0.  1.
</event>
<event>
 7    1  0.2641580E-009  0.1033550E+03  0.7561462E-02  0.1273395E+00
         -2   -1    0    0    0  501 -0.00000000000E+00  0.00000000000E+00  0.27073654306E+03  0.27073654306E+03  0.00000000000E+00 0.  1.
          2   -1    0    0  501    0  0.00000000000E+00 -0.00000000000E+00 -0.54701758670E+02  0.54701758670E+02  0.00000000000E+00 0. -1.
         25    2    1    2    0    0 -0.73687258016E+01  0.40975458335E+02  0.17941507776E+03  0.22264374360E+03  0.12508868907E+03 0.  0.
          5    1    3    3  502    0  0.44473129530E+02  0.41106357905E+02  0.15238009940E+03  0.16402670210E+03  0.41800000000E+01 0. -1.
         -5    1    3    3    0  502 -0.51841855332E+02 -0.13089957046E+00  0.27034978360E+02  0.58617041497E+02  0.41800000000E+01 0. -1.
        -11    1    1    2    0    0 -0.31739457153E+02 -0.44576158847E+02  0.10752734818E+02  0.55767807775E+02  0.00000000000E+00 0. -1.
         11    1    1    2    0    0  0.39108182955E+02  0.36007005122E+01  0.25866971816E+02  0.47026750357E+02  0.00000000000E+00 0.  1.
</event>
<event>
 7    1  0.2641580E-009  0.1093715E+03  0.7561462E-02  0.1261738E+00
         -2   -1    0    0    0  501 -0.00000000000E+00  0.00000000000E+00  0.87550039804E+02  0.87550039804E+02  0.00000000000E+00 0.  1.
          2   -1    0    0  501    0  0.00000000000E+00 -0.00000000000E+00 -0.16811080617E+03  0.16811080617E+03  0.00000000000E+00 0. -1.
         25    2    1    2    0    0 -0.31500840191E+02  0.32605541784E+02 -0.13448978211E+02  0.13374088344E+03  0.12510125739E+03 0.  0.
          5    1    3    3  502    0  0.45213032485E+02 -0.52038462542E+01  0.55271444503E+01  0.46036073335E+02  0.41800000000E+01 0.  1.
         -5    1    3    3    0  502 -0.76713872676E+02  0.37809388038E+02 -0.18976122662E+02  0.87704810108E+02  0.41800000000E+01 0.  1.
        -11    1    1    2    0    0 -0.21632598677E+02 -0.26073436878E+02  0.26529033897E+01  0.33982809368E+02  0.00000000000E+00 0.  1.
         11    1    1    2    0    0  0.53133438868E+02 -0.65321049057E+01 -0.69764691548E+02  0.87937153167E+02  0.00000000000E+00 0. -1.
</event>
<event>
 7    1  0.2641580E-009  0.1153010E+03  0.7561462E-02  0.1251057E+00
          1   -1    0    0  501    0  0.00000000000E+00  0.00000000000E+00  0.50216983625E+03  0.50216983625E+03  0.00000000000E+00 0. -1.
         -1   -1    0    0    0  501 -0.00000000000E+00 -0.00000000000E+00 -0.29038502348E+02  0.29038502348E+02  0.00000000000E+00 0.  1.
         25    2    1    2    0    0 -0.22043595374E+02  0.33160927850E+02  0.19068959240E+03  0.23150736833E+03  0.12509026224E+03 0.  0.
          5    1    3    3  502    0 -0.73020203901E+02  0.32420236538E+02  0.12108478578E+03  0.14512759787E+03  0.41800000000E+01 0.  1.
         -5    1    3    3    0  502  0.50976608526E+02  0.74069131216E+00  0.69604806617E+02  0.86379770460E+02  0.41800000000E+01 0.  1.
        -11    1    1    2    0    0  0.63969569561E+01 -0.64289072059E+02  0.16489313310E+03  0.17709813999E+03  0.00000000000E+00 0.  1.
         11    1    1    2    0    0  0.15646638418E+02  0.31128144208E+02  0.11754860840E+03  0.12260283028E+03  0.00000000000E+00 0. -1.
</event>
<event>
 7    1  0.2641580E-009  0.9709272E+02  0.7561462E-02  0.1286531E+00
         -2   -1    0    0    0  501 -0.00000000000E+00  0.00000000000E+00  0.21898984781E+02  0.21898984781E+02  0.00000000000E+00 0.  1.
          2   -1    0    0  501    0  0.00000000000E+00 -0.00000000000E+00 -0.65106291738E+03  0.65106291738E+03  0.00000000000E+00 0. -1.
         25    2    1    2    0    0  0.40681331824E+02  0.29459663037E+02 -0.38294787533E+03  0.40597959950E+03  0.12509003752E+03 0.  0.
          5    1    3    3  502    0 -0.12984131602E+02 -0.23381334972E+02 -0.26229809176E+03  0.26369117513E+03  0.41800000000E+01 0.  1.
         -5    1    3    3    0  502  0.53665463426E+02  0.52840998009E+02 -0.12064978356E+03  0.14228842437E+03  0.41800000000E+01 0.  1.
        -11    1    1    2    0    0 -0.43805179508E+02  0.15614012353E+02 -0.63166642180E+02  0.78439249217E+02  0.00000000000E+00 0.  1.
         11    1    1    2    0    0  0.31238476834E+01 -0.45073675389E+02 -0.18304941510E+03  0.18854305345E+03  0.00000000000E+00 0. -1.
</event>
<event>
 7    1  0.2641580E-009  0.1059887E+03  0.7561462E-02  0.1268184E+00
         -1   -1    0    0    0  501 -0.00000000000E+00  0.00000000000E+00  0.98780781008E+02  0.98780781008E+02  0.00000000000E+00 0.  1.
          1   -1    0    0  501    0  0.00000000000E+00 -0.00000000000E+00 -0.14419260489E+03  0.14419260489E+03  0.00000000000E+00 0. -1.
         25    2    1    2    0    0 -0.94713155786E+01 -0.48849983942E+02 -0.38753502000E+02  0.14009107626E+03  0.12509056312E+03 0.  0.
          5    1    3    3  502    0 -0.62758498740E+02 -0.50332692668E+02 -0.29704197661E+02  0.85859308604E+02  0.41800000000E+01 0. -1.
         -5    1    3    3    0  502  0.53287183162E+02  0.14827087264E+01 -0.90493043395E+01  0.54231767660E+02  0.41800000000E+01 0. -1.
        -11    1    1    2    0    0 -0.99412399889E+01 -0.11119476656E+02 -0.31718295989E+02  0.35050268388E+02  0.00000000000E+00 0. -1.
         11    1    1    2    0    0  0.19412555568E+02  0.59969460598E+02  0.25059974103E+02  0.67832041250E+02  0.00000000000E+00 0.  1.
</event>
<event>
 7    1  0.2641580E-009  0.2575326E+03  0.7561462E-02  0.1108635E+00
          1   -1    0    0  501    0  0.00000000000E+00  0.00000000000E+00  0.73233626520E+03  0.73233626520E+03  0.00000000000E+00 0. -1.
         -1   -1    0    0    0  501 -0.00000000000E+00 -0.00000000000E+00 -0.10165020002E+03  0.10165020002E+03  0.00000000000E+00 0.  1.
         25    2    1    2    0    0  0.97445184704E+02 -0.22897166929E+03  0.37281784687E+03  0.46536409401E+03  0.12508798377E+03 0.  0.
          5    1    3    3  502    0  0.56265655169E+02 -0.81385028837E+02  0.56869805822E+02  0.11419717196E+03  0.41800000000E+01 0.  1.
         -5    1    3    3    0  502  0.41179529535E+02 -0.14758664045E+03  0.31594804105E+03  0.35116692204E+03  0.41800000000E+01 0.  1.
        -11    1    1    2    0    0 -0.11068139202E+03  0.22135357770E+03  0.24845894559E+03  0.35068450856E+03  0.00000000000E+00 0. -1.
         11    1    1    2    0    0  0.13236207316E+02  0.76180915953E+01  0.94092727095E+01  0.17937862654E+02  0.00000000000E+00 0.  1.
</event>
<event>
 7    1  0.2641580E-009  0.1166904E+03  0.7561462E-02  0.1248659E+00
          2   -1    0    0  501    0  0.00000000000E+00  0.00000000000E+00  0.12482301917E+04  0.12482301917E+04  0.00000000000E+00 0. -1.
         -2   -1    0    0    0  501 -0.00000000000E+00 -0.00000000000E+00 -0.19445389042E+02  0.19445389042E+02  0.00000000000E+00 0.  1.
         25    2    1    2    0    0  0.81985217279E+02 -0.37874080593E+02  0.92621772382E+03  0.93897938310E+03  0.12508792165E+03 0.  0.
          5    1    3    3  502    0 -0.50708645784E+01 -0.16366972379E+02  0.14443310389E+02  0.22796338904E+02  0.41800000000E+01 0. -1.
         -5    1    3    3    0  502  0.87056081857E+02 -0.21507108214E+02  0.91177441343E+03  0.91618304420E+03  0.41800000000E+01 0. -1.
        -11    1    1    2    0    0 -0.13910887106E+02  0.54209656264E+02  0.10325650942E+03  0.11744831353E+03  0.00000000000E+00 0.  1.
         11    1    1    2    0    0 -0.68074330173E+02 -0.16335575671E+02  0.19931056944E+03  0.21124788413E+03  0.00000000000E+00 0. -1.
</event>
<event>
 7    1  0.2641580E-009  0.1451439E+03  0.7561462E-02  0.1206570E+00
         -2   -1    0    0    0  501 -0.00000000000E+00  0.00000000000E+00  0.10228217523E+04  0.10228217523E+04  0.00000000000E+00 0.  1.
          2   -1    0    0  501    0  0.00000000000E+00 -0.00000000000E+00 -0.21778929408E+02  0.21778929408E+02  0.00000000000E+00 0. -1.
         25    2    1    2    0    0 -0.92336123867E+02  0.35617943639E+02  0.51795741724E+03  0.54196187725E+03  0.12509273615E+03 0.  0.
          5    1    3    3  502    0 -0.11869561849E+03  0.74443961065E+01  0.35371037950E+03  0.37319240861E+03  0.41800000000E+01 0.  1.
         -5    1    3    3    0  502  0.26359494619E+02  0.28173547533E+02  0.16424703774E+03  0.16876946864E+03  0.41800000000E+01 0.  1.
        -11    1    1    2    0    0  0.37982389626E+02  0.29183420429E+02  0.25313771412E+03  0.25762964941E+03  0.00000000000E+00 0. -1.
         11    1    1    2    0    0  0.54353734241E+02 -0.64801364069E+02  0.22994769149E+03  0.24500915500E+03  0.00000000000E+00 0.  1.
</event>
<event>
 7    1  0.2641580E-009  0.2085012E+03  0.7561462E-02  0.1142758E+00
         -1   -1    0    0    0  501 -0.00000000000E+00  0.00000000000E+00  0.14788981269E+03  0.14788981269E+03  0.00000000000E+00 0.  1.
          1   -1    0    0  501    0  0.00000000000E+00 -0.00000000000E+00 -0.34894076466E+03  0.34894076466E+03  0.00000000000E+00 0. -1.
         25    2    1    2    0    0  0.17856962323E+03  0.80007971430E+02 -0.66960876906E+02  0.24169822696E+03  0.12508352428E+03 0.  0.
          5    1    3    3  502    0  0.18844101746E+03  0.69493948948E+02 -0.31703349125E+02  0.20337649999E+03  0.41800000000E+01 0.  1.
         -5    1    3    3    0  502 -0.98713942312E+01  0.10514022482E+02 -0.35257527781E+02  0.38321726971E+02  0.41800000000E+01 0.  1.
        -11    1    1    2    0    0 -0.13274148876E+03 -0.80542248622E+02 -0.56903230580E+02  0.16536424735E+03  0.00000000000E+00 0.  1.
         11    1    1    2    0    0 -0.45828134471E+02  0.53427719245E+00 -0.77186844483E+02  0.89768103035E+02  0.00000000000E+00 0. -1.
</event>
<event>
 7    1  0.2641580E-009  0.1631513E+03  0.7561462E-02  0.1185184E+00
          1   -1    0    0  501    0  0.00000000000E+00  0.00000000000E+00  0.95217543956E+02  0.95217543956E+02  0.00000000000E+00 0. -1.
         -1   -1    0    0    0  501 -0.00000000000E+00 -0.00000000000E+00 -0.30598579375E+03  0.30598579375E+03  0.00000000000E+00 0.  1.
         25    2    1    2    0    0 -0.12629757192E+03 -0.19926080505E+02 -0.14755260222E+03  0.23187773909E+03  0.12508952836E+03 0.  0.
          5    1    3    3  502    0 -0.43048205899E+02  0.49224859015E+02 -0.83171081567E+02  0.10588265196E+03  0.41800000000E+01 0.  1.
         -5    1    3    3    0  502 -0.83249366026E+02 -0.69150939520E+02 -0.64381520651E+02  0.12599508713E+03  0.41800000000E+01 0.  1.
        -11    1    1    2    0    0  0.13632716007E+03  0.28503450405E+02 -0.44087153416E+02  0.14608633870E+03  0.00000000000E+00 0.  1.
         11    1    1    2    0    0 -0.10029588147E+02 -0.85773698997E+01 -0.19128494164E+02  0.23239259923E+02  0.00000000000E+00 0. -1.
</event>
<event>
 7    1  0.2641580E-009  0.8139202E+02  0.7561462E-02  0.1325147E+00
         -2   -1    0    0    0  501 -0.00000000000E+00  0.00000000000E+00  0.13194715002E+03  0.13194715002E+03  0.00000000000E+00 0.  1.
          2   -1    0    0  501    0  0.00000000000E+00 -0.00000000000E+00 -0.10786145184E+03  0.10786145184E+03  0.00000000000E+00 0. -1.
         25    2    1    2    0    0 -0.17827002377E+02 -0.64039381855E+01 -0.33056163754E+02  0.13076357117E+03  0.12509032395E+03 0.  0.
          5    1    3    3  502    0 -0.22332320178E+02  0.41491692286E+02  0.26396394737E+02  0.54171349516E+02  0.41800000000E+01 0. -1.
         -5    1    3    3    0  502  0.45053178014E+01 -0.47895630471E+02 -0.59452558491E+02  0.76592221654E+02  0.41800000000E+01 0. -1.
        -11    1    1    2    0    0  0.38930396650E+02 -0.10307490580E+02 -0.57067713284E+01  0.40674161139E+02  0.00000000000E+00 0. -1.
         11    1    1    2    0    0 -0.21103394273E+02  0.16711428766E+02  0.62848633260E+02  0.68370869556E+02  0.00000000000E+00 0.  1.
</event>
<event>
 7    1  0.2641580E-009  0.9248983E+02  0.7561462E-02  0.1296932E+00
          1   -1    0    0  501    0  0.00000000000E+00  0.00000000000E+00  0.20193790983E+03  0.20193790983E+03  0.00000000000E+00 0. -1.
         -1   -1    0    0    0  501 -0.00000000000E+00 -0.00000000000E+00 -0.60850287684E+02  0.60850287684E+02  0.00000000000E+00 0.  1.
         25    2    1    2    0    0  0.19443647927E+02 -0.72117117612E+01  0.62549351511E+02  0.14138561818E+03  0.12508959758E+03 0.  0.
          5    1    3    3  502    0  0.54189935913E+02 -0.46015487979E+02  0.51738999267E+02  0.88024830209E+02  0.41800000000E+01 0. -1.
         -5    1    3    3    0  502 -0.34746287986E+02  0.38803776218E+02  0.10810352243E+02  0.53360787974E+02  0.41800000000E+01 0. -1.
        -11    1    1    2    0    0 -0.28910066613E+02  0.27011240797E+02 -0.30047508856E+00  0.39566265508E+02  0.00000000000E+00 0.  1.
         11    1    1    2    0    0  0.94664186866E+01 -0.19799529036E+02  0.78838745728E+02  0.81836313827E+02  0.00000000000E+00 0. -1.
</event>
<event>
 7    1  0.2641580E-009  0.1013635E+03  0.7561462E-02  0.1277455E+00
          2   -1    0    0  501    0  0.00000000000E+00  0.00000000000E+00  0.33108947841E+03  0.33108947841E+03  0.00000000000E+00 0. -1.
         -2   -1    0    0    0  501 -0.00000000000E+00 -0.00000000000E+00 -0.41736659751E+02  0.41736659751E+02  0.00000000000E+00 0.  1.
         25    2    1    2    0    0  0.13299790195E+02 -0.12110887588E+02  0.22850188359E+03  0.26112262084E+03  0.12509338229E+03 0.  0.
          5    1    3    3  502    0 -0.21827945347E+02  0.41840553636E+02  0.16067170808E+03  0.16751107815E+03  0.41800000000E+01 0.  1.
         -5    1    3    3    0  502  0.35127735542E+02 -0.53951441224E+02  0.67830175504E+02  0.93611542682E+02  0.41800000000E+01 0.  1.
        -11    1    1    2    0    0 -0.51363639520E+01  0.50919172974E+02  0.47596174632E+02  0.69889485980E+02  0.00000000000E+00 0. -1.
         11    1    1    2    0    0 -0.81634262427E+01 -0.38808285386E+02  0.13254760439E+02  0.41814031341E+02  0.00000000000E+00 0.  1.
</event>
<event>
 7    1  0.2641580E-009  0.2140886E+03  0.7561462E-02  0.1138369E+00
         -1   -1    0    0    0  501 -0.00000000000E+00  0.00000000000E+00  0.71077748401E+02  0.71077748401E+02  0.00000000000E+00 0.  1.
          1   -1    0    0  501    0  0.00000000000E+00 -0.00000000000E+00 -0.13191243054E+04  0.13191243054E+04  0.00000000000E+00 0. -1.
         25    2    1    2    0    0  0.18615061542E+03 -0.61773576972E+02 -0.11074559917E+04  0.11316243093E+04  0.12508707918E+03 0.  0.
          5    1    3    3  502    0  0.41151448273E+02  0.24026617728E+02 -0.10885968685E+03  0.11890594550E+03  0.41800000000E+01 0.  1.
         -5    1    3    3    0  502  0.14499916714E+03 -0.85800194700E+02 -0.99859630485E+03  0.10127183638E+04  0.41800000000E+01 0.  1.
        -11    1    1    2    0    0 -0.19333878630E+02 -0.18430967769E+02 -0.39475132740E+02  0.47663251469E+02  0.00000000000E+00 0. -1.
         11    1    1    2    0    0 -0.16681673679E+03  0.80204544741E+02 -0.10111543253E+03  0.21091449302E+03  0.00000000000E+00 0.  1.
</event>
<event>
 7    1  0.2641580E-009  0.1660520E+03  0.7561462E-02  0.1182029E+00
          1   -1    0    0  501    0  0.00000000000E+00  0.00000000000E+00  0.81167095265E+03  0.81167095265E+03  0.00000000000E+00 0. -1.
         -1   -1    0    0    0  501 -0.00000000000E+00 -0.00000000000E+00 -0.44249537667E+02  0.44249537667E+02  0.00000000000E+00 0.  1.
         25    2    1    2    0    0 -0.11136358366E+03 -0.11692301237E+03  0.34991522368E+03  0.40516822593E+03  0.12509112260E+03 0.  0.
          5    1    3    3  502    0 -0.79579115116E+02 -0.72895968566E+02  0.32992709348E+03  0.34715416922E+03  0.41800000000E+01 0.  1.
         -5    1    3    3    0  502 -0.31784468546E+02 -0.44027043804E+02  0.19988130199E+02  0.58014056708E+02  0.41800000000E+01 0.  1.
        -11    1    1    2    0    0  0.10750669491E+03  0.83837970133E+02  0.32524823959E+03  0.35266543925E+03  0.00000000000E+00 0.  1.
         11    1    1    2    0    0  0.38568887519E+01  0.33085042237E+02  0.92257951718E+02  0.98086825139E+02  0.00000000000E+00 0. -1.
</event>
<event>
 7    1  0.2641580E-009  0.1333120E+03  0.7561462E-02  0.1222622E+00
          3   -1    0    0  501    0  0.00000000000E+00  0.00000000000E+00  0.46319661286E+02  0.46319661286E+02  0.00000000000E+00 0. -1.
         -3   -1    0    0    0  501 -0.00000000000E+00 -0.00000000000E+00 -0.53684999402E+03  0.53684999402E+03  0.00000000000E+00 0.  1.
         25    2    1    2    0    0  0.10979094076E+02  0.11078867639E+03 -0.21859587772E+03  0.27536572035E+03  0.12508977122E+03 0.  0.
          5    1    3    3  502    0  0.40051847756E+02  0.50420617672E+02 -0.19302721817E+03  0.20352731647E+03  0.41800000000E+01 0. -1.
         -5    1    3    3    0  502 -0.29072753681E+02  0.60368058722E+02 -0.25568659550E+02  0.71838403877E+02  0.41800000000E+01 0. -1.
        -11    1    1    2    0    0  0.32478990195E+02 -0.36184454950E+02 -0.15500972300E+03  0.16245680598E+03  0.00000000000E+00 0.  1.
         11    1    1    2    0    0 -0.43458084270E+02 -0.74604221445E+02 -0.11692473201E+03  0.14534712897E+03  0.00000000000E+00 0. -1.
</event>
<event>
 7    1  0.2641580E-009  0.2212491E+03  0.7561462E-02  0.1132955E+00
          2   -1    0    0  501    0  0.00000000000E+00  0.00000000000E+00  0.68376482953E+03  0.68376482953E+03  0.00000000000E+00 0. -1.
         -2   -1    0    0    0  501 -0.00000000000E+00 -0.00000000000E+00 -0.96436052371E+02  0.96436052371E+02  0.00000000000E+00 0.  1.
         25    2    1    2    0    0  0.18181605387E+03  0.11098553616E+03  0.15403730397E+03  0.29111769984E+03  0.12508859846E+03 0.  0.
          5    1    3    3  502    0  0.90628208039E+01  0.18441958855E+02  0.78154290043E+02  0.80918514689E+02  0.41800000000E+01 0. -1.
         -5    1    3    3    0  502  0.17275323307E+03  0.92543577308E+02  0.75883013928E+02  0.21019918516E+03  0.41800000000E+01 0. -1.
        -11    1    1    2    0    0 -0.14657662388E+03 -0.11965534558E+03  0.38146596635E+03  0.42581497376E+03  0.00000000000E+00 0. -1.
         11    1    1    2    0    0 -0.35239429998E+02  0.86698094210E+01  0.51825506831E+02  0.63268208290E+02  0.00000000000E+00 0.  1.
</event>
<event>
 7    1  0.2641580E-009  0.1896250E+03  0.7561462E-02  0.1158800E+00
          1   -1    0    0  501    0  0.00000000000E+00  0.00000000000E+00  0.19742560985E+03  0.19742560985E+03  0.00000000000E+00 0.  1.
         -1   -1    0    0    0  501 -0.00000000000E+00 -0.00000000000E+00 -0.18829457323E+03  0.18829457323E+03  0.00000000000E+00 0. -1.
         25    2    1    2    0    0 -0.14379975740E+03 -0.67023177422E+02 -0.28731776803E+01  0.20205791561E+03  0.12509464245E+03 0.  0.
          5    1    3    3  502    0  0.13377520141E+02  0.17293210899E+02 -0.77712594651E+01  0.23577066441E+02  0.41800000000E+01 0. -1.
         -5    1    3    3    0  502 -0.15717727754E+03 -0.84316388321E+02  0.48980817848E+01  0.17848084917E+03  0.41800000000E+01 0. -1.
        -11    1    1    2    0    0  0.23961423293E+02 -0.19396732489E+02 -0.13629134407E+02  0.33706621637E+02  0.00000000000E+00 0.  1.
         11    1    1    2    0    0  0.11983833411E+03  0.86419909911E+02  0.25633348713E+02  0.14995564583E+03  0.00000000000E+00 0. -1.
</event>
<event>
 7    1  0.2641580E-009  0.3751521E+03  0.7561462E-02  0.1052740E+00
         -1   -1    0    0    0  501 -0.00000000000E+00  0.00000000000E+00  0.96220338933E+02  0.96220338933E+02  0.00000000000E+00 0.  1.
          1   -1    0    0  501    0  0.00000000000E+00 -0.00000000000E+00 -0.16071408045E+04  0.16071408045E+04  0.00000000000E+00 0. -1.
         25    2    1    2    0    0 -0.22664329388E+03 -0.29372424193E+03 -0.61034464280E+03  0.72512935596E+03  0.12510350485E+03 0.  0.
          5    1    3    3  502    0 -0.18614353579E+03 -0.25751481141E+03 -0.58342913523E+03  0.66435707436E+03  0.41800000000E+01 0. -1.
         -5    1    3    3    0  502 -0.40499758089E+02 -0.36209430517E+02 -0.26915507569E+02  0.60772281604E+02  0.41800000000E+01 0. -1.
        -11    1    1    2    0    0  0.13553436157E+03  0.11629813160E+03 -0.35609997911E+03  0.39837421315E+03  0.00000000000E+00 0.  1.
         11    1    1    2    0    0  0.91108932311E+02  0.17742611033E+03 -0.54447584366E+03  0.57985757433E+03  0.00000000000E+00 0. -1.
</event>
<event>
 7    1  0.2641580E-009  0.1312391E+03  0.7561462E-02  0.1225629E+00
          1   -1    0    0  501    0  0.00000000000E+00  0.00000000000E+00  0.52684307619E+02  0.52684307619E+02  0.00000000000E+00 0. -1.
         -1   -1    0    0    0  501 -0.00000000000E+00 -0.00000000000E+00 -0.50477679545E+03  0.50477679545E+03  0.00000000000E+00 0.  1.
         25    2    1    2    0    0  0.10285529637E+03 -0.64239264497E+02 -0.27341934113E+03  0.32420875505E+03  0.12508911084E+03 0.  0.
          5    1    3    3  502    0 -0.81083612873E+01 -0.19420312941E+02 -0.15260190904E+03  0.15410291729E+03  0.41800000000E+01 0.  1.
         -5    1    3    3    0  502  0.11096365766E+03 -0.44818951556E+02 -0.12081743210E+03  0.17010583775E+03  0.41800000000E+01 0.  1.
        -11    1    1    2    0    0 -0.30714237796E+02  0.19941886678E+02 -0.12200571130E+01  0.36640575692E+02  0.00000000000E+00 0. -1.
         11    1    1    2    0    0 -0.72141058576E+02  0.44297377819E+02 -0.17745308959E+03  0.19661177233E+03  0.00000000000E+00 0.  1.
</event>
<event>
 7    1  0.2641580E-009  0.1088248E+03  0.7561462E-02  0.1262762E+00
          4   -1    0    0  501    0  0.00000000000E+00  0.00000000000E+00  0.37386983754E+03  0.37386983754E+03  0.00000000000E+00 0.  1.
         -4   -1    0    0    0  501 -0.00000000000E+00 -0.00000000000E+00 -0.61825122712E+02  0.61825122712E+02  0.00000000000E+00 0. -1.
         25    2    1    2    0    0  0.34586551914E+01 -0.54015029518E+02  0.29906916636E+03  0.32866424408E+03  0.12509289892E+03 0.  0.
          5    1    3    3  502    0 -0.68889956178E+01 -0.94205078804E+02  0.21118542770E+03  0.23138455525E+03  0.41800000000E+01 0.  1.
         -5    1    3    3    0  502  0.10347650809E+02  0.40190049286E+02  0.87883738657E+02  0.97279688832E+02  0.41800000000E+01 0.  1.
        -11    1    1    2    0    0  0.20391989323E+02  0.53803495351E+02  0.40685280289E+02  0.70469435735E+02  0.00000000000E+00 0.  1.
         11    1    1    2    0    0 -0.23850644514E+02  0.21153416662E+00 -0.27709731814E+02  0.36561280444E+02  0.00000000000E+00 0. -1.
</event>
<event>
 7    1  0.2641580E-009  0.8530121E+02  0.7561462E-02  0.1314647E+00
          2   -1    0    0  501    0  0.00000000000E+00  0.00000000000E+00  0.17311029938E+03  0.17311029938E+03  0.00000000000E+00 0.  1.
         -2   -1    0    0    0  501 -0.00000000000E+00 -0.00000000000E+00 -0.10979582211E+03  0.10979582211E+03  0.00000000000E+00 0. -1.
         25    2    1    2    0    0 -0.34271652079E+02  0.59661086441E+02 -0.16492810872E+02  0.14371382558E+03  0.12509060509E+03 0.  0.
          5    1    3    3  502    0 -0.94952249422E+01  0.47361248951E+02  0.51172420575E+02  0.70493519038E+02  0.41800000000E+01 0. -1.
         -5    1    3    3    0  502 -0.24776427137E+02  0.12299837490E+02 -0.67665231447E+02  0.73220306547E+02  0.41800000000E+01 0. -1.
        -11    1    1    2    0    0  0.32714282084E+02  0.17032460237E+01  0.69655899310E+02  0.76974473743E+02  0.00000000000E+00 0.  1.
         11    1    1    2    0    0  0.15573699959E+01 -0.61364332464E+02  0.10151388833E+02  0.62217822168E+02  0.00000000000E+00 0. -1.
</event>
<event>
 7    1  0.2641580E-009  0.7669866E+02  0.7561462E-02  0.1338690E+00
          2   -1    0    0  501    0  0.00000000000E+00  0.00000000000E+00  0.12364788252E+03  0.12364788252E+03  0.00000000000E+00 0. -1.
         -2   -1    0    0    0  501 -0.00000000000E+00 -0.00000000000E+00 -0.10660576229E+03  0.10660576229E+03  0.00000000000E+00 0.  1.
         25    2    1    2    0    0  0.44679355934E+00 -0.13265827176E+02  0.77217619127E+01  0.12605655651E+03  0.12511773670E+03 0.  0.
          5    1    3    3  502    0 -0.15760940867E+02  0.16303951882E+02  0.59677013529E+02  0.63976905581E+02  0.41800000000E+01 0.  1.
         -5    1    3    3    0  502  0.16207734426E+02 -0.29569779058E+02 -0.51955251616E+02  0.62079650927E+02  0.41800000000E+01 0.  1.
        -11    1    1    2    0    0  0.26045074266E+02 -0.33607649264E+02 -0.15040927604E+02  0.45100437756E+02  0.00000000000E+00 0. -1.
         11    1    1    2    0    0 -0.26491867826E+02  0.46873476440E+02  0.24361285915E+02  0.59096650547E+02  0.00000000000E+00 0.  1.
</event>
<event>
 7    1  0.2641580E-009  0.1154450E+03  0.7561462E-02  0.1250806E+00
          1   -1    0    0  501    0  0.00000000000E+00  0.00000000000E+00  0.16072913915E+03  0.16072913915E+03  0.00000000000E+00 0. -1.
         -1   -1    0    0    0  501 -0.00000000000E+00 -0.00000000000E+00 -0.10581545806E+03  0.10581545806E+03  0.00000000000E+00 0.  1.
         25    2    1    2    0    0 -0.97327340964E+01  0.46005264710E+02  0.88843805091E+02  0.16047361563E+03  0.12508936452E+03 0.  0.
          5    1    3    3  502    0  0.93017881903E+01  0.87223668370E+02  0.54019381793E+02  0.10310217067E+03  0.41800000000E+01 0.  1.
         -5    1    3    3    0  502 -0.19034522287E+02 -0.41218403660E+02  0.34824423298E+02  0.57371444962E+02  0.41800000000E+01 0.  1.
        -11    1    1    2    0    0 -0.37731874723E+02 -0.26776319065E+02 -0.29040963576E+02  0.54626396533E+02  0.00000000000E+00 0.  1.
         11    1    1    2    0    0  0.47464608819E+02 -0.19228945645E+02 -0.48891604243E+01  0.51444585047E+02  0.00000000000E+00 0. -1.
</event>
<event>
 7    1  0.2641580E-009  0.2349293E+03  0.7561462E-02  0.1123218E+00
          2   -1    0    0  501    0  0.00000000000E+00  0.00000000000E+00  0.17926806377E+04  0.17926806377E+04  0.00000000000E+00 0. -1.
         -2   -1    0    0    0  501 -0.00000000000E+00 -0.00000000000E+00 -0.39175822133E+02  0.39175822133E+02  0.00000000000E+00 0.  1.
         25    2    1    2    0    0 -0.24365083562E+02 -0.22253957475E+03  0.12145934212E+04  0.12413712053E+04  0.12509105129E+03 0.  0.
          5    1    3    3  502    0 -0.62922435782E+02 -0.13545957665E+03  0.54836037512E+03  0.56835297416E+03  0.41800000000E+01 0. -1.
         -5    1    3    3    0  502  0.38557352220E+02 -0.87079998098E+02  0.66623304603E+03  0.67301823118E+03  0.41800000000E+01 0. -1.
        -11    1    1    2    0    0 -0.31999309267E+01  0.72009619807E+02  0.84874982465E+02  0.11135253725E+03  0.00000000000E+00 0.  1.
         11    1    1    2    0    0  0.27565014488E+02  0.15052995494E+03  0.45403641191E+03  0.47913271720E+03  0.00000000000E+00 0. -1.
</event>
<event>
 7    1  0.2641580E-009  0.9781779E+02  0.7561462E-02  0.1284953E+00
          3   -1    0    0  501    0  0.00000000000E+00  0.00000000000E+00  0.46919117781E+03  0.46919117781E+03  0.00000000000E+00 0. -1.
         -3   -1    0    0    0  501 -0.00000000000E+00 -0.00000000000E+00 -0.31582828475E+02  0.31582828475E+02  0.00000000000E+00 0.  1.
         25    2    1    2    0    0 -0.35127326745E+02 -0.21763141905E+02  0.16847078599E+03  0.21386329296E+03  0.12509012316E+03 0.  0.
          5    1    3    3  502    0  0.24456265811E+02  0.17454684060E+02  0.12841116190E+03  0.13194572306E+03  0.41800000000E+01 0. -1.
         -5    1    3    3    0  502 -0.59583592556E+02 -0.39217825965E+02  0.40059624090E+02  0.81917569895E+02  0.41800000000E+01 0. -1.
        -11    1    1    2    0    0  0.40985462221E+02  0.50203135359E+02  0.22443834077E+03  0.23360807289E+03  0.00000000000E+00 0. -1.
         11    1    1    2    0    0 -0.58581354763E+01 -0.28439993454E+02  0.44699222574E+02  0.53302640438E+02  0.00000000000E+00 0.  1.
</event>
<event>
 7    1  0.2641580E-009  0.1162692E+03  0.7561462E-02  0.1249382E+00
          1   -1    0    0  501    0  0.00000000000E+00  0.00000000000E+00  0.13890581030E+03  0.13890581030E+03  0.00000000000E+00 0. -1.
         -1   -1    0    0    0  501 -0.00000000000E+00 -0.00000000000E+00 -0.10809906779E+03  0.10809906779E+03  0.00000000000E+00 0.  1.
         25    2    1    2    0    0  0.54225230727E+02  0.14195005966E+02  0.54719427543E+01  0.13718561388E+03  0.12509227257E+03 0.  0.
          5    1    3    3  502    0  0.29690810085E+02 -0.55483753783E+02  0.13744444861E+01  0.63082110261E+02  0.41800000000E+01 0.  1.
         -5    1    3    3    0  502  0.24534420642E+02  0.69678759749E+02  0.40974982682E+01  0.74103503618E+02  0.41800000000E+01 0.  1.
        -11    1    1    2    0    0 -0.61656961505E+02  0.16559029001E+02 -0.74288293290E+01  0.64272621299E+02  0.00000000000E+00 0.  1.
         11    1    1    2    0    0  0.74317307782E+01 -0.30754034967E+02  0.32763629090E+02  0.45546642908E+02  0.00000000000E+00 0. -1.
</event>
<event>
 7    1  0.3563304E-009  0.1108928E+03  0.7561462E-02  0.1258925E+00
         -1   -1    0    0    0  501 -0.00000000000E+00  0.00000000000E+00  0.56199620332E+02  0.56199620332E+02  0.00000000000E+00 0.  1.
          1   -1    0    0  501    0  0.00000000000E+00 -0.00000000000E+00 -0.40616010486E+03  0.40616010486E+03  0.00000000000E+00 0. -1.
         25    2    1    2    0    0 -0.28536180415E+02 -0.79394198332E+02 -0.28299852277E+03  0.32070734701E+03  0.12508911308E+03 0.  0.
          5    1    3    3  502    0  0.31827083051E+02 -0.67891152482E+02 -0.85352127103E+02  0.11368654187E+03  0.41800000000E+01 0.  1.
         -5    1    3    3    0  502 -0.60363263465E+02 -0.11503045851E+02 -0.19764639567E+03  0.20702080514E+03  0.41800000000E+01 0.  1.
        -11    1    1    2    0    0  0.76748163431E+01  0.37716164141E+02 -0.83704032252E+02  0.92129131433E+02  0.00000000000E+00 0. -1.
         11    1    1    2    0    0  0.20861364072E+02  0.41678034191E+02  0.16742070490E+02  0.49523246756E+02  0.00000000000E+00 0.  1.
</event>
<event>
 7    1  0.2641580E-009  0.1339623E+03  0.7561462E-02  0.1221692E+00
         -1   -1    0    0    0  501 -0.00000000000E+00  0.00000000000E+00  0.13508041707E+03  0.13508041707E+03  0.00000000000E+00 0.  1.
          1   -1    0    0  501    0  0.00000000000E+00 -0.00000000000E+00 -0.14381891666E+03  0.14381891666E+03  0.00000000000E+00 0. -1.
         25    2    1    2    0    0 -0.49645806770E+02 -0.63175044662E+02  0.26363007718E+02  0.15097889480E+03  0.12507528174E+03 0.  0.
          5    1    3    3  502    0 -0.66972698184E+02  0.11610465517E+02  0.29083804614E+02  0.74050559095E+02  0.41800000000E+01 0.  1.
         -5    1    3    3    0  502  0.17326891414E+02 -0.74785510180E+02 -0.27207968955E+01  0.76928335707E+02  0.41800000000E+01 0.  1.
        -11    1    1    2    0    0  0.73395074242E+02  0.24159767066E+02 -0.20033141451E+02  0.79823918872E+02  0.00000000000E+00 0.  1.
         11    1    1    2    0    0 -0.23749267473E+02  0.39015277596E+02 -0.15068365854E+02  0.48096520050E+02  0.00000000000E+00 0. -1.
</event>
<event>
 7    1  0.2641580E-009  0.8939333E+02  0.7561462E-02  0.1304328E+00
         -2   -1    0    0    0  501 -0.00000000000E+00  0.00000000000E+00  0.31866241599E+03  0.31866241599E+03  0.00000000000E+00 0.  1.
          2   -1    0    0  501    0  0.00000000000E+00 -0.00000000000E+00 -0.44253357056E+02  0.44253357056E+02  0.00000000000E+00 0. -1.
         25    2    1    2    0    0 -0.26456250764E+02 -0.35788202192E+02  0.16457368363E+03  0.21145228782E+03  0.12508734572E+03 0.  0.
          5    1    3    3  502    0  0.84505843015E+01 -0.52595763409E+02  0.13058692878E+02  0.55006622904E+02  0.41800000000E+01 0.  1.
         -5    1    3    3    0  502 -0.34906835065E+02  0.16807561217E+02  0.15151499075E+03  0.15644566491E+03  0.41800000000E+01 0.  1.
        -11    1    1    2    0    0  0.66702060537E+01  0.56993583257E+02  0.26463048743E+02  0.63190609508E+02  0.00000000000E+00 0. -1.
         11    1    1    2    0    0  0.19786044710E+02 -0.21205381065E+02  0.83372326558E+02  0.88272875716E+02  0.00000000000E+00 0.  1.
</event>
<event>
 7    1  0.2641580E-009  0.1666829E+03  0.7561462E-02  0.1181352E+00
          2   -1    0    0  501    0  0.00000000000E+00  0.00000000000E+00  0.73123880442E+03  0.73123880442E+03  0.00000000000E+00 0. -1.
         -2   -1    0    0    0  501 -0.00000000000E+00 -0.00000000000E+00 -0.43037048300E+02  0.43037048300E+02  0.00000000000E+00 0.  1.
         25    2    1    2    0    0 -0.14411903620E+03 -0.27372330523E+01  0.42599749174E+03  0.46679708038E+03  0.12509141554E+03 0.  0.
          5    1    3    3  502    0 -0.16002877528E+03 -0.14453732082E+01  0.30294575802E+03  0.34264398831E+03  0.41800000000E+01 0.  1.
         -5    1    3    3    0  502  0.15909739081E+02 -0.12918598441E+01  0.12305173372E+03  0.12415309207E+03  0.41800000000E+01 0.  1.
        -11    1    1    2    0    0  0.11386830181E+03  0.28117146759E+02  0.16392836153E+03  0.20156654438E+03  0.00000000000E+00 0.  1.
         11    1    1    2    0    0  0.30250734384E+02 -0.25379913707E+02  0.98275902850E+02  0.10591222796E+03  0.00000000000E+00 0. -1.
</event>
<event>
 7    1  0.2641580E-009  0.1140297E+03  0.7561462E-02  0.1253284E+00
         -2   -1    0    0    0  501 -0.00000000000E+00  0.00000000000E+00  0.47683109101E+02  0.47683109101E+02  0.00000000000E+00 0.  1.
          2   -1    0    0  501    0  0.00000000000E+00 -0.00000000000E+00 -0.47917005897E+03  0.47917005897E+03  0.00000000000E+00 0. -1.
         25    2    1    2    0    0 -0.13334032377E+01  0.50816594290E+02 -0.39301269987E+03  0.41555982196E+03  0.12508748596E+03 0.  0.
          5    1    3    3  502    0  0.53670630313E+02 -0.48753317568E+01 -0.20154542473E+03  0.20866800437E+03  0.41800000000E+01 0. -1.
         -5    1    3    3    0  502 -0.55004033551E+02  0.55691926047E+02 -0.19146727514E+03  0.20689181759E+03  0.41800000000E+01 0. -1.
        -11    1    1    2    0    0 -0.19368836449E+02 -0.66744850860E+02 -0.46905045282E+02  0.83845752514E+02  0.00000000000E+00 0. -1.
         11    1    1    2    0    0  0.20702239687E+02  0.15928256570E+02  0.84307952845E+01  0.27447593602E+02  0.00000000000E+00 0.  1.
</event>
<event>
 7    1  0.2641580E-009  0.2539036E+03  0.7561462E-02  0.1110862E+00
         -1   -1    0    0    0  501 -0.00000000000E+00  0.00000000000E+00  0.13642521583E+03  0.13642521583E+03  0.00000000000E+00 0.  1.
          1   -1    0    0  501    0  0.00000000000E+00 -0.00000000000E+00 -0.53113472376E+03  0.53113472376E+03  0.00000000000E+00 0. -1.
         25    2    1    2    0    0 -0.11420039100E+03  0.21694044540E+03 -0.22166822721E+03  0.35339404109E+03  0.12508260935E+03 0.  0.
          5    1    3    3  502    0 -0.84253173675E+02  0.66245684542E+02 -0.37749878811E+02  0.11370845943E+03  0.41800000000E+01 0. -1.
         -5    1    3    3    0  502 -0.29947217326E+02  0.15069476086E+03 -0.18391834840E+03  0.23968558166E+03  0.41800000000E+01 0. -1.
        -11    1    1    2    0    0  0.36716938455E+02 -0.43744334684E+02 -0.91029568840E+02  0.10746200626E+03  0.00000000000E+00 0. -1.
         11    1    1    2    0    0  0.77483452547E+02 -0.17319611072E+03 -0.82011711876E+02  0.20670389225E+03  0.00000000000E+00 0.  1.
</event>
<event>
 7    1  0.2641580E-009  0.9709507E+02  0.7561462E-02  0.1286526E+00
          2   -1    0    0  501    0  0.00000000000E+00  0.00000000000E+00  0.45661245054E+03  0.45661245054E+03  0.00000000000E+00 0. -1.
         -2   -1    0    0    0  501 -0.00000000000E+00 -0.00000000000E+00 -0.28776000252E+02  0.28776000252E+02  0.00000000000E+00 0.  1.
         25    2    1    2    0    0 -0.35403096784E+02 -0.13077586232E+02  0.24356604330E+03  0.27639951275E+03  0.12509144925E+03 0.  0.
          5    1    3    3  502    0  0.25552811097E+02 -0.21841555981E+02  0.10748503611E+02  0.35538745792E+02  0.41800000000E+01 0.  1.
         -5    1    3    3    0  502 -0.60955907881E+02  0.87639697482E+01  0.23281753969E+03  0.24086076695E+03  0.41800000000E+01 0.  1.
        -11    1    1    2    0    0  0.51201779054E+02 -0.25283710652E+02  0.10749229929E+03  0.12171886710E+03  0.00000000000E+00 0. -1.
         11    1    1    2    0    0 -0.15798682270E+02  0.38361296884E+02  0.76778107705E+02  0.87270070946E+02  0.00000000000E+00 0.  1.
</event>
<event>
 7    1  0.2641580E-009  0.1260286E+03  0.7561462E-02  0.1233470E+00
         -2   -1    0    0    0  501 -0.00000000000E+00  0.00000000000E+00  0.46723975654E+03  0.46723975654E+03  0.00000000000E+00 0.  1.
          2   -1    0    0  501    0  0.00000000000E+00 -0.00000000000E+00 -0.46143529965E+02  0.46143529965E+02  0.00000000000E+00 0. -1.
         25    2    1    2    0    0  0.21675764074E+01  0.68902083467E+02  0.35388048383E+03  0.38161607346E+03  0.12508890914E+03 0.  0.
          5    1    3    3  502    0  0.55442945415E+02  0.66635272494E+02  0.18251862181E+03  0.20210071609E+03  0.41800000000E+01 0.  1.
         -5    1    3    3    0  502 -0.53275369007E+02  0.22668109729E+01  0.17136186203E+03  0.17951535737E+03  0.41800000000E+01 0.  1.
        -11    1    1    2    0    0  0.42404607348E+02 -0.25015947817E+02  0.18931559549E+02  0.52748007702E+02  0.00000000000E+00 0.  1.
         11    1    1    2    0    0 -0.44572183756E+02 -0.43886135650E+02  0.48284183197E+02  0.79019205349E+02  0.00000000000E+00 0. -1.
</event>
<event>
 7    1  0.2641580E-009  0.1580775E+03  0.7561462E-02  0.1190884E+00
         -1   -1    0    0    0  501 -0.00000000000E+00  0.00000000000E+00  0.26602323589E+02  0.26602323589E+02  0.00000000000E+00 0.  1.
          1   -1    0    0  501    0  0.00000000000E+00 -0.00000000000E+00 -0.11413450950E+04  0.11413450950E+04  0.00000000000E+00 0. -1.
         25    2    1    2    0    0 -0.32662816791E+02 -0.12614548922E+03 -0.70956685196E+03  0.73219645408E+03  0.12508791277E+03 0.  0.
          5    1    3    3  502    0  0.35314995148E+02 -0.10237297728E+03 -0.43890885816E+03  0.45209051475E+03  0.41800000000E+01 0. -1.
         -5    1    3    3    0  502 -0.67977811940E+02 -0.23772511937E+02 -0.27065799380E+03  0.28010593933E+03  0.41800000000E+01 0. -1.
        -11    1    1    2    0    0  0.12249146077E+02  0.10686914771E+03 -0.38845244048E+03  0.40307115355E+03  0.00000000000E+00 0.  1.
         11    1    1    2    0    0  0.20413670714E+02  0.19276341503E+02 -0.16723478935E+02  0.32679810916E+02  0.00000000000E+00 0. -1.
</event>
<event>
 7    1  0.2641580E-009  0.2177913E+03  0.7561462E-02  0.1135541E+00
          1   -1    0    0  501    0  0.00000000000E+00  0.00000000000E+00  0.12489995413E+03  0.12489995413E+03  0.00000000000E+00 0. -1.
         -1   -1    0    0    0  501 -0.00000000000E+00 -0.00000000000E+00 -0.47415011676E+03  0.47415011676E+03  0.00000000000E+00 0.  1.
         25    2    1    2    0    0  0.15584146811E+03  0.10636014286E+03 -0.46763326544E+02  0.23116222477E+03  0.12510044876E+03 0.  0.
          5    1    3    3  502    0  0.13463071315E+03  0.18629253158E+02 -0.30465809604E+02  0.13934890008E+03  0.41800000000E+01 0. -1.
         -5    1    3    3    0  502  0.21210754956E+02  0.87730889699E+02 -0.16297516940E+02  0.91813324695E+02  0.41800000000E+01 0. -1.
        -11    1    1    2    0    0 -0.84395971659E+01 -0.51158908624E+02 -0.80823955716E+02  0.96025895202E+02  0.00000000000E+00 0.  1.
         11    1    1    2    0    0 -0.14740187094E+03 -0.55201234234E+02 -0.22166288037E+03  0.27186195091E+03  0.00000000000E+00 0. -1.
</event>
<event>
 7    1  0.2641580E-009  0.1241980E+03  0.7561462E-02  0.1236328E+00
          2   -1    0    0  501    0  0.00000000000E+00  0.00000000000E+00  0.44034345185E+03  0.44034345185E+03  0.00000000000E+00 0. -1.
         -2   -1    0    0    0  501 -0.00000000000E+00 -0.00000000000E+00 -0.44432259155E+02  0.44432259155E+02  0.00000000000E+00 0.  1.
         25    2    1    2    0    0  0.45005455618E+02  0.48359541410E+02  0.31407208927E+03  0.34445993455E+03  0.12508890025E+03 0.  0.
          5    1    3    3  502    0  0.39522663572E+02  0.86861493479E+02  0.26510123334E+03  0.28178555020E+03  0.41800000000E+01 0. -1.
         -5    1    3    3    0  502  0.54827920451E+01 -0.38501952068E+02  0.48970855933E+02  0.62674384341E+02  0.41800000000E+01 0. -1.
        -11    1    1    2    0    0  0.28789975278E+02 -0.18063128459E+02  0.28483265484E+02  0.44344511485E+02  0.00000000000E+00 0. -1.
         11    1    1    2    0    0 -0.73795430895E+02 -0.30296412952E+02  0.53355837934E+02  0.95971264972E+02  0.00000000000E+00 0.  1.
</event>
<event>
 7    1  0.2641580E-009  0.8698689E+02  0.7561462E-02  0.1310317E+00
         -2   -1    0    0    0  501 -0.00000000000E+00  0.00000000000E+00  0.50600390160E+02  0.50600390160E+02  0.00000000000E+00 0.  1.
          2   -1    0    0  501    0  0.00000000000E+00 -0.00000000000E+00 -0.28228204285E+03  0.28228204285E+03  0.00000000000E+00 0. -1.
         25    2    1    2    0    0  0.51422595586E+02  0.12602092104E+02 -0.12874534533E+03  0.18714957482E+03  0.12508598383E+03 0.  0.
          5    1    3    3  502    0  0.59971569430E+02  0.31374562059E+01 -0.15021584440E+03  0.16182924668E+03  0.41800000000E+01 0. -1.
         -5    1    3    3    0  502 -0.85489738443E+01  0.94646358980E+01  0.21470499076E+02  0.25320328139E+02  0.41800000000E+01 0. -1.
        -11    1    1    2    0    0 -0.75482794544E+02 -0.87851610039E+01 -0.61909352403E+02  0.98018361754E+02  0.00000000000E+00 0.  1.
         11    1    1    2    0    0  0.24060198958E+02 -0.38169310999E+01 -0.41026954963E+02  0.47714496440E+02  0.00000000000E+00 0. -1.
</event>
<event>
 7    1  0.2641580E-009  0.1084598E+03  0.7561462E-02  0.1263449E+00
          2   -1    0    0  501    0  0.00000000000E+00  0.00000000000E+00  0.22225157075E+03  0.22225157075E+03  0.00000000000E+00 0. -1.
         -2   -1    0    0    0  501 -0.00000000000E+00 -0.00000000000E+00 -0.67186033029E+02  0.67186033029E+02  0.00000000000E+00 0.  1.
         25    2    1    2    0    0 -0.22609711176E+02  0.50322918915E+02  0.75429935004E+02  0.15614358139E+03  0.12509015831E+03 0.  0.
          5    1    3    3  502    0  0.15895201373E+02  0.78968520048E+02  0.20783983753E+02  0.83295443849E+02  0.41800000000E+01 0. -1.
         -5    1    3    3    0  502 -0.38504912549E+02 -0.28645601134E+02  0.54645951251E+02  0.72848137538E+02  0.41800000000E+01 0. -1.
        -11    1    1    2    0    0  0.16443224194E+01  0.17253448299E+02 -0.92823240524E+01  0.19660793835E+02  0.00000000000E+00 0.  1.
         11    1    1    2    0    0  0.20965388756E+02 -0.67576367213E+02  0.88917926773E+02  0.11363322856E+03  0.00000000000E+00 0. -1.
</event>
<event>
 7    1  0.2641580E-009  0.1228761E+03  0.7561462E-02  0.1238426E+00
         -2   -1    0    0    0  501 -0.00000000000E+00  0.00000000000E+00  0.60555943911E+02  0.60555943911E+02  0.00000000000E+00 0.  1.
          2   -1    0    0  501    0  0.00000000000E+00 -0.00000000000E+00 -0.35758123686E+03  0.35758123686E+03  0.00000000000E+00 0. -1.
         25    2    1    2    0    0 -0.52059779488E+02  0.57024813481E+02 -0.25097328283E+03  0.29085552447E+03  0.12508915793E+03 0.  0.
          5    1    3    3  502    0  0.23077269764E+02  0.53077157999E+02 -0.17276603773E+03  0.18225070994E+03  0.41800000000E+01 0.  1.
         -5    1    3    3    0  502 -0.75137049251E+02  0.39476554820E+01 -0.78207245097E+02  0.10860481453E+03  0.41800000000E+01 0.  1.
        -11    1    1    2    0    0  0.62459195334E+02 -0.88497884916E+01 -0.45869421334E+02  0.77996625899E+02  0.00000000000E+00 0. -1.
         11    1    1    2    0    0 -0.10399415846E+02 -0.48175024989E+02 -0.18258878756E+00  0.49285030398E+02  0.00000000000E+00 0.  1.
</event>
<event>
 7    1  0.2641580E-009  0.8808121E+02  0.7561462E-02  0.1307566E+00
          2   -1    0    0  501    0  0.00000000000E+00  0.00000000000E+00  0.62367269176E+03  0.62367269176E+03  0.00000000000E+00 0.  1.
         -2   -1    0    0    0  501 -0.00000000000E+00 -0.00000000000E+00 -0.40033781953E+02  0.40033781953E+02  0.00000000000E+00 0. -1.
         25    2    1    2    0    0 -0.57780779595E+01  0.20603155217E+02  0.55124134056E+03  0.56566112425E+03  0.12509043029E+03 0.  0.
          5    1    3    3  502    0  0.30789569155E+02 -0.25831116088E+02  0.70312619619E+02  0.81096122008E+02  0.41800000000E+01 0. -1.
         -5    1    3    3    0  502 -0.36567647115E+02  0.46434271306E+02  0.48092872094E+03  0.48456500224E+03  0.41800000000E+01 0. -1.
        -11    1    1    2    0    0 -0.30151700858E+02 -0.26440397739E+02  0.44292910352E+02  0.59750159871E+02  0.00000000000E+00 0.  1.
         11    1    1    2    0    0  0.35929778818E+02  0.58372425217E+01 -0.11895341106E+02  0.38295189596E+02  0.00000000000E+00 0. -1.
</event>
<event>
 7    1  0.2641580E-009  0.2354618E+03  0.7561462E-02  0.1122854E+00
         -2   -1    0    0    0  501 -0.00000000000E+00  0.00000000000E+00  0.46373266238E+02  0.46373266238E+02  0.00000000000E+00 0.  1.
          2   -1    0    0  501    0  0.00000000000E+00 -0.00000000000E+00 -0.14010068024E+04  0.14010068024E+04  0.00000000000E+00 0. -1.
         25    2    1    2    0    0  0.12867559328E+03 -0.18596878421E+03 -0.57844579599E+03  0.63355257385E+03  0.12509007925E+03 0.  0.
          5    1    3    3  502    0  0.38368298709E+02 -0.71898302653E+00 -0.34179228691E+02  0.51559047279E+02  0.41800000000E+01 0.  1.
         -5    1    3    3    0  502  0.90307294575E+02 -0.18524980118E+03 -0.54426656729E+03  0.58199352657E+03  0.41800000000E+01 0.  1.
        -11    1    1    2    0    0 -0.33448442354E+02  0.51836697905E+02 -0.96632743935E+02  0.11464610218E+03  0.00000000000E+00 0.  1.
         11    1    1    2    0    0 -0.95227150930E+02  0.13413208631E+03 -0.67955499621E+03  0.69918139258E+03  0.00000000000E+00 0. -1.
</event>
<event>
 7    1  0.2641580E-009  0.8532995E+02  0.7561462E-02  0.1314572E+00
         -2   -1    0    0    0  501 -0.00000000000E+00  0.00000000000E+00  0.16967980869E+03  0.16967980869E+03  0.00000000000E+00 0.  1.
          2   -1    0    0  501    0  0.00000000000E+00 -0.00000000000E+00 -0.72279165590E+02  0.72279165590E+02  0.00000000000E+00 0. -1.
         25    2    1    2    0    0  0.15732529765E+02  0.59373973999E+00  0.36856790923E+02  0.13135735591E+03  0.12509383237E+03 0.  0.
          5    1    3    3  502    0 -0.44970334362E+02  0.29916475356E+02 -0.49060426717E+00  0.54176005417E+02  0.41800000000E+01 0. -1.
         -5    1    3    3    0  502  0.60702864127E+02 -0.29322735616E+02  0.37347395190E+02  0.77181350498E+02  0.41800000000E+01 0. -1.
        -11    1    1    2    0    0 -0.32204416283E+02 -0.27892970936E+01  0.79244870064E+02  0.85584192687E+02  0.00000000000E+00 0.  1.
         11    1    1    2    0    0  0.16471886519E+02  0.21955573536E+01 -0.18701017886E+02  0.25017425678E+02  0.00000000000E+00 0. -1.
</event>
<event>
 7    1  0.2641580E-009  0.1038563E+03  0.7561462E-02  0.1272389E+00
          2   -1    0    0  501    0  0.00000000000E+00  0.00000000000E+00  0.36286204630E+03  0.36286204630E+03  0.00000000000E+00 0. -1.
         -2   -1    0    0    0  501 -0.00000000000E+00 -0.00000000000E+00 -0.39964948367E+02  0.39964948367E+02  0.00000000000E+00 0.  1.
         25    2    1    2    0    0  0.41018912396E+02  0.16845811613E+02  0.22931528256E+03  0.26495082910E+03  0.12508841065E+03 0.  0.
          5    1    3    3  502    0 -0.52319240208E+01 -0.38466499438E+02  0.16054282211E+03  0.16522262175E+03  0.41800000000E+01 0.  1.
         -5    1    3    3    0  502  0.46250836416E+02  0.55312311050E+02  0.68772460454E+02  0.99728207343E+02  0.41800000000E+01 0.  1.
        -11    1    1    2    0    0 -0.66237010128E+02 -0.21560134928E+00  0.82267788552E+02  0.10561901831E+03  0.00000000000E+00 0. -1.
         11    1    1    2    0    0  0.25218097733E+02 -0.16630210264E+02  0.11314026812E+02  0.32257147260E+02  0.00000000000E+00 0.  1.
</event>
<event>
 7    1  0.2641580E-009  0.1114102E+03  0.7561462E-02  0.1257981E+00
         -2   -1    0    0    0  501 -0.00000000000E+00  0.00000000000E+00  0.12766219575E+03  0.12766219575E+03  0.00000000000E+00 0.  1.
          2   -1    0    0  501    0  0.00000000000E+00 -0.00000000000E+00 -0.14315905360E+03  0.14315905360E+03  0.00000000000E+00 0. -1.
         25    2    1    2    0    0 -0.87514094610E+02 -0.15507397185E+02  0.11546732960E+02  0.15387760190E+03  0.12508314515E+03 0.  0.
          5    1    3    3  502    0 -0.10032999289E+03 -0.29825907429E+02  0.45841653536E+02  0.11434431261E+03  0.41800000000E+01 0.  1.
         -5    1    3    3    0  502  0.12815898283E+02  0.14318510243E+02 -0.34294920577E+02  0.39533289286E+02  0.41800000000E+01 0.  1.
        -11    1    1    2    0    0  0.26692730424E+02  0.25323055089E+02 -0.39615016987E+02  0.54065779819E+02  0.00000000000E+00 0. -1.
         11    1    1    2    0    0  0.60821364185E+02 -0.98156579035E+01  0.12571426183E+02  0.62877867630E+02  0.00000000000E+00 0.  1.
</event>
<event>
 7    1  0.2641580E-009  0.1603736E+03  0.7561462E-02  0.1188276E+00
         -2   -1    0    0    0  501 -0.00000000000E+00  0.00000000000E+00  0.33170066254E+02  0.33170066254E+02  0.00000000000E+00 0. -1.
          2   -1    0    0  501    0  0.00000000000E+00 -0.00000000000E+00 -0.95507846511E+03  0.95507846511E+03  0.00000000000E+00 0.  1.
         25    2    1    2    0    0 -0.13379853639E+03 -0.37875710903E+02 -0.44091377528E+03  0.47894500531E+03  0.12508694200E+03 0.  0.
          5    1    3    3  502    0  0.21140690515E+02 -0.11505909671E+02 -0.28264007237E+02  0.37358282320E+02  0.41800000000E+01 0. -1.
         -5    1    3    3    0  502 -0.15493922691E+03 -0.26369801232E+02 -0.41264976805E+03  0.44158672299E+03  0.41800000000E+01 0. -1.
        -11    1    1    2    0    0  0.81115290885E+02  0.21285103750E+02 -0.41432272672E+03  0.42272457692E+03  0.00000000000E+00 0.  1.
         11    1    1    2    0    0  0.52683245508E+02  0.16590607153E+02 -0.66671896854E+02  0.86578949134E+02  0.00000000000E+00 0. -1.
</event>
<event>
 7    1  0.2641580E-009  0.2568866E+03  0.7561462E-02  0.1109028E+00
          2   -1    0    0  501    0  0.00000000000E+00  0.00000000000E+00  0.87441967784E+03  0.87441967784E+03  0.00000000000E+00 0. -1.
         -2   -1    0    0    0  501 -0.00000000000E+00 -0.00000000000E+00 -0.93927982436E+02  0.93927982436E+02  0.00000000000E+00 0.  1.
         25    2    1    2    0    0 -0.24654064443E+03 -0.64260645748E+00  0.23334536834E+03  0.36177336849E+03  0.12508879616E+03 0.  0.
          5    1    3    3  502    0  0.25866011486E+01  0.17062348904E+01  0.55255625638E+02  0.55500074844E+02  0.41800000000E+01 0. -1.
         -5    1    3    3    0  502 -0.24912724558E+03 -0.23488413478E+01  0.17808974270E+03  0.30627329365E+03  0.41800000000E+01 0. -1.
        -11    1    1    2    0    0  0.68832049432E+02  0.36792719385E+02  0.12862781184E+03  0.15045487433E+03  0.00000000000E+00 0.  1.
         11    1    1    2    0    0  0.17770859500E+03 -0.36150112927E+02  0.41851851523E+03  0.45611941747E+03  0.00000000000E+00 0. -1.
</event>
<event>
 7    1  0.2641580E-009  0.1169734E+03  0.7561462E-02  0.1248175E+00
          2   -1    0    0  501    0  0.00000000000E+00  0.00000000000E+00  0.47713298497E+03  0.47713298497E+03  0.00000000000E+00 0.  1.
         -2   -1    0    0    0  501 -0.00000000000E+00 -0.00000000000E+00 -0.35521939701E+02  0.35521939701E+02  0.00000000000E+00 0. -1.
         25    2    1    2    0    0  0.19228730440E+02 -0.64016506909E+02  0.29238960605E+03  0.32497236208E+03  0.12508995628E+03 0.  0.
          5    1    3    3  502    0 -0.41070384599E+02 -0.67470187199E+02  0.13683777837E+03  0.15805395484E+03  0.41800000000E+01 0.  1.
         -5    1    3    3    0  502  0.60299115039E+02  0.34536802908E+01  0.15555182768E+03  0.16691840724E+03  0.41800000000E+01 0.  1.
        -11    1    1    2    0    0 -0.36897757333E+01 -0.14143460816E+02 -0.38452552134E+01  0.15114162778E+02  0.00000000000E+00 0. -1.
         11    1    1    2    0    0 -0.15538954707E+02  0.78159967724E+02  0.15306669444E+03  0.17256839981E+03  0.00000000000E+00 0.  1.
</event>
<event>
 7    1  0.2641580E-009  0.9925706E+02  0.7561462E-02  0.1281866E+00
          1   -1    0    0  501    0  0.00000000000E+00  0.00000000000E+00  0.12183872714E+04  0.12183872714E+04  0.00000000000E+00 0. -1.
         -1   -1    0    0    0  501 -0.00000000000E+00 -0.00000000000E+00 -0.81538254454E+01  0.81538254454E+01  0.00000000000E+00 0.  1.
         25    2    1    2    0    0  0.49653705642E+02 -0.35823739131E+01  0.82261795033E+03  0.83356197064E+03  0.12508774046E+03 0.  0.
          5    1    3    3  502    0  0.10904624310E+01  0.56373689943E+02  0.39378618291E+03  0.39782434852E+03  0.41800000000E+01 0. -1.
         -5    1    3    3    0  502  0.48563243211E+02 -0.59956063856E+02  0.42883176742E+03  0.43573762212E+03  0.41800000000E+01 0. -1.
        -11    1    1    2    0    0 -0.12970693942E+02 -0.17968171973E+02  0.13307541870E+03  0.13490797296E+03  0.00000000000E+00 0.  1.
         11    1    1    2    0    0 -0.36683011700E+02  0.21550545886E+02  0.25454007690E+03  0.25807115322E+03  0.00000000000E+00 0. -1.
</event>
<event>
 7    1  0.2641580E-009  0.1546271E+03  0.7561462E-02  0.1194900E+00
         -2   -1    0    0    0  501 -0.00000000000E+00  0.00000000000E+00  0.35453871601E+02  0.35453871601E+02  0.00000000000E+00 0.  1.
          2   -1    0    0  501    0  0.00000000000E+00 -0.00000000000E+00 -0.90510486564E+03  0.90510486564E+03  0.00000000000E+00 0. -1.
         25    2    1    2    0    0 -0.10239901214E+03 -0.74695057658E+02 -0.29115232338E+03  0.34129573811E+03  0.12509275005E+03 0.  0.
          5    1    3    3  502    0  0.20655323691E+02 -0.30338174985E+02 -0.24694362223E+02  0.44433446679E+02  0.41800000000E+01 0. -1.
         -5    1    3    3    0  502 -0.12305433583E+03 -0.44356882674E+02 -0.26645796116E+03  0.29686229143E+03  0.41800000000E+01 0. -1.
        -11    1    1    2    0    0  0.12363044153E+02  0.44952868871E+02 -0.87033239549E+02  0.98733935740E+02  0.00000000000E+00 0.  1.
         11    1    1    2    0    0  0.90035967990E+02  0.29742188787E+02 -0.49146543111E+03  0.50052906340E+03  0.00000000000E+00 0. -1.
</event>
<event>
 7    1  0.2641580E-009  0.1250741E+03  0.7561462E-02  0.1234954E+00
          1   -1    0    0  501    0  0.00000000000E+00  0.00000000000E+00  0.28885867929E+03  0.28885867929E+03  0.00000000000E+00 0. -1.
         -1   -1    0    0    0  501 -0.00000000000E+00 -0.00000000000E+00 -0.85345305044E+02  0.85345305044E+02  0.00000000000E+00 0.  1.
         25    2    1    2    0    0 -0.10411568811E+03  0.23317365120E+02  0.15674699755E+03  0.22716437329E+03  0.12510098011E+03 0.  0.
          5    1    3    3  502    0 -0.22143098288E+02 -0.13248536434E+02  0.13115595834E+03  0.13373555372E+03  0.41800000000E+01 0.  1.
         -5    1    3    3    0  502 -0.81972589822E+02  0.36565901554E+02  0.25591039201E+02  0.93428819569E+02  0.41800000000E+01 0.  1.
        -11    1    1    2    0    0  0.92428946921E+02  0.15405660017E+02  0.13505549381E+02  0.94672300350E+02  0.00000000000E+00 0.  1.
         11    1    1    2    0    0  0.11686741189E+02 -0.38723025137E+02  0.33260827320E+02  0.52367310694E+02  0.00000000000E+00 0. -1.
</event>
<event>
 7    1  0.2641580E-009  0.8491659E+02  0.7561462E-02  0.1315651E+00
          3   -1    0    0  501    0  0.00000000000E+00  0.00000000000E+00  0.98303743532E+02  0.98303743532E+02  0.00000000000E+00 0. -1.
         -3   -1    0    0    0  501 -0.00000000000E+00 -0.00000000000E+00 -0.45979760072E+03  0.45979760072E+03  0.00000000000E+00 0.  1.
         25    2    1    2    0    0 -0.42503521675E+02 -0.27165425284E+02  0.42244329683E+02  0.14133753577E+03  0.12508879223E+03 0.  0.
          5    1    3    3  502    0 -0.50155119769E+02 -0.16775202723E+02  0.82931972382E+02  0.98448605417E+02  0.41800000000E+01 0. -1.
         -5    1    3    3    0  502  0.76515980940E+01 -0.10390222561E+02 -0.40687642699E+02  0.42888930351E+02  0.41800000000E+01 0. -1.
        -11    1    1    2    0    0  0.69139369003E+02  0.31935780644E+02 -0.30786352115E+03  0.31714364898E+03  0.00000000000E+00 0.  1.
         11    1    1    2    0    0 -0.26635847329E+02 -0.47703553608E+01 -0.95874665721E+02  0.99620159508E+02  0.00000000000E+00 0. -1.
</event>
<event>
 7    1  0.2641580E-009  0.1169005E+03  0.7561462E-02  0.1248300E+00
         -1   -1    0    0    0  501 -0.00000000000E+00  0.00000000000E+00  0.65634300967E+02  0.65634300967E+02  0.00000000000E+00 0.  1.
          1   -1    0    0  501    0  0.00000000000E+00 -0.00000000000E+00 -0.27782889815E+03  0.27782889815E+03  0.00000000000E+00 0. -1.
         25    2    1    2    0    0  0.59656715766E+02  0.16479052814E+02 -0.91154982132E+02  0.16670589714E+03  0.12510452612E+03 0.  0.
          5    1    3    3  502    0 -0.74559717369E+01 -0.39349289171E+02 -0.63215348569E+02  0.74950722262E+02  0.41800000000E+01 0.  1.
         -5    1    3    3    0  502  0.67112687503E+02  0.55828341986E+02 -0.27939633562E+02  0.91755174875E+02  0.41800000000E+01 0.  1.
        -11    1    1    2    0    0 -0.16002440572E+02 -0.49098781438E+02 -0.10948192830E+03  0.12104982886E+03  0.00000000000E+00 0. -1.
         11    1    1    2    0    0 -0.43654275194E+02  0.32619728624E+02 -0.11557686750E+02  0.55707473118E+02  0.00000000000E+00 0.  1.
</event>
<event>
 7    1  0.2641580E-009  0.1115779E+03  0.7561462E-02  0.1257676E+00
          2   -1    0    0  501    0  0.00000000000E+00  0.00000000000E+00  0.95693273679E+03  0.95693273679E+03  0.00000000000E+00 0. -1.
         -2   -1    0    0    0  501 -0.00000000000E+00 -0.00000000000E+00 -0.17850433634E+02  0.17850433634E+02  0.00000000000E+00 0.  1.
         25    2    1    2    0    0 -0.53017900974E+02  0.49908758351E+02  0.47352853942E+03  0.49515522249E+03  0.12509050614E+03 0.  0.
          5    1    3    3  502    0  0.23594371943E+02  0.40857056508E+02  0.31785656206E+03  0.32136623951E+03  0.41800000000E+01 0.  1.
         -5    1    3    3    0  502 -0.76612272917E+02  0.90517018434E+01  0.15567197736E+03  0.17378898297E+03  0.41800000000E+01 0.  1.
        -11    1    1    2    0    0 -0.15580390017E+02 -0.14723367598E+02  0.27634647260E+02  0.34974273913E+02  0.00000000000E+00 0.  1.
         11    1    1    2    0    0  0.68598290991E+02 -0.35185390753E+02  0.43791911647E+03  0.44465367402E+03  0.00000000000E+00 0. -1.
</event>
<event>
 7    1  0.2641580E-009  0.8786904E+02  0.7561462E-02  0.1308096E+00
          2   -1    0    0  501    0  0.00000000000E+00  0.00000000000E+00  0.50593449785E+03  0.50593449785E+03  0.00000000000E+00 0. -1.
         -2   -1    0    0    0  501 -0.00000000000E+00 -0.00000000000E+00 -0.27724495433E+02  0.27724495433E+02  0.00000000000E+00 0.  1.
         25    2    1    2    0    0 -0.41893087216E+01 -0.36224659241E+02  0.34318065811E+03  0.36708399577E+03  0.12509164480E+03 0.  0.
          5    1    3    3  502    0  0.21911589343E+02 -0.72436653864E+02  0.14192978406E+03  0.16089972832E+03  0.41800000000E+01 0.  1.
         -5    1    3    3    0  502 -0.26100898065E+02  0.36211994624E+02  0.20125087405E+03  0.20618426744E+03  0.41800000000E+01 0.  1.
        -11    1    1    2    0    0 -0.25595673488E+01  0.44420497989E+02  0.14520500622E+03  0.15186910765E+03  0.00000000000E+00 0. -1.
         11    1    1    2    0    0  0.67488760703E+01 -0.81958387483E+01 -0.10175661924E+02  0.14705889861E+02  0.00000000000E+00 0.  1.
</event>
<event>
 7    1  0.2641580E-009  0.1403344E+03  0.7561462E-02  0.1212880E+00
          2   -1    0    0  501    0  0.00000000000E+00  0.00000000000E+00  0.39002881499E+03  0.39002881499E+03  0.00000000000E+00 0. -1.
         -2   -1    0    0    0  501 -0.00000000000E+00 -0.00000000000E+00 -0.58073833329E+02  0.58073833329E+02  0.00000000000E+00 0.  1.
         25    2    1    2    0    0 -0.70393863851E+02 -0.74538981420E+02  0.17349072228E+03  0.23718667171E+03  0.12508849147E+03 0.  0.
          5    1    3    3  502    0 -0.68129609189E+02 -0.10329846472E+03  0.16600227766E+03  0.20709042723E+03  0.41800000000E+01 0. -1.
         -5    1    3    3    0  502 -0.22642546616E+01  0.28759483297E+02  0.74884446145E+01  0.30096244474E+02  0.41800000000E+01 0. -1.
        -11    1    1    2    0    0  0.43231251627E+02 -0.51292262735E+01  0.17886583793E+02  0.47065698329E+02  0.00000000000E+00 0.  1.
         11    1    1    2    0    0  0.27162612224E+02  0.79668207693E+02  0.14057767559E+03  0.16385027829E+03  0.00000000000E+00 0. -1.
</event>
<event>
 7    1  0.2641580E-009  0.1630083E+03  0.7561462E-02  0.1185342E+00
         -3   -1    0    0    0  501 -0.00000000000E+00  0.00000000000E+00  0.36497123522E+02  0.36497123522E+02  0.00000000000E+00 0.  1.
          3   -1    0    0  501    0  0.00000000000E+00 -0.00000000000E+00 -0.82510874877E+03  0.82510874877E+03  0.00000000000E+00 0. -1.
         25    2    1    2    0    0 -0.11247413079E+03 -0.64639118340E+02 -0.51438082692E+03  0.54503569653E+03  0.12509048594E+03 0.  0.
          5    1    3    3  502    0 -0.13042362948E+03 -0.81080364954E+02 -0.41180146497E+03  0.43952504781E+03  0.41800000000E+01 0. -1.
         -5    1    3    3    0  502  0.17949498694E+02  0.16441246614E+02 -0.10257936196E+03  0.10551064872E+03  0.41800000000E+01 0. -1.
        -11    1    1    2    0    0  0.11873031965E+02 -0.15178949654E+02 -0.89734987072E+02  0.91780920160E+02  0.00000000000E+00 0. -1.
         11    1    1    2    0    0  0.10060109882E+03  0.79818067994E+02 -0.18449581125E+03  0.22478925560E+03  0.00000000000E+00 0.  1.
</event>
<event>
 7    1  0.2641580E-009  0.2619348E+03  0.7561462E-02  0.1105986E+00
          1   -1    0    0  501    0  0.00000000000E+00  0.00000000000E+00  0.27113874588E+03  0.27113874588E+03  0.00000000000E+00 0. -1.
         -1   -1    0    0    0  501 -0.00000000000E+00 -0.00000000000E+00 -0.31560559794E+03  0.31560559794E+03  0.00000000000E+00 0.  1.
         25    2    1    2    0    0 -0.17280664975E+03 -0.16492787610E+03  0.10658470715E+03  0.28994748206E+03  0.12508357223E+03 0.  0.
          5    1    3    3  502    0 -0.15841901388E+03 -0.18488371965E+03  0.88346742560E+02  0.25903897983E+03  0.41800000000E+01 0.  1.
         -5    1    3    3    0  502 -0.14387635872E+02  0.19955843551E+02  0.18237964589E+02  0.30908502231E+02  0.41800000000E+01 0.  1.
        -11    1    1    2    0    0  0.77955172757E+01  0.58577526343E+02 -0.31924013260E+02  0.67165759913E+02  0.00000000000E+00 0.  1.
         11    1    1    2    0    0  0.16501113247E+03  0.10635034976E+03 -0.11912754594E+03  0.22963110185E+03  0.00000000000E+00 0. -1.
</event>
<event>
 7    1  0.2641580E-009  0.8808078E+02  0.7561462E-02  0.1307567E+00
          2   -1    0    0  501    0  0.00000000000E+00  0.00000000000E+00  0.32901247953E+03  0.32901247953E+03  0.00000000000E+00 0. -1.
         -2   -1    0    0    0  501 -0.00000000000E+00 -0.00000000000E+00 -0.10935171835E+03  0.10935171835E+03  0.00000000000E+00 0.  1.
         25    2    1    2    0    0 -0.99128006304E+01  0.41312259751E+02  0.28680619732E+03  0.31576872926E+03  0.12508848524E+03 0.  0.
          5    1    3    3  502    0 -0.47793009123E+02  0.46916827518E+01  0.37917855803E+02  0.61330414941E+02  0.41800000000E+01 0. -1.
         -5    1    3    3    0  502  0.37880208493E+02  0.36620576999E+02  0.24888834151E+03  0.25443831432E+03  0.41800000000E+01 0. -1.
        -11    1    1    2    0    0 -0.16812950281E+02  0.83009356170E+01  0.14281409756E+02  0.23569885318E+02  0.00000000000E+00 0. -1.
         11    1    1    2    0    0  0.26725750911E+02 -0.49613195368E+02 -0.81426845891E+02  0.99025583302E+02  0.00000000000E+00 0.  1.
</event>
<event>
 7    1  0.2641580E-009  0.1035964E+03  0.7561462E-02  0.1272910E+00
         -1   -1    0    0    0  501 -0.00000000000E+00  0.00000000000E+00  0.23400866212E+02  0.23400866212E+02  0.00000000000E+00 0.  1.
          1   -1    0    0  501    0  0.00000000000E+00 -0.00000000000E+00 -0.77530892023E+03  0.77530892023E+03  0.00000000000E+00 0. -1.
         25    2    1    2    0    0 -0.59061688259E+02  0.49112339143E+02 -0.35083193077E+03  0.38030412025E+03  0.12509146795E+03 0.  0.
          5    1    3    3  502    0  0.65934950068E+01  0.18312238799E+02 -0.27343231491E+03  0.27415600577E+03  0.41800000000E+01 0. -1.
         -5    1    3    3    0  502 -0.65655183266E+02  0.30800100344E+02 -0.77399615858E+02  0.10614811447E+03  0.41800000000E+01 0. -1.
        -11    1    1    2    0    0  0.55081164351E+02 -0.72427329312E+02 -0.26245067891E+03  0.27777690970E+03  0.00000000000E+00 0.  1.
         11    1    1    2    0    0  0.39805239083E+01  0.23314990169E+02 -0.13862544434E+03  0.14062875650E+03  0.00000000000E+00 0. -1.
</event>
<event>
 7    1  0.2641580E-009  0.1136661E+03  0.7561462E-02  0.1253928E+00
         -2   -1    0    0    0  501 -0.00000000000E+00  0.00000000000E+00  0.25553834253E+03  0.25553834253E+03  0.00000000000E+00 0.  1.
          2   -1    0    0  501    0  0.00000000000E+00 -0.00000000000E+00 -0.28508992252E+03  0.28508992252E+03  0.00000000000E+00 0. -1.
         25    2    1    2    0    0  0.45256593992E+02 -0.70995341233E+02 -0.24743837787E+03  0.28976168143E+03  0.12509030102E+03 0.  0.
          5    1    3    3  502    0  0.17254357097E+02 -0.75640966590E+02 -0.24918539574E+03  0.26101743718E+03  0.41800000000E+01 0.  1.
         -5    1    3    3    0  502  0.28002236896E+02  0.46456253567E+01  0.17470178675E+01  0.28744244251E+02  0.41800000000E+01 0.  1.
        -11    1    1    2    0    0 -0.60261127195E+02  0.13809676375E+02  0.14033471824E+03  0.15334909115E+03  0.00000000000E+00 0.  1.
         11    1    1    2    0    0  0.15004533202E+02  0.57185664858E+02  0.77552079638E+02  0.97517492472E+02  0.00000000000E+00 0. -1.
</event>
<event>
 7    1  0.2641580E-009  0.7486413E+02  0.7561462E-02  0.1344292E+00
          2   -1    0    0  501    0  0.00000000000E+00  0.00000000000E+00  0.20232813606E+03  0.20232813606E+03  0.00000000000E+00 0. -1.
         -2   -1    0    0    0  501 -0.00000000000E+00 -0.00000000000E+00 -0.62621962612E+02  0.62621962612E+02  0.00000000000E+00 0.  1.
         25    2    1    2    0    0  0.26191852303E+01 -0.64383581741E+01  0.40834007139E+02  0.13177000624E+03  0.12509039059E+03 0.  0.
          5    1    3    3  502    0  0.30005394300E+02 -0.12031413059E+02  0.78314799959E+02  0.84827819022E+02  0.41800000000E+01 0. -1.
         -5    1    3    3    0  502 -0.27386209070E+02  0.55930548847E+01 -0.37480792820E+02  0.46942187216E+02  0.41800000000E+01 0. -1.
        -11    1    1    2    0    0  0.42169490588E+02  0.11725937839E+02  0.42755235754E+02  0.61186385242E+02  0.00000000000E+00 0. -1.
         11    1    1    2    0    0 -0.44788675818E+02 -0.52875796645E+01  0.56116930553E+02  0.71993707190E+02  0.00000000000E+00 0.  1.
</event>
<event>
 7    1  0.2641580E-009  0.1210137E+03  0.7561462E-02  0.1241434E+00
          1   -1    0    0  501    0  0.00000000000E+00  0.00000000000E+00  0.44118797737E+03  0.44118797737E+03  0.00000000000E+00 0. -1.
         -1   -1    0    0    0  501 -0.00000000000E+00 -0.00000000000E+00 -0.42225476996E+02  0.42225476996E+02  0.00000000000E+00 0.  1.
         25    2    1    2    0    0 -0.51445843648E+02 -0.64632820791E+02  0.19598413883E+03  0.24674081868E+03  0.12508865886E+03 0.  0.
          5    1    3    3  502    0 -0.48981197388E+02  0.26584941504E+02  0.52701614609E+02  0.76816986369E+02  0.41800000000E+01 0. -1.
         -5    1    3    3    0  502 -0.24646462604E+01 -0.91217762295E+02  0.14328252422E+03  0.16992383231E+03  0.41800000000E+01 0. -1.
        -11    1    1    2    0    0 -0.63946756105E+01  0.22076655223E+02  0.13777065750E+03  0.13967471013E+03  0.00000000000E+00 0. -1.
         11    1    1    2    0    0  0.57840519259E+02  0.42556165568E+02  0.65207704042E+02  0.96997925557E+02  0.00000000000E+00 0.  1.
</event>
<event>
 7    1  0.2641580E-009  0.8497796E+02  0.7561462E-02  0.1315490E+00
          1   -1    0    0  501    0  0.00000000000E+00  0.00000000000E+00  0.56832463139E+02  0.56832463139E+02  0.00000000000E+00 0. -1.
         -1   -1    0    0    0  501 -0.00000000000E+00 -0.00000000000E+00 -0.21043171008E+03  0.21043171008E+03  0.00000000000E+00 0.  1.
         25    2    1    2    0    0  0.38960879239E+01 -0.96479209706E+01 -0.90407151081E+02  0.15469009264E+03  0.12508920782E+03 0.  0.
          5    1    3    3  502    0  0.52071983731E+02 -0.10119663637E+02 -0.92027796393E+02  0.10630374777E+03  0.41800000000E+01 0.  1.
         -5    1    3    3    0  502 -0.48175895807E+02  0.47174266642E+00  0.16206453117E+01  0.48386344863E+02  0.41800000000E+01 0.  1.
        -11    1    1    2    0    0  0.29023785966E+02  0.18346725812E+02  0.65577178936E+01  0.34956918683E+02  0.00000000000E+00 0. -1.
         11    1    1    2    0    0 -0.32919873890E+02 -0.86988048416E+01 -0.69749813749E+02  0.77617161895E+02  0.00000000000E+00 0.  1.
</event>
<event>
 7    1  0.2641580E-009  0.9140293E+02  0.7561462E-02  0.1299489E+00
          1   -1    0    0  501    0  0.00000000000E+00  0.00000000000E+00  0.27200564837E+03  0.27200564837E+03  0.00000000000E+00 0. -1.
         -1   -1    0    0    0  501 -0.00000000000E+00 -0.00000000000E+00 -0.51153630937E+02  0.51153630937E+02  0.00000000000E+00 0.  1.
         25    2    1    2    0    0 -0.52917231044E+01  0.14665893302E+02  0.18810749677E+03  0.22643971359E+03  0.12508965900E+03 0.  0.
          5    1    3    3  502    0 -0.37353107476E+02  0.58407834952E+02  0.84154709827E+02  0.10911561487E+03  0.41800000000E+01 0.  1.
         -5    1    3    3    0  502  0.32061384371E+02 -0.43741941650E+02  0.10395278694E+03  0.11732409872E+03  0.41800000000E+01 0.  1.
        -11    1    1    2    0    0  0.10189744322E+02  0.20794983812E+02 -0.21584787742E+02  0.31656994534E+02  0.00000000000E+00 0.  1.
         11    1    1    2    0    0 -0.48980212173E+01 -0.35460877114E+02  0.54329308406E+02  0.65062571186E+02  0.00000000000E+00 0. -1.
</event>
<event>
 7    1  0.2641580E-009  0.1009687E+03  0.7561462E-02  0.1278272E+00
          2   -1    0    0  501    0  0.00000000000E+00  0.00000000000E+00  0.63014754393E+03  0.63014754393E+03  0.00000000000E+00 0. -1.
         -2   -1    0    0    0  501 -0.00000000000E+00 -0.00000000000E+00 -0.24999043570E+02  0.24999043570E+02  0.00000000000E+00 0.  1.
         25    2    1    2    0    0 -0.28819991182E+02  0.45829659220E+02  0.36458897464E+03  0.38923452428E+03  0.12508974741E+03 0.  0.
          5    1    3    3  502    0 -0.46493240537E+02  0.60587287286E+02  0.11235561596E+03  0.13591798127E+03  0.41800000000E+01 0. -1.
         -5    1    3    3    0  502  0.17673249355E+02 -0.14757628066E+02  0.25223335868E+03  0.25331654301E+03  0.41800000000E+01 0. -1.
        -11    1    1    2    0    0  0.59996851054E+02 -0.30817150356E+02  0.20698678422E+03  0.21769898423E+03  0.00000000000E+00 0.  1.
         11    1    1    2    0    0 -0.31176859872E+02 -0.15012508864E+02  0.33572741500E+02  0.48213078990E+02  0.00000000000E+00 0. -1.
</event>
<event>
 7    1  0.2641580E-009  0.1269230E+03  0.7561462E-02  0.1232094E+00
          2   -1    0    0  501    0  0.00000000000E+00  0.00000000000E+00  0.63521589711E+03  0.63521589711E+03  0.00000000000E+00 0. -1.
         -2   -1    0    0    0  501 -0.00000000000E+00 -0.00000000000E+00 -0.34614953924E+02  0.34614953924E+02  0.00000000000E+00 0.  1.
         25    2    1    2    0    0  0.91188547462E+01 -0.65472524416E+02  0.46627011692E+03  0.48726397127E+03  0.12509416773E+03 0.  0.
          5    1    3    3  502    0 -0.51547840590E+02 -0.55461622945E+01  0.23631328582E+03  0.24196979407E+03  0.41800000000E+01 0. -1.
         -5    1    3    3    0  502  0.60666695336E+02 -0.59926362122E+02  0.22995683110E+03  0.24529417721E+03  0.41800000000E+01 0. -1.
        -11    1    1    2    0    0  0.31681032138E+02  0.68574061465E+02  0.55453004630E+02  0.93707659376E+02  0.00000000000E+00 0.  1.
         11    1    1    2    0    0 -0.40799886884E+02 -0.31015370489E+01  0.78877821632E+02  0.88859220384E+02  0.00000000000E+00 0. -1.
</event>
<event>
 7    1  0.2641580E-009  0.1396610E+03  0.7561462E-02  0.1213786E+00
         -2   -1    0    0    0  501 -0.00000000000E+00  0.00000000000E+00  0.31094842181E+02  0.31094842181E+02  0.00000000000E+00 0.  1.
          2   -1    0    0  501    0  0.00000000000E+00 -0.00000000000E+00 -0.74362664214E+03  0.74362664214E+03  0.00000000000E+00 0. -1.
         25    2    1    2    0    0 -0.74491872673E+02  0.50878790280E+02 -0.24213277710E+03  0.28707716021E+03  0.12508926323E+03 0.  0.
          5    1    3    3  502    0 -0.60396963867E+02  0.90449174855E+02 -0.19840566220E+03  0.22629875313E+03  0.41800000000E+01 0.  1.
         -5    1    3    3    0  502 -0.14094908806E+02 -0.39570384575E+02 -0.43727114905E+02  0.60778407083E+02  0.41800000000E+01 0.  1.
        -11    1    1    2    0    0  0.94903825225E+02 -0.51239799818E+02 -0.38330676305E+03  0.39819132051E+03  0.00000000000E+00 0. -1.
         11    1    1    2    0    0 -0.20411952552E+02  0.36100953796E+00 -0.87092259801E+02  0.89453003594E+02  0.00000000000E+00 0.  1.
</event>
<event>
 6    1  0.2641580E-009  0.1509147E+03  0.7561462E-02  0.1199354E+00
         -2   -1    0    0    0  501 -0.00000000000E+00  0.00000000000E+00  0.15484490234E+03  0.15484490234E+03  0.00000000000E+00 0. -1.
          2   -1    0    0  501    0  0.00000000000E+00 -0.00000000000E+00 -0.16591919826E+03  0.16591919826E+03  0.00000000000E+00 0.  1.
          5    1    1    2  502    0 -0.94990798843E+02  0.69737883645E+02 -0.19695618539E+02  0.11954921192E+03  0.41800000000E+01 0.  1.
         -5    1    1    2    0  502 -0.98091013534E+01 -0.41660208531E+02 -0.32685255523E+02  0.54014718114E+02  0.41800000000E+01 0.  1.
        -11    1    1    2    0    0  0.43833268938E+02 -0.58239057941E+02  0.16007824833E+02  0.74628371224E+02  0.00000000000E+00 0. -1.
         11    1    1    2    0    0  0.60966631258E+02  0.30161382827E+02  0.25298753310E+02  0.72571799344E+02  0.00000000000E+00 0.  1.
</event>
<event>
 7    1  0.2641580E-009  0.1114460E+03  0.7561462E-02  0.1257915E+00
         -1   -1    0    0    0  501 -0.00000000000E+00  0.00000000000E+00  0.22209590286E+03  0.22209590286E+03  0.00000000000E+00 0.  1.
          1   -1    0    0  501    0  0.00000000000E+00 -0.00000000000E+00 -0.65186199202E+02  0.65186199202E+02  0.00000000000E+00 0. -1.
         25    2    1    2    0    0 -0.19009078425E+00  0.37329521880E+02  0.44035621330E+02  0.13777106285E+03  0.12509276748E+03 0.  0.
          5    1    3    3  502    0 -0.22689700784E+02 -0.39112027689E+02  0.35268952507E+02  0.57497344656E+02  0.41800000000E+01 0.  1.
         -5    1    3    3    0  502  0.22499609999E+02  0.76441549569E+02  0.87666688234E+01  0.80273718195E+02  0.41800000000E+01 0.  1.
        -11    1    1    2    0    0 -0.44768545877E+02 -0.13253103258E+02  0.60334769267E+02  0.76289919572E+02  0.00000000000E+00 0.  1.
         11    1    1    2    0    0  0.44958636661E+02 -0.24076418623E+02  0.52539313057E+02  0.73221119635E+02  0.00000000000E+00 0. -1.
</event>
<event>
 7    1  0.2641580E-009  0.9079968E+02  0.7561462E-02  0.1300927E+00
         -1   -1    0    0    0  501 -0.00000000000E+00  0.00000000000E+00  0.13543174289E+02  0.13543174289E+02  0.00000000000E+00 0.  1.
          1   -1    0    0  501    0  0.00000000000E+00 -0.00000000000E+00 -0.12383762525E+04  0.12383762525E+04  0.00000000000E+00 0. -1.
         25    2    1    2    0    0  0.65958790752E+02  0.47433222107E+01 -0.80518434700E+03  0.81752151046E+03  0.12508607533E+03 0.  0.
          5    1    3    3  502    0  0.47158678760E+02  0.11911872544E+02 -0.92947866872E+02  0.10498862817E+03  0.41800000000E+01 0. -1.
         -5    1    3    3    0  502  0.18800111993E+02 -0.71685503331E+01 -0.71223648012E+03  0.71253288229E+03  0.41800000000E+01 0. -1.
        -11    1    1    2    0    0  0.26743676538E+00  0.34995299774E+02 -0.12918554120E+03  0.13384187156E+03  0.00000000000E+00 0.  1.
         11    1    1    2    0    0 -0.66226227518E+02 -0.39738621984E+02 -0.29046318999E+03  0.30055604473E+03  0.00000000000E+00 0. -1.
</event>
<event>
 7    1  0.2641580E-009  0.2210236E+03  0.7561462E-02  0.1133122E+00
          2   -1    0    0  501    0  0.00000000000E+00  0.00000000000E+00  0.20548878419E+03  0.20548878419E+03  0.00000000000E+00 0. -1.
         -2   -1    0    0    0  501 -0.00000000000E+00 -0.00000000000E+00 -0.27300223240E+03  0.27300223240E+03  0.00000000000E+00 0.  1.
         25    2    1    2    0    0 -0.11548281408E+03 -0.16573994681E+03  0.22424456298E+02  0.23865274421E+03  0.12508503413E+03 0.  0.
          5    1    3    3  502    0 -0.11476102810E+03 -0.56430587080E+02  0.17567121856E+02  0.12915332322E+03  0.41800000000E+01 0. -1.
         -5    1    3    3    0  502 -0.72178598422E+00 -0.10930935973E+03  0.48573344419E+01  0.10949942100E+03  0.41800000000E+01 0. -1.
        -11    1    1    2    0    0  0.20199105822E+02  0.55113476440E+02 -0.71756474176E+02  0.92706476297E+02  0.00000000000E+00 0.  1.
         11    1    1    2    0    0  0.95283708257E+02  0.11062647037E+03 -0.18181430334E+02  0.14713179607E+03  0.00000000000E+00 0. -1.
</event>
<event>
 7    1  0.2641580E-009  0.9310058E+02  0.7561462E-02  0.1295512E+00
          1   -1    0    0  501    0  0.00000000000E+00  0.00000000000E+00  0.10293591803E+03  0.10293591803E+03  0.00000000000E+00 0. -1.
         -1   -1    0    0    0  501 -0.00000000000E+00 -0.00000000000E+00 -0.14593606565E+03  0.14593606565E+03  0.00000000000E+00 0.  1.
         25    2    1    2    0    0  0.33682110760E+02  0.43492635279E+02 -0.11618469528E+02  0.13714650791E+03  0.12509229349E+03 0.  0.
          5    1    3    3  502    0  0.72701539644E+02  0.44259590372E+00  0.12878935026E+02  0.73953019716E+02  0.41800000000E+01 0. -1.
         -5    1    3    3    0  502 -0.39019428884E+02  0.43050039376E+02 -0.24497404555E+02  0.63193488197E+02  0.41800000000E+01 0. -1.
        -11    1    1    2    0    0 -0.13658568281E+02 -0.20542911166E+02 -0.63100575649E+02  0.67751386214E+02  0.00000000000E+00 0.  1.
         11    1    1    2    0    0 -0.20023542479E+02 -0.22949724114E+02  0.31718897550E+02  0.43974089554E+02  0.00000000000E+00 0. -1.
</event>
<event>
 7    1  0.2641580E-009  0.1068727E+03  0.7561462E-02  0.1266473E+00
         -2   -1    0    0    0  501 -0.00000000000E+00  0.00000000000E+00  0.85557986412E+02  0.85557986412E+02  0.00000000000E+00 0.  1.
          2   -1    0    0  501    0  0.00000000000E+00 -0.00000000000E+00 -0.14602957410E+03  0.14602957410E+03  0.00000000000E+00 0. -1.
         25    2    1    2    0    0 -0.11025047351E+02 -0.24691546847E+02 -0.20958882916E+02  0.12968551982E+03  0.12509130714E+03 0.  0.
          5    1    3    3  502    0 -0.35133635782E+02 -0.65962584562E+02 -0.30393102441E+02  0.80787672335E+02  0.41800000000E+01 0.  1.
         -5    1    3    3    0  502  0.24108588431E+02  0.41271037716E+02  0.94342195247E+01  0.48897847481E+02  0.41800000000E+01 0.  1.
        -11    1    1    2    0    0  0.34314139186E+02 -0.20573373193E+02 -0.48174869621E+01  0.40298039819E+02  0.00000000000E+00 0.  1.
         11    1    1    2    0    0 -0.23289091835E+02  0.45264920040E+02 -0.34695217806E+02  0.61604000871E+02  0.00000000000E+00 0. -1.
</event>
<event>
 7    1  0.2641580E-009  0.9307373E+02  0.7561462E-02  0.1295574E+00
         -1   -1    0    0    0  501 -0.00000000000E+00  0.00000000000E+00  0.45863650691E+02  0.45863650691E+02  0.00000000000E+00 0.  1.
          1   -1    0    0  501    0  0.00000000000E+00 -0.00000000000E+00 -0.41497662572E+03  0.41497662572E+03  0.00000000000E+00 0. -1.
         25    2    1    2    0    0  0.31469085152E+02 -0.77893957294E+02 -0.23441630414E+03  0.27866803055E+03  0.12508835158E+03 0.  0.
          5    1    3    3  502    0  0.24072830872E+02 -0.41141033595E+01  0.72754815704E+01  0.25823091696E+02  0.41800000000E+01 0.  1.
         -5    1    3    3    0  502  0.73962542803E+01 -0.73779853934E+02 -0.24169178571E+03  0.25284493886E+03  0.41800000000E+01 0.  1.
        -11    1    1    2    0    0 -0.17605157475E+02  0.16381972905E+02 -0.11293601968E+03  0.11546798322E+03  0.00000000000E+00 0. -1.
         11    1    1    2    0    0 -0.13863927677E+02  0.61511984389E+02 -0.21760651202E+02  0.66704262644E+02  0.00000000000E+00 0.  1.
</event>
<event>
 7    1  0.2641580E-009  0.1205975E+03  0.7561462E-02  0.1242115E+00
         -2   -1    0    0    0  501 -0.00000000000E+00  0.00000000000E+00  0.90830688456E+02  0.90830688456E+02  0.00000000000E+00 0.  1.
          2   -1    0    0  501    0  0.00000000000E+00 -0.00000000000E+00 -0.65537724289E+03  0.65537724289E+03  0.00000000000E+00 0. -1.
         25    2    1    2    0    0  0.57465731320E+02  0.88349502470E+02  0.37383831317E+00  0.16357261448E+03  0.12509162878E+03 0.  0.
          5    1    3    3  502    0  0.29957365417E+01  0.24104907687E+02 -0.56644293905E+02  0.61774342927E+02  0.41800000000E+01 0.  1.
         -5    1    3    3    0  502  0.54469994778E+02  0.64244594783E+02  0.57018132218E+02  0.10179827155E+03  0.41800000000E+01 0.  1.
        -11    1    1    2    0    0 -0.56127235462E+02 -0.13990000485E+02 -0.14379930846E+03  0.15499750897E+03  0.00000000000E+00 0. -1.
         11    1    1    2    0    0 -0.13384958575E+01 -0.74359501985E+02 -0.42112108429E+03  0.42763780790E+03  0.00000000000E+00 0.  1.
</event>
<event>
 7    1  0.2641580E-009  0.2968046E+03  0.7561462E-02  0.1086849E+00
         -2   -1    0    0    0  501 -0.00000000000E+00  0.00000000000E+00  0.67351296183E+03  0.67351296183E+03  0.00000000000E+00 0.  1.
          2   -1    0    0  501    0  0.00000000000E+00 -0.00000000000E+00 -0.36340967360E+03  0.36340967360E+03  0.00000000000E+00 0. -1.
         25    2    1    2    0    0  0.18089594550E+02 -0.28211915363E+03  0.56576460194E+03  0.64471306232E+03  0.12508755993E+03 0.  0.
          5    1    3    3  502    0  0.30382639258E+02 -0.44951706249E+01  0.64267455274E+02  0.71351871276E+02  0.41800000000E+01 0.  1.
         -5    1    3    3    0  502 -0.12293044708E+02 -0.27762398300E+03  0.50149714666E+03  0.57336119104E+03  0.41800000000E+01 0.  1.
        -11    1    1    2    0    0 -0.27725211547E+02  0.18143191059E+03 -0.21629444250E+03  0.28367148498E+03  0.00000000000E+00 0. -1.
         11    1    1    2    0    0  0.96356169974E+01  0.10068724304E+03 -0.39366871209E+02  0.10853808813E+03  0.00000000000E+00 0.  1.
</event>
<event>
 7    1  0.2641580E-009  0.2377645E+03  0.7561462E-02  0.1121291E+00
         -1   -1    0    0    0  501 -0.00000000000E+00  0.00000000000E+00  0.44623625942E+02  0.44623625942E+02  0.00000000000E+00 0.  1.
          1   -1    0    0  501    0  0.00000000000E+00 -0.00000000000E+00 -0.14547256386E+04  0.14547256386E+04  0.00000000000E+00 0. -1.
         25    2    1    2    0    0 -0.20335473023E+03  0.63695265859E+02 -0.46770153450E+03  0.52896353802E+03  0.12508983165E+03 0.  0.
          5    1    3    3  502    0  0.16965999783E+02  0.79957207222E+01 -0.27535666259E+02  0.33577701155E+02  0.41800000000E+01 0.  1.
         -5    1    3    3    0  502 -0.22032073002E+03  0.55699545137E+02 -0.44016586824E+03  0.49538583687E+03  0.41800000000E+01 0. -1.
        -11    1    1    2    0    0  0.16021975468E+03 -0.10538644189E+02 -0.59371182834E+03  0.61504078557E+03  0.00000000000E+00 0. -1.
         11    1    1    2    0    0  0.43134975557E+02 -0.53156621670E+02 -0.34868864987E+03  0.35534494100E+03  0.00000000000E+00 0.  1.
</event>
<event>
 7    1  0.2641580E-009  0.7687292E+02  0.7561462E-02  0.1338167E+00
         -1   -1    0    0    0  501 -0.00000000000E+00  0.00000000000E+00  0.22286896765E+02  0.22286896765E+02  0.00000000000E+00 0.  1.
          1   -1    0    0  501    0  0.00000000000E+00 -0.00000000000E+00 -0.83307742775E+03  0.83307742775E+03  0.00000000000E+00 0. -1.
         25    2    1    2    0    0  0.19707621597E+02  0.38574969770E+01 -0.68956906393E+03  0.70111144385E+03  0.12509393325E+03 0.  0.
          5    1    3    3  502    0  0.45280821710E+02 -0.11985027819E+02 -0.97342138285E+02  0.10810623475E+03  0.41800000000E+01 0.  1.
         -5    1    3    3    0  502 -0.25573200113E+02  0.15842524796E+02 -0.59222692564E+03  0.59300520909E+03  0.41800000000E+01 0.  1.
        -11    1    1    2    0    0 -0.33226677181E+02 -0.31368503333E+02 -0.22601043554E+02  0.50978448854E+02  0.00000000000E+00 0.  1.
         11    1    1    2    0    0  0.13519055584E+02  0.27511006356E+02 -0.98620423506E+02  0.10327443182E+03  0.00000000000E+00 0. -1.
</event>
<event>
 7    1  0.2641580E-009  0.9811224E+02  0.7561462E-02  0.1284316E+00
         -2   -1    0    0    0  501 -0.00000000000E+00  0.00000000000E+00  0.64600557968E+02  0.64600557968E+02  0.00000000000E+00 0.  1.
          2   -1    0    0  501    0  0.00000000000E+00 -0.00000000000E+00 -0.30081658381E+03  0.30081658381E+03  0.00000000000E+00 0. -1.
         25    2    1    2    0    0 -0.81166140966E+02 -0.23706586220E+02 -0.10462489100E+03  0.18369447237E+03  0.12508935483E+03 0.  0.
          5    1    3    3  502    0 -0.79901104362E+01  0.14481756574E+02  0.24818695729E+02  0.30116493752E+02  0.41800000000E+01 0.  1.
         -5    1    3    3    0  502 -0.73176030530E+02 -0.38188342794E+02 -0.12944358673E+03  0.15357797861E+03  0.41800000000E+01 0.  1.
        -11    1    1    2    0    0  0.49165042352E+02 -0.98567255925E+01 -0.93858450203E+01  0.51014218759E+02  0.00000000000E+00 0.  1.
         11    1    1    2    0    0  0.32001098614E+02  0.33563311813E+02 -0.12220528982E+03  0.13070845065E+03  0.00000000000E+00 0. -1.
</event>
<event>
 7    1  0.2641580E-009  0.2009563E+03  0.7561462E-02  0.1148935E+00
          2   -1    0    0  501    0  0.00000000000E+00  0.00000000000E+00  0.11587079046E+04  0.11587079046E+04  0.00000000000E+00 0.  1.
         -2   -1    0    0    0  501 -0.00000000000E+00 -0.00000000000E+00 -0.45204118572E+02  0.45204118572E+02  0.00000000000E+00 0. -1.
         25    2    1    2    0    0  0.95496108449E+02  0.16489762204E+03  0.74634975840E+03  0.78037785054E+03  0.12506356491E+03 0.  0.
          5    1    3    3  502    0  0.54195374357E+02  0.89460896304E+02  0.61141444007E+03  0.62031079347E+03  0.41800000000E+01 0.  1.
         -5    1    3    3    0  502  0.41300734092E+02  0.75436725735E+02  0.13493531833E+03  0.16006705707E+03  0.41800000000E+01 0.  1.
        -11    1    1    2    0    0 -0.39419515468E+02 -0.27011022402E+01  0.67195269035E+02  0.77951256140E+02  0.00000000000E+00 0.  1.
         11    1    1    2    0    0 -0.56076592981E+02 -0.16219651980E+03  0.29995875860E+03  0.34558291650E+03  0.00000000000E+00 0. -1.
</event>
<event>
 7    1  0.2641580E-009  0.8880724E+02  0.7561462E-02  0.1305766E+00
         -2   -1    0    0    0  501 -0.00000000000E+00  0.00000000000E+00  0.22678442658E+02  0.22678442658E+02  0.00000000000E+00 0. -1.
          2   -1    0    0  501    0  0.00000000000E+00 -0.00000000000E+00 -0.68558694781E+03  0.68558694781E+03  0.00000000000E+00 0.  1.
         25    2    1    2    0    0 -0.57417426202E+02 -0.13145148159E+02 -0.32570001997E+03  0.35383176039E+03  0.12508739307E+03 0.  0.
          5    1    3    3  502    0 -0.22610493595E+02 -0.35928615088E+02 -0.23398132851E+02  0.48652284876E+02  0.41800000000E+01 0.  1.
         -5    1    3    3    0  502 -0.34806932606E+02  0.22783466929E+02 -0.30230188711E+03  0.30517947552E+03  0.41800000000E+01 0.  1.
        -11    1    1    2    0    0  0.74550960223E+02  0.67348819866E+01 -0.32217164419E+03  0.33075334107E+03  0.00000000000E+00 0.  1.
         11    1    1    2    0    0 -0.17133534021E+02  0.64102661719E+01 -0.15036840991E+02  0.23680289007E+02  0.00000000000E+00 0. -1.
</event>
<event>
 7    1  0.2641580E-009  0.7684885E+02  0.7561462E-02  0.1338239E+00
          2   -1    0    0  501    0  0.00000000000E+00  0.00000000000E+00  0.30416891008E+03  0.30416891008E+03  0.00000000000E+00 0. -1.
         -2   -1    0    0    0  501 -0.00000000000E+00 -0.00000000000E+00 -0.45403498119E+02  0.45403498119E+02  0.00000000000E+00 0.  1.
         25    2    1    2    0    0  0.27741640481E+02  0.79484788424E+01  0.19092206417E+03  0.23006862806E+03  0.12509021583E+03 0.  0.
          5    1    3    3  502    0 -0.20908067570E+02  0.43335646488E+02  0.14898127686E+03  0.15661423562E+03  0.41800000000E+01 0. -1.
         -5    1    3    3    0  502  0.48649708052E+02 -0.35387167645E+02  0.41940787311E+02  0.73454392434E+02  0.41800000000E+01 0. -1.
        -11    1    1    2    0    0 -0.38995781972E+01  0.12868328686E+02 -0.21142820840E+02  0.25056325875E+02  0.00000000000E+00 0.  1.
         11    1    1    2    0    0 -0.23842062284E+02 -0.20816807528E+02  0.88986168635E+02  0.94447454270E+02  0.00000000000E+00 0. -1.
</event>
<event>
 7    1  0.2641580E-009  0.9523043E+02  0.7561462E-02  0.1290658E+00
         -2   -1    0    0    0  501 -0.00000000000E+00  0.00000000000E+00  0.11220021998E+03  0.11220021998E+03  0.00000000000E+00 0.  1.
          2   -1    0    0  501    0  0.00000000000E+00 -0.00000000000E+00 -0.13013466780E+03  0.13013466780E+03  0.00000000000E+00 0. -1.
         25    2    1    2    0    0  0.49895186486E+02  0.10806358991E+02 -0.19620670351E+02  0.13651691186E+03  0.12508233084E+03 0.  0.
          5    1    3    3  502    0 -0.49864263300E+01 -0.31328808015E+02 -0.51175744135E+02  0.60355512151E+02  0.41800000000E+01 0. -1.
         -5    1    3    3    0  502  0.54881612817E+02  0.42135167006E+02  0.31555073784E+02  0.76161399708E+02  0.41800000000E+01 0. -1.
        -11    1    1    2    0    0 -0.18649898052E+02  0.31467523969E+02  0.28905503339E+02  0.46621367262E+02  0.00000000000E+00 0.  1.
         11    1    1    2    0    0 -0.31245288434E+02 -0.42273882960E+02 -0.27219280806E+02  0.59196608665E+02  0.00000000000E+00 0. -1.
</event>
<event>
 7    1  0.2641580E-009  0.1122093E+03  0.7561462E-02  0.1256532E+00
          2   -1    0    0  501    0  0.00000000000E+00  0.00000000000E+00  0.58939431456E+03  0.58939431456E+03  0.00000000000E+00 0. -1.
         -2   -1    0    0    0  501 -0.00000000000E+00 -0.00000000000E+00 -0.27871590709E+02  0.27871590709E+02  0.00000000000E+00 0.  1.
         25    2    1    2    0    0 -0.44210738571E+02  0.23622525894E+02  0.19997681884E+03  0.24115345199E+03  0.12510653939E+03 0.  0.
          5    1    3    3  502    0 -0.51394725028E+02 -0.34503116774E+02  0.15572258272E+03  0.16762719946E+03  0.41800000000E+01 0. -1.
         -5    1    3    3    0  502  0.71839864562E+01  0.58125642668E+02  0.44254236120E+02  0.73526252533E+02  0.41800000000E+01 0. -1.
        -11    1    1    2    0    0  0.72195246733E+02 -0.22620779801E+02  0.26417467925E+03  0.27479467696E+03  0.00000000000E+00 0. -1.
         11    1    1    2    0    0 -0.27984508162E+02 -0.10017460928E+01  0.97371225761E+02  0.10131777632E+03  0.00000000000E+00 0.  1.
</event>
<event>
 7    1  0.2641580E-009  0.1119100E+03  0.7561462E-02  0.1257073E+00
         -1   -1    0    0    0  501 -0.00000000000E+00  0.00000000000E+00  0.11736596868E+03  0.11736596868E+03  0.00000000000E+00 0.  1.
          1   -1    0    0  501    0  0.00000000000E+00 -0.00000000000E+00 -0.17761583335E+03  0.17761583335E+03  0.00000000000E+00 0. -1.
         25    2    1    2    0    0 -0.22224283394E+02  0.77360818686E+02  0.11827150707E+02  0.14921641574E+03  0.12508813769E+03 0.  0.
          5    1    3    3  502    0  0.37086602686E+02  0.23329476723E+01  0.34454830914E+02  0.50847482897E+02  0.41800000000E+01 0. -1.
         -5    1    3    3    0  502 -0.59310886080E+02  0.75027871013E+02 -0.22627680207E+02  0.98368932839E+02  0.41800000000E+01 0. -1.
        -11    1    1    2    0    0  0.32208508296E+02 -0.36713932856E+02  0.13353958937E+02  0.50632292973E+02  0.00000000000E+00 0.  1.
         11    1    1    2    0    0 -0.99842249019E+01 -0.40646885830E+02 -0.85430974311E+02  0.95133093328E+02  0.00000000000E+00 0. -1.
</event>
<event>
 7    1  0.2641580E-009  0.1553888E+03  0.7561462E-02  0.1194003E+00
          1   -1    0    0  501    0  0.00000000000E+00  0.00000000000E+00  0.11228440289E+03  0.11228440289E+03  0.00000000000E+00 0. -1.
         -1   -1    0    0    0  501 -0.00000000000E+00 -0.00000000000E+00 -0.38292092198E+03  0.38292092198E+03  0.00000000000E+00 0.  1.
         25    2    1    2    0    0  0.11140911285E+03 -0.62180864743E+02  0.47643884023E+01  0.17873969617E+03  0.12508688670E+03 0.  0.
          5    1    3    3  502    0  0.77025103400E+02  0.70701749367E+01  0.46933907489E+02  0.90571066018E+02  0.41800000000E+01 0. -1.
         -5    1    3    3    0  502  0.34384009448E+02 -0.69251039680E+02 -0.42169519086E+02  0.88168630149E+02  0.41800000000E+01 0. -1.
        -11    1    1    2    0    0 -0.88256009336E+02 -0.13510444633E+01 -0.15806926257E+03  0.18104375237E+03  0.00000000000E+00 0.  1.
         11    1    1    2    0    0 -0.23153103512E+02  0.63531909206E+02 -0.11733164492E+03  0.13542187634E+03  0.00000000000E+00 0. -1.
</event>
<event>
 7    1  0.2641580E-009  0.2465615E+03  0.7561462E-02  0.1115497E+00
          2   -1    0    0  501    0  0.00000000000E+00  0.00000000000E+00  0.16562936735E+04  0.16562936735E+04  0.00000000000E+00 0. -1.
         -2   -1    0    0    0  501 -0.00000000000E+00 -0.00000000000E+00 -0.40845313735E+02  0.40845313735E+02  0.00000000000E+00 0.  1.
         25    2    1    2    0    0 -0.15012941204E+03 -0.16952914839E+03  0.10460832778E+04  0.10775970114E+04  0.12508446105E+03 0.  0.
          5    1    3    3  502    0  0.20508215207E+02 -0.66275276650E+01  0.11545480507E+03  0.11752359520E+03  0.41800000000E+01 0. -1.
         -5    1    3    3    0  502 -0.17063762724E+03 -0.16290162073E+03  0.93062847269E+03  0.96007341618E+03  0.41800000000E+01 0. -1.
        -11    1    1    2    0    0  0.48435099539E+02  0.15891671189E+02  0.20500201250E+03  0.21124471404E+03  0.00000000000E+00 0. -1.
         11    1    1    2    0    0  0.10169431250E+03  0.15363747720E+03  0.36436306953E+03  0.40829726185E+03  0.00000000000E+00 0.  1.
</event>
<event>
 7    1  0.2641580E-009  0.1591019E+03  0.7561462E-02  0.1189714E+00
         -2   -1    0    0    0  501 -0.00000000000E+00  0.00000000000E+00  0.79653695512E+02  0.79653695512E+02  0.00000000000E+00 0.  1.
          2   -1    0    0  501    0  0.00000000000E+00 -0.00000000000E+00 -0.37956161798E+03  0.37956161798E+03  0.00000000000E+00 0. -1.
         25    2    1    2    0    0 -0.12326438521E+03  0.46552712472E+02 -0.20142560293E+03  0.27125876783E+03  0.12509109444E+03 0.  0.
          5    1    3    3  502    0 -0.13336159370E+03 -0.44338474811E+00 -0.14694378042E+03  0.19848289163E+03  0.41800000000E+01 0. -1.
         -5    1    3    3    0  502  0.10097208491E+02  0.46996097220E+02 -0.54481822509E+02  0.72775876203E+02  0.41800000000E+01 0. -1.
        -11    1    1    2    0    0  0.45246262199E+02  0.81644952095E+00 -0.84176511488E+02  0.95569743743E+02  0.00000000000E+00 0.  1.
         11    1    1    2    0    0  0.78018123007E+02 -0.47369161993E+02 -0.14305808051E+02  0.92386801923E+02  0.00000000000E+00 0. -1.
</event>
<event>
 7    1  0.2641580E-009  0.1011979E+03  0.7561462E-02  0.1277797E+00
         -1   -1    0    0    0  501 -0.00000000000E+00  0.00000000000E+00  0.11184717847E+03  0.11184717847E+03  0.00000000000E+00 0.  1.
          1   -1    0    0  501    0  0.00000000000E+00 -0.00000000000E+00 -0.15516537196E+03  0.15516537196E+03  0.00000000000E+00 0. -1.
         25    2    1    2    0    0 -0.67778307441E+02 -0.18330820494E+02  0.29076013118E+02  0.14636505554E+03  0.12508955594E+03 0.  0.
          5    1    3    3  502    0 -0.21323912337E+02 -0.63486022367E+02  0.43361461379E+02  0.79892884578E+02  0.41800000000E+01 0.  1.
         -5    1    3    3    0  502 -0.46454395103E+02  0.45155201873E+02 -0.14285448260E+02  0.66472170963E+02  0.41800000000E+01 0.  1.
        -11    1    1    2    0    0  0.50660543599E+02  0.11532522809E+02 -0.66600489938E+01  0.52381733579E+02  0.00000000000E+00 0.  1.
         11    1    1    2    0    0  0.17117763841E+02  0.67982976849E+01 -0.65734157612E+02  0.68265761311E+02  0.00000000000E+00 0. -1.
</event>
<event>
 7    1  0.3595082E-009  0.8509834E+02  0.7561462E-02  0.1315176E+00
          1   -1    0    0  501    0  0.00000000000E+00  0.00000000000E+00  0.49247722066E+03  0.49247722066E+03  0.00000000000E+00 0. -1.
         -1   -1    0    0    0  501 -0.00000000000E+00 -0.00000000000E+00 -0.32401413484E+02  0.32401413484E+02  0.00000000000E+00 0.  1.
         25    2    1    2    0    0 -0.63722941081E+02  0.41744196932E+01  0.26790170441E+03  0.30248407074E+03  0.12508897165E+03 0.  0.
          5    1    3    3  502    0 -0.18365404459E+01  0.11652275879E+02 -0.11005135128E+02  0.16665347676E+02  0.41800000000E+01 0. -1.
         -5    1    3    3    0  502 -0.61886400636E+02 -0.74778561858E+01  0.27890683954E+03  0.28581872307E+03  0.41800000000E+01 0. -1.
        -11    1    1    2    0    0  0.51912386343E+02 -0.34721990632E+02  0.61398281593E+02  0.87580028955E+02  0.00000000000E+00 0.  1.
         11    1    1    2    0    0  0.11810554738E+02  0.30547570938E+02  0.13077582118E+03  0.13481453445E+03  0.00000000000E+00 0. -1.
</event>
<event>
 7    1  0.2641580E-009  0.9862370E+02  0.7561462E-02  0.1283217E+00
          2   -1    0    0  501    0  0.00000000000E+00  0.00000000000E+00  0.31094207314E+03  0.31094207314E+03  0.00000000000E+00 0. -1.
         -2   -1    0    0    0  501 -0.00000000000E+00 -0.00000000000E+00 -0.74684075912E+02  0.74684075912E+02  0.00000000000E+00 0.  1.
         25    2    1    2    0    0  0.45378076230E+02  0.57955176988E+02  0.22344978130E+03  0.26644904121E+03  0.12508922598E+03 0.  0.
          5    1    3    3  502    0  0.17196025596E+02 -0.25942837209E+02  0.14418308677E+03  0.14756344063E+03  0.41800000000E+01 0. -1.
         -5    1    3    3    0  502  0.28182050634E+02  0.83898014197E+02  0.79266694534E+02  0.11888560058E+03  0.41800000000E+01 0. -1.
        -11    1    1    2    0    0 -0.15780654822E+02 -0.49632341017E+01  0.46780575171E+02  0.49619401172E+02  0.00000000000E+00 0. -1.
         11    1    1    2    0    0 -0.29597421409E+02 -0.52991942886E+02 -0.33972359244E+02  0.69557706672E+02  0.00000000000E+00 0.  1.
</event>
<event>
 7    1  0.2641580E-009  0.1898350E+03  0.7561462E-02  0.1158610E+00
         -1   -1    0    0    0  501 -0.00000000000E+00  0.00000000000E+00  0.12651777545E+04  0.12651777545E+04  0.00000000000E+00 0.  1.
          1   -1    0    0  501    0  0.00000000000E+00 -0.00000000000E+00 -0.30825477477E+02  0.30825477477E+02  0.00000000000E+00 0. -1.
         25    2    1    2    0    0  0.59325479945E+02 -0.15342404745E+03  0.65792312153E+03  0.68960669729E+03  0.12504444089E+03 0.  0.
          5    1    3    3  502    0  0.19401510797E+02 -0.15732942448E+03  0.43361827498E+03  0.46170471865E+03  0.41800000000E+01 0. -1.
         -5    1    3    3    0  502  0.39923969148E+02  0.39053770311E+01  0.22430484655E+03  0.22790197864E+03  0.41800000000E+01 0. -1.
        -11    1    1    2    0    0 -0.17461956380E+02  0.13307343448E+03  0.49209126385E+03  0.51006594754E+03  0.00000000000E+00 0.  1.
         11    1    1    2    0    0 -0.41863523565E+02  0.20350612962E+02  0.84337891673E+02  0.96330587172E+02  0.00000000000E+00 0. -1.
</event>
<event>
 7    1  0.2641580E-009  0.1126721E+03  0.7561462E-02  0.1255700E+00
         -1   -1    0    0    0  501 -0.00000000000E+00  0.00000000000E+00  0.55291899321E+03  0.55291899321E+03  0.00000000000E+00 0.  1.
          1   -1    0    0  501    0  0.00000000000E+00 -0.00000000000E+00 -0.28419162689E+02  0.28419162689E+02  0.00000000000E+00 0. -1.
         25    2    1    2    0    0  0.25243585393E+02  0.44123955108E+02  0.20632962816E+03  0.24658224946E+03  0.12508688291E+03 0.  0.
          5    1    3    3  502    0 -0.41759529139E+02 -0.93190437449E+01  0.10704664922E+03  0.11535666587E+03  0.41800000000E+01 0. -1.
         -5    1    3    3    0  502  0.67003114533E+02  0.53442998853E+02  0.99282978935E+02  0.13122558359E+03  0.41800000000E+01 0. -1.
        -11    1    1    2    0    0 -0.21655840832E+02  0.21680475960E+02  0.16784714136E+03  0.17062145628E+03  0.00000000000E+00 0.  1.
         11    1    1    2    0    0 -0.35877445615E+01 -0.65804431068E+02  0.15032306100E+03  0.16413445016E+03  0.00000000000E+00 0. -1.
</event>
<event>
 7    1  0.2641580E-009  0.1138298E+03  0.7561462E-02  0.1253638E+00
         -1   -1    0    0    0  501 -0.00000000000E+00  0.00000000000E+00  0.22086063552E+02  0.22086063552E+02  0.00000000000E+00 0.  1.
          1   -1    0    0  501    0  0.00000000000E+00 -0.00000000000E+00 -0.81823576670E+03  0.81823576670E+03  0.00000000000E+00 0. -1.
         25    2    1    2    0    0  0.56423088863E+02 -0.10414532773E+02 -0.26330010761E+03  0.29709627616E+03  0.12508886117E+03 0.  0.
          5    1    3    3  502    0 -0.25614436545E+02  0.21901703274E+02 -0.22787366031E+02  0.40896459706E+02  0.41800000000E+01 0.  1.
         -5    1    3    3    0  502  0.82037525409E+02 -0.32316236047E+02 -0.24051274158E+03  0.25619981646E+03  0.41800000000E+01 0.  1.
        -11    1    1    2    0    0  0.24241351855E+02  0.19196207674E+01 -0.13892337139E+03  0.14103556715E+03  0.00000000000E+00 0.  1.
         11    1    1    2    0    0 -0.80664440719E+02  0.84949120058E+01 -0.39392622414E+03  0.40218998694E+03  0.00000000000E+00 0. -1.
</event>
<event>
 7    1  0.2641580E-009  0.1460208E+03  0.7561462E-02  0.1205450E+00
         -2   -1    0    0    0  501 -0.00000000000E+00  0.00000000000E+00  0.11544759692E+03  0.11544759692E+03  0.00000000000E+00 0. -1.
          2   -1    0    0  501    0  0.00000000000E+00 -0.00000000000E+00 -0.26896120947E+03  0.26896120947E+03  0.00000000000E+00 0.  1.
         25    2    1    2    0    0 -0.53515320966E+02  0.12627535567E+03 -0.63451651496E+02  0.19617480076E+03  0.12509630429E+03 0.  0.
          5    1    3    3  502    0 -0.10190963280E+02  0.31034124279E+02 -0.83319360797E+02  0.89591075929E+02  0.41800000000E+01 0. -1.
         -5    1    3    3    0  502 -0.43324357686E+02  0.95241231388E+02  0.19867709301E+02  0.10658372483E+03  0.41800000000E+01 0. -1.
        -11    1    1    2    0    0 -0.16718262032E+02 -0.13279211390E+02 -0.41378490924E+02  0.46561972162E+02  0.00000000000E+00 0. -1.
         11    1    1    2    0    0  0.70233582998E+02 -0.11299614428E+03 -0.48683470134E+02  0.14167203347E+03  0.00000000000E+00 0.  1.
</event>
<event>
 7    1  0.2641580E-009  0.1438874E+03  0.7561462E-02  0.1208192E+00
          2   -1    0    0  501    0  0.00000000000E+00  0.00000000000E+00  0.40241238508E+03  0.40241238508E+03  0.00000000000E+00 0. -1.
         -2   -1    0    0    0  501 -0.00000000000E+00 -0.00000000000E+00 -0.62315964369E+02  0.62315964369E+02  0.00000000000E+00 0.  1.
         25    2    1    2    0    0 -0.75193739649E+02 -0.72117798054E+02  0.25088976468E+03  0.29908267361E+03  0.12509874642E+03 0.  0.
          5    1    3    3  502    0  0.28514226325E+01  0.24586656468E+02  0.10228852987E+03  0.10532354926E+03  0.41800000000E+01 0.  1.
         -5    1    3    3    0  502 -0.78045162281E+02 -0.96704454522E+02  0.14860123481E+03  0.19375912435E+03  0.41800000000E+01 0.  1.
        -11    1    1    2    0    0  0.67576643010E+02  0.17960698959E+01  0.54622112372E+02  0.86910319914E+02  0.00000000000E+00 0. -1.
         11    1    1    2    0    0  0.76170966391E+01  0.70321728158E+02  0.34584543662E+02  0.78735355925E+02  0.00000000000E+00 0.  1.
</event>
<event>
 7    1  0.2641580E-009  0.1721471E+03  0.7561462E-02  0.1175627E+00
          1   -1    0    0  501    0  0.00000000000E+00  0.00000000000E+00  0.75196529151E+02  0.75196529151E+02  0.00000000000E+00 0. -1.
         -1   -1    0    0    0  501 -0.00000000000E+00 -0.00000000000E+00 -0.49473190966E+03  0.49473190966E+03  0.00000000000E+00 0.  1.
         25    2    1    2    0    0 -0.84163550815E+02  0.12305664576E+03 -0.13954397181E+03  0.23947124686E+03  0.12509003418E+03 0.  0.
          5    1    3    3  502    0  0.14831982030E+02  0.32883993011E+02 -0.89273958965E+02  0.96377678104E+02  0.41800000000E+01 0. -1.
         -5    1    3    3    0  502 -0.98995532844E+02  0.90172652752E+02 -0.50270012844E+02  0.14309356875E+03  0.41800000000E+01 0. -1.
        -11    1    1    2    0    0  0.40024407737E+02  0.33014152709E+01 -0.47610650852E+02  0.62286648907E+02  0.00000000000E+00 0.  1.
         11    1    1    2    0    0  0.44139143078E+02 -0.12635806103E+03 -0.23238075785E+03  0.26817054305E+03  0.00000000000E+00 0. -1.
</event>
<event>
 7    1  0.2641580E-009  0.1161673E+03  0.7561462E-02  0.1249557E+00
          3   -1    0    0  501    0  0.00000000000E+00  0.00000000000E+00  0.74391011151E+03  0.74391011151E+03  0.00000000000E+00 0.  1.
         -3   -1    0    0    0  501 -0.00000000000E+00 -0.00000000000E+00 -0.29717882053E+02  0.29717882053E+02  0.00000000000E+00 0. -1.
         25    2    1    2    0    0 -0.58869835019E+02 -0.64362095440E+02  0.25417330377E+03  0.29641033427E+03  0.12508749380E+03 0.  0.
          5    1    3    3  502    0 -0.65016963403E+00 -0.52077071329E+02  0.21989962372E+02  0.56687520001E+02  0.41800000000E+01 0.  1.
         -5    1    3    3    0  502 -0.58219665385E+02 -0.12285024111E+02  0.23218334140E+03  0.23972281427E+03  0.41800000000E+01 0.  1.
        -11    1    1    2    0    0 -0.15656471360E+02  0.38483036003E+02  0.93664937200E+02  0.10246555331E+03  0.00000000000E+00 0. -1.
         11    1    1    2    0    0  0.74526306379E+02  0.25879059437E+02  0.36635398849E+03  0.37475210598E+03  0.00000000000E+00 0.  1.
</event>
<event>
 7    1  0.2641580E-009  0.1182492E+03  0.7561462E-02  0.1246014E+00
         -2   -1    0    0    0  501 -0.00000000000E+00  0.00000000000E+00  0.15962100931E+02  0.15962100931E+02  0.00000000000E+00 0. -1.
          2   -1    0    0  501    0  0.00000000000E+00 -0.00000000000E+00 -0.15485007825E+04  0.15485007825E+04  0.00000000000E+00 0.  1.
         25    2    1    2    0    0  0.23319021578E+02 -0.10163507399E+03 -0.10509582075E+04  0.10635006080E+04  0.12508766672E+03 0.  0.
          5    1    3    3  502    0  0.17085731456E+02 -0.71776054411E+02 -0.22211988829E+03  0.23409066915E+03  0.41800000000E+01 0. -1.
         -5    1    3    3    0  502  0.62332901221E+01 -0.29859019581E+02 -0.82883831920E+03  0.82940993889E+03  0.41800000000E+01 0. -1.
        -11    1    1    2    0    0  0.11876632983E+02  0.95314914642E+02 -0.40798731422E+03  0.41914154641E+03  0.00000000000E+00 0.  1.
         11    1    1    2    0    0 -0.35195654562E+02  0.63201593498E+01 -0.73593159895E+02  0.81820729021E+02  0.00000000000E+00 0. -1.
</event>
<event>
 7    1  0.2641580E-009  0.1284768E+03  0.7561462E-02  0.1229734E+00
          1   -1    0    0  501    0  0.00000000000E+00  0.00000000000E+00  0.53113729711E+03  0.53113729711E+03  0.00000000000E+00 0. -1.
         -1   -1    0    0    0  501 -0.00000000000E+00 -0.00000000000E+00 -0.47518662202E+02  0.47518662202E+02  0.00000000000E+00 0.  1.
         25    2    1    2    0    0  0.33958453848E+02  0.10809903298E+03  0.30429172186E+03  0.34796337098E+03  0.12508588262E+03 0.  0.
          5    1    3    3  502    0  0.69317148512E+01  0.33286485623E+02  0.87767717195E+00  0.34267791191E+02  0.41800000000E+01 0.  1.
         -5    1    3    3    0  502  0.27026738997E+02  0.74812547354E+02  0.30341404469E+03  0.31369557979E+03  0.41800000000E+01 0.  1.
        -11    1    1    2    0    0 -0.63660575374E+02 -0.79050705738E+02  0.10844686764E+03  0.14853419147E+03  0.00000000000E+00 0.  1.
         11    1    1    2    0    0  0.29702121526E+02 -0.29048327239E+02  0.70880045411E+02  0.82158396868E+02  0.00000000000E+00 0. -1.
</event>
<event>
 7    1  0.2641580E-009  0.1426565E+03  0.7561462E-02  0.1209798E+00
          1   -1    0    0  501    0  0.00000000000E+00  0.00000000000E+00  0.28192810219E+03  0.28192810219E+03  0.00000000000E+00 0. -1.
         -1   -1    0    0    0  501 -0.00000000000E+00 -0.00000000000E+00 -0.10252402943E+03  0.10252402943E+03  0.00000000000E+00 0.  1.
         25    2    1    2    0    0  0.10349282351E+03 -0.29615205884E+01  0.23334409759E+02  0.16404729940E+03  0.12508991421E+03 0.  0.
          5    1    3    3  502    0  0.15217001664E+02  0.32281374788E+02  0.53314577288E+02  0.64292774471E+02  0.41800000000E+01 0.  1.
         -5    1    3    3    0  502  0.88275821850E+02 -0.35242895376E+02 -0.29980167528E+02  0.99754524924E+02  0.41800000000E+01 0.  1.
        -11    1    1    2    0    0 -0.52458819708E+02 -0.55679932681E+02  0.62716484376E+02  0.98921888787E+02  0.00000000000E+00 0. -1.
         11    1    1    2    0    0 -0.51034003805E+02  0.58641453270E+02  0.93353178631E+02  0.12148294344E+03  0.00000000000E+00 0.  1.
</event>
<event>
 7    1  0.2641580E-009  0.1525426E+03  0.7561462E-02  0.1197383E+00
         -2   -1    0    0    0  501 -0.00000000000E+00  0.00000000000E+00  0.50448631468E+02  0.50448631468E+02  0.00000000000E+00 0.  1.
          2   -1    0    0  501    0  0.00000000000E+00 -0.00000000000E+00 -0.68838231960E+03  0.68838231960E+03  0.00000000000E+00 0. -1.
         25    2    1    2    0    0 -0.47366965860E+02  0.11635039228E+03 -0.50704608497E+03  0.53714446655E+03  0.12508957757E+03 0.  0.
          5    1    3    3  502    0 -0.54939964595E+02  0.19586913107E+02 -0.33050461925E+03  0.33563793382E+03  0.41800000000E+01 0. -1.
         -5    1    3    3    0  502  0.75729987357E+01  0.96763479169E+02 -0.17654146572E+03  0.20150653272E+03  0.41800000000E+01 0. -1.
        -11    1    1    2    0    0 -0.20584985228E+02 -0.51777963938E+02 -0.27522533422E+02  0.62146512471E+02  0.00000000000E+00 0.  1.
         11    1    1    2    0    0  0.67951951087E+02 -0.64572428338E+02 -0.10336506974E+03  0.13953997205E+03  0.00000000000E+00 0. -1.
</event>
<event>
 7    1  0.2641580E-009  0.8953050E+02  0.7561462E-02  0.1303993E+00
          2   -1    0    0  501    0  0.00000000000E+00  0.00000000000E+00  0.42362872436E+03  0.42362872436E+03  0.00000000000E+00 0. -1.
         -2   -1    0    0    0  501 -0.00000000000E+00 -0.00000000000E+00 -0.35120567454E+02  0.35120567454E+02  0.00000000000E+00 0.  1.
         25    2    1    2    0    0  0.53206196214E+02 -0.89806730090E+01  0.24730537455E+03  0.28234519416E+03  0.12508920250E+03 0.  0.
          5    1    3    3  502    0 -0.10375584037E+02  0.26906886915E+02  0.54104109181E+01  0.29637446817E+02  0.41800000000E+01 0. -1.
         -5    1    3    3    0  502  0.63581780250E+02 -0.35887559924E+02  0.24189496363E+03  0.25270774734E+03  0.41800000000E+01 0. -1.
        -11    1    1    2    0    0 -0.71428446938E+01 -0.20764563184E+02 -0.29676901592E+01  0.22158395687E+02  0.00000000000E+00 0.  1.
         11    1    1    2    0    0 -0.46063351520E+02  0.29745236193E+02  0.14417047252E+03  0.15424570197E+03  0.00000000000E+00 0. -1.
</event>
<event>
 7    1  0.2641580E-009  0.1765710E+03  0.7561462E-02  0.1171163E+00
          2   -1    0    0  501    0  0.00000000000E+00  0.00000000000E+00  0.84345973076E+02  0.84345973076E+02  0.00000000000E+00 0. -1.
         -2   -1    0    0    0  501 -0.00000000000E+00 -0.00000000000E+00 -0.51556155375E+03  0.51556155375E+03  0.00000000000E+00 0.  1.
         25    2    1    2    0    0 -0.14924215696E+03 -0.28943245498E+02 -0.35513430945E+03  0.40605280717E+03  0.12509025376E+03 0.  0.
          5    1    3    3  502    0 -0.47078698640E+02  0.48956665422E+02 -0.11277660103E+03  0.13171633572E+03  0.41800000000E+01 0. -1.
         -5    1    3    3    0  502 -0.10216345832E+03 -0.77899910920E+02 -0.24235770841E+03  0.27433647145E+03  0.41800000000E+01 0. -1.
        -11    1    1    2    0    0  0.30681515399E+02  0.22062730254E+02  0.18460522094E+02  0.42058415679E+02  0.00000000000E+00 0. -1.
         11    1    1    2    0    0  0.11856064156E+03  0.68805152443E+01 -0.94541793322E+02  0.15179630398E+03  0.00000000000E+00 0.  1.
</event>
<event>
 7    1  0.2641580E-009  0.1222563E+03  0.7561462E-02  0.1239421E+00
         -1   -1    0    0    0  501 -0.00000000000E+00  0.00000000000E+00  0.60067246708E+03  0.60067246708E+03  0.00000000000E+00 0.  1.
          1   -1    0    0  501    0  0.00000000000E+00 -0.00000000000E+00 -0.31531643010E+02  0.31531643010E+02  0.00000000000E+00 0. -1.
         25    2    1    2    0    0 -0.38963324101E+02  0.73501650550E+02  0.34572006846E+03  0.37694852451E+03  0.12508873304E+03 0.  0.
          5    1    3    3  502    0  0.29050966294E+02  0.34856526610E+02  0.37756110903E+02  0.59177127342E+02  0.41800000000E+01 0.  1.
         -5    1    3    3    0  502 -0.68014290395E+02  0.38645123940E+02  0.30796395756E+03  0.31777139717E+03  0.41800000000E+01 0.  1.
        -11    1    1    2    0    0  0.61433730796E+01 -0.85456804524E+02  0.18138127798E+03  0.20059854056E+03  0.00000000000E+00 0.  1.
         11    1    1    2    0    0  0.32819951022E+02  0.11955153974E+02  0.42039477633E+02  0.54657045029E+02  0.00000000000E+00 0. -1.
</event>
<event>
 7    1  0.2641580E-009  0.1119521E+03  0.7561462E-02  0.1256997E+00
          2   -1    0    0  501    0  0.00000000000E+00  0.00000000000E+00  0.28986723594E+03  0.28986723594E+03  0.00000000000E+00 0. -1.
         -2   -1    0    0    0  501 -0.00000000000E+00 -0.00000000000E+00 -0.49249555484E+02  0.49249555484E+02  0.00000000000E+00 0.  1.
         25    2    1    2    0    0  0.37255757160E+02  0.23558628631E+02  0.16538704241E+03  0.21200203752E+03  0.12509592195E+03 0.  0.
          5    1    3    3  502    0  0.35724206192E+02 -0.46374607733E+02  0.50470168768E+02  0.77404996518E+02  0.41800000000E+01 0. -1.
         -5    1    3    3    0  502  0.15315509675E+01  0.69933236364E+02  0.11491687365E+03  0.13459704100E+03  0.41800000000E+01 0. -1.
        -11    1    1    2    0    0  0.26549154608E+02  0.15012018935E+01  0.44836672001E+02  0.52129054985E+02  0.00000000000E+00 0.  1.
         11    1    1    2    0    0 -0.63804911767E+02 -0.25059830525E+02  0.30393966043E+02  0.74985698926E+02  0.00000000000E+00 0. -1.
</event>
<event>
 7    1  0.2641580E-009  0.9981278E+02  0.7561462E-02  0.1280690E+00
          1   -1    0    0  501    0  0.00000000000E+00  0.00000000000E+00  0.64159034485E+03  0.64159034485E+03  0.00000000000E+00 0. -1.
         -1   -1    0    0    0  501 -0.00000000000E+00 -0.00000000000E+00 -0.20625143249E+02  0.20625143249E+02  0.00000000000E+00 0.  1.
         25    2    1    2    0    0  0.24179258545E+02  0.20215801285E+02  0.35641085894E+03  0.37903809276E+03  0.12509140750E+03 0.  0.
          5    1    3    3  502    0 -0.31677779410E+02  0.46697973860E+02  0.24607297089E+03  0.25249467692E+03  0.41800000000E+01 0. -1.
         -5    1    3    3    0  502  0.55857037955E+02 -0.26482172576E+02  0.11033788805E+03  0.12654341584E+03  0.41800000000E+01 0. -1.
        -11    1    1    2    0    0 -0.33773735404E+02  0.20328959964E+02  0.21431087304E+03  0.21790613144E+03  0.00000000000E+00 0. -1.
         11    1    1    2    0    0  0.95944768590E+01 -0.40544761249E+02  0.50243469625E+02  0.65271263899E+02  0.00000000000E+00 0.  1.
</event>
<event>
 7    1  0.2641580E-009  0.2210738E+03  0.7561462E-02  0.1133085E+00
          1   -1    0    0  501    0  0.00000000000E+00  0.00000000000E+00  0.20127261189E+04  0.20127261189E+04  0.00000000000E+00 0. -1.
         -1   -1    0    0    0  501 -0.00000000000E+00 -0.00000000000E+00 -0.28913469496E+02  0.28913469496E+02  0.00000000000E+00 0.  1.
         25    2    1    2    0    0  0.18941011371E+03  0.10243986094E+03  0.10000727651E+04  0.10306133351E+04  0.12509274423E+03 0.  0.
          5    1    3    3  502    0  0.78135475908E+02  0.29045645032E+02  0.66111259524E+03  0.66636036653E+03  0.41800000000E+01 0.  1.
         -5    1    3    3    0  502  0.11127463780E+03  0.73394215908E+02  0.33896016985E+03  0.36425296854E+03  0.41800000000E+01 0.  1.
        -11    1    1    2    0    0 -0.90296669084E+02 -0.11901988446E+02  0.27513440552E+03  0.28981733364E+03  0.00000000000E+00 0.  1.
         11    1    1    2    0    0 -0.99113444627E+02 -0.90537872495E+02  0.70860547875E+03  0.72120891965E+03  0.00000000000E+00 0. -1.
</event>
<event>
 7    1  0.2641580E-009  0.8984307E+02  0.7561462E-02  0.1303232E+00
         -1   -1    0    0    0  501 -0.00000000000E+00  0.00000000000E+00  0.11536444070E+02  0.11536444070E+02  0.00000000000E+00 0.  1.
          1   -1    0    0  501    0  0.00000000000E+00 -0.00000000000E+00 -0.12383667734E+04  0.12383667734E+04  0.00000000000E+00 0. -1.
         25    2    1    2    0    0 -0.16040179219E+02  0.31970724753E+02 -0.87772522430E+03  0.88731538546E+03  0.12509040452E+03 0.  0.
          5    1    3    3  502    0  0.15612067504E+02 -0.18266824446E+02 -0.35977764206E+02  0.43465911291E+02  0.41800000000E+01 0. -1.
         -5    1    3    3    0  502 -0.31652246724E+02  0.50237549199E+02 -0.84174746009E+03  0.84384947416E+03  0.41800000000E+01 0. -1.
        -11    1    1    2    0    0  0.50609709683E+02 -0.30530251405E+01 -0.14634587000E+03  0.15487988037E+03  0.00000000000E+00 0.  1.
         11    1    1    2    0    0 -0.34569530464E+02 -0.28917699613E+02 -0.20275923503E+03  0.20770795165E+03  0.00000000000E+00 0. -1.
</event>
<event>
 7    1  0.2641580E-009  0.8873392E+02  0.7561462E-02  0.1305947E+00
          1   -1    0    0  501    0  0.00000000000E+00  0.00000000000E+00  0.11715101789E+03  0.11715101789E+03  0.00000000000E+00 0. -1.
         -1   -1    0    0    0  501 -0.00000000000E+00 -0.00000000000E+00 -0.10885083838E+03  0.10885083838E+03  0.00000000000E+00 0.  1.
         25    2    1    2    0    0  0.19086436391E+02  0.25000369977E+02 -0.59674572989E+01  0.12911678904E+03  0.12508486764E+03 0.  0.
          5    1    3    3  502    0  0.39932361048E+01  0.58069677471E+02  0.39713572134E+02  0.70588055560E+02  0.41800000000E+01 0.  1.
         -5    1    3    3    0  502  0.15093200286E+02 -0.33069307493E+02 -0.45681029433E+02  0.58528733482E+02  0.41800000000E+01 0.  1.
        -11    1    1    2    0    0  0.21994829572E+02 -0.33972608924E+02 -0.17591718003E+02  0.44129119948E+02  0.00000000000E+00 0.  1.
         11    1    1    2    0    0 -0.41081265963E+02  0.89722389470E+01  0.31859354814E+02  0.52755947286E+02  0.00000000000E+00 0. -1.
</event>
<event>
 7    1  0.2641580E-009  0.1488567E+03  0.7561462E-02  0.1201885E+00
          2   -1    0    0  501    0  0.00000000000E+00  0.00000000000E+00  0.55049020384E+03  0.55049020384E+03  0.00000000000E+00 0. -1.
         -2   -1    0    0    0  501 -0.00000000000E+00 -0.00000000000E+00 -0.60225177284E+02  0.60225177284E+02  0.00000000000E+00 0.  1.
         25    2    1    2    0    0  0.89447107746E+02 -0.10282398147E+03  0.17107816779E+03  0.25197005445E+03  0.12509041768E+03 0.  0.
          5    1    3    3  502    0  0.62765632561E+02 -0.66073084188E+02  0.18980903899E+02  0.93182209663E+02  0.41800000000E+01 0. -1.
         -5    1    3    3    0  502  0.26681475185E+02 -0.36750897285E+02  0.15209726389E+03  0.15878784478E+03  0.41800000000E+01 0. -1.
        -11    1    1    2    0    0 -0.10426278913E+03  0.72087783855E+02  0.22064404092E+03  0.25446251309E+03  0.00000000000E+00 0.  1.
         11    1    1    2    0    0  0.14815681380E+02  0.30736197618E+02  0.98542817855E+02  0.10428281359E+03  0.00000000000E+00 0. -1.
</event>
<event>
 7    1  0.2641580E-009  0.9955987E+02  0.7561462E-02  0.1281224E+00
         -1   -1    0    0    0  501 -0.00000000000E+00  0.00000000000E+00  0.90663365711E+03  0.90663365711E+03  0.00000000000E+00 0.  1.
          1   -1    0    0  501    0  0.00000000000E+00 -0.00000000000E+00 -0.29952268339E+02  0.29952268339E+02  0.00000000000E+00 0. -1.
         25    2    1    2    0    0 -0.80190764952E+02  0.51165600053E+02  0.67382992839E+03  0.69191656039E+03  0.12511305583E+03 0.  0.
          5    1    3    3  502    0 -0.27707170538E+02  0.92537987157E+01  0.55157806569E+03  0.55236686635E+03  0.41800000000E+01 0.  1.
         -5    1    3    3    0  502 -0.52483594414E+02  0.41911801338E+02  0.12225186270E+03  0.13954969404E+03  0.41800000000E+01 0.  1.
        -11    1    1    2    0    0  0.15985200430E+02 -0.31235100305E+02  0.16253522045E+03  0.16627945156E+03  0.00000000000E+00 0.  1.
         11    1    1    2    0    0  0.64205564522E+02 -0.19930499749E+02  0.40316239926E+02  0.78389913494E+02  0.00000000000E+00 0. -1.
</event>
<event>
 7    1  0.2641580E-009  0.1857152E+03  0.7561462E-02  0.1162384E+00
          4   -1    0    0  501    0  0.00000000000E+00  0.00000000000E+00  0.91019840340E+02  0.91019840340E+02  0.00000000000E+00 0. -1.
         -4   -1    0    0    0  501 -0.00000000000E+00 -0.00000000000E+00 -0.42735032800E+03  0.42735032800E+03  0.00000000000E+00 0.  1.
         25    2    1    2    0    0 -0.56770465378E+02  0.15245885601E+03 -0.21424980278E+03  0.29667666106E+03  0.12508986655E+03 0.  0.
          5    1    3    3  502    0  0.31492711088E+02  0.21337254126E+02 -0.12311549535E+02  0.40200944234E+02  0.41800000000E+01 0.  1.
         -5    1    3    3    0  502 -0.88263176467E+02  0.13112160188E+03 -0.20193825324E+03  0.25647571683E+03  0.41800000000E+01 0.  1.
        -11    1    1    2    0    0  0.55425014386E+02 -0.56745243194E+02 -0.20106290924E+02  0.81830420869E+02  0.00000000000E+00 0.  1.
         11    1    1    2    0    0  0.13454509927E+01 -0.95713612815E+02 -0.10197439396E+03  0.13986308641E+03  0.00000000000E+00 0. -1.
</event>
<event>
 7    1  0.2641580E-009  0.1602700E+03  0.7561462E-02  0.1188392E+00
         -2   -1    0    0    0  501 -0.00000000000E+00  0.00000000000E+00  0.20788428056E+02  0.20788428056E+02  0.00000000000E+00 0. -1.
          2   -1    0    0  501    0  0.00000000000E+00 -0.00000000000E+00 -0.14682480424E+04  0.14682480424E+04  0.00000000000E+00 0.  1.
         25    2    1    2    0    0 -0.90939072366E+02  0.82678757573E+02 -0.10221579840E+04  0.10370921542E+04  0.12508996864E+03 0.  0.
          5    1    3    3  502    0 -0.92201348412E+02  0.21539037365E+01 -0.45931358819E+03  0.46849991744E+03  0.41800000000E+01 0.  1.
         -5    1    3    3    0  502  0.12622760462E+01  0.80524853837E+02 -0.56284439583E+03  0.56859223679E+03  0.41800000000E+01 0.  1.
        -11    1    1    2    0    0  0.10298121750E+03 -0.53585165394E+02 -0.37539332650E+03  0.39293339218E+03  0.00000000000E+00 0.  1.
         11    1    1    2    0    0 -0.12042145135E+02 -0.29093592179E+02 -0.49908303843E+02  0.59010924056E+02  0.00000000000E+00 0. -1.
</event>
<event>
 7    1  0.2641580E-009  0.9384095E+02  0.7561462E-02  0.1293808E+00
         -2   -1    0    0    0  501 -0.00000000000E+00  0.00000000000E+00  0.28123159463E+02  0.28123159463E+02  0.00000000000E+00 0.  1.
          2   -1    0    0  501    0  0.00000000000E+00 -0.00000000000E+00 -0.17581133736E+04  0.17581133736E+04  0.00000000000E+00 0. -1.
         25    2    1    2    0    0  0.39494305889E+01  0.84545012567E+02 -0.15959975651E+04  0.16031278121E+04  0.12508835629E+03 0.  0.
          5    1    3    3  502    0 -0.10853271768E+02  0.45085313225E+02 -0.14587844205E+04  0.14595272992E+04  0.41800000000E+01 0. -1.
         -5    1    3    3    0  502  0.14802702357E+02  0.39459699343E+02 -0.13721314459E+03  0.14360051294E+03  0.41800000000E+01 0. -1.
        -11    1    1    2    0    0  0.22234568998E+02 -0.54812435103E+02 -0.20020321889E+02  0.62446716398E+02  0.00000000000E+00 0.  1.
         11    1    1    2    0    0 -0.26183999586E+02 -0.29732577465E+02 -0.11397232714E+03  0.12066200459E+03  0.00000000000E+00 0. -1.
</event>
<event>
 7    1  0.2641580E-009  0.1043326E+03  0.7561462E-02  0.1271440E+00
          1   -1    0    0  501    0  0.00000000000E+00  0.00000000000E+00  0.49421344926E+03  0.49421344926E+03  0.00000000000E+00 0. -1.
         -1   -1    0    0    0  501 -0.00000000000E+00 -0.00000000000E+00 -0.38378027190E+02  0.38378027190E+02  0.00000000000E+00 0.  1.
         25    2    1    2    0    0 -0.63531891348E+02  0.46181331189E+02  0.28894314788E+03  0.32450651739E+03  0.12508925035E+03 0.  0.
          5    1    3    3  502    0 -0.31173223098E+02 -0.12628327284E+02  0.23730949145E+03  0.23971756636E+03  0.41800000000E+01 0.  1.
         -5    1    3    3    0  502 -0.32358668249E+02  0.58809658473E+02  0.51633656429E+02  0.84788951030E+02  0.41800000000E+01 0.  1.
        -11    1    1    2    0    0  0.49618565131E+02  0.91579614784E+01  0.27496837740E+02  0.57462564769E+02  0.00000000000E+00 0.  1.
         11    1    1    2    0    0  0.13913326216E+02 -0.55339292667E+02  0.13939543645E+03  0.15062239429E+03  0.00000000000E+00 0. -1.
</event>
<event>
 7    1  0.2641580E-009  0.2339785E+03  0.7561462E-02  0.1123870E+00
         -3   -1    0    0    0  501 -0.00000000000E+00  0.00000000000E+00  0.12142007482E+03  0.12142007482E+03  0.00000000000E+00 0.  1.
          3   -1    0    0  501    0  0.00000000000E+00 -0.00000000000E+00 -0.50808727560E+03  0.50808727560E+03  0.00000000000E+00 0. -1.
         25    2    1    2    0    0  0.21645114716E+03 -0.26766118350E+02 -0.25887548503E+03  0.36087645990E+03  0.12509108026E+03 0.  0.
          5    1    3    3  502    0  0.12027922495E+03  0.32430289518E+02 -0.76260077957E+02  0.14612285079E+03  0.41800000000E+01 0. -1.
         -5    1    3    3    0  502  0.96171922211E+02 -0.59196407867E+02 -0.18261540707E+03  0.21475360911E+03  0.41800000000E+01 0. -1.
        -11    1    1    2    0    0 -0.29408202264E+02 -0.22330422240E+02 -0.15267998939E+00  0.36925782713E+02  0.00000000000E+00 0.  1.
         11    1    1    2    0    0 -0.18704294489E+03  0.49096540589E+02 -0.12763903576E+03  0.23170510780E+03  0.00000000000E+00 0. -1.
</event>
<event>
 7    1  0.2641580E-009  0.1885304E+03  0.7561462E-02  0.1159794E+00
          2   -1    0    0  501    0  0.00000000000E+00  0.00000000000E+00  0.35902202127E+03  0.35902202127E+03  0.00000000000E+00 0. -1.
         -2   -1    0    0    0  501 -0.00000000000E+00 -0.00000000000E+00 -0.10860660871E+03  0.10860660871E+03  0.00000000000E+00 0.  1.
         25    2    1    2    0    0 -0.88571297802E+02 -0.13523565865E+03  0.94554625649E+02  0.22521431664E+03  0.12508938014E+03 0.  0.
          5    1    3    3  502    0 -0.56142842648E+02 -0.15572252058E+03  0.80822744660E+02  0.18425881431E+03  0.41800000000E+01 0. -1.
         -5    1    3    3    0  502 -0.32428455154E+02  0.20486861934E+02  0.13731880989E+02  0.40955502330E+02  0.41800000000E+01 0. -1.
        -11    1    1    2    0    0  0.87034363403E+02  0.81831681717E+02  0.62442821826E+02  0.13479803613E+03  0.00000000000E+00 0.  1.
         11    1    1    2    0    0  0.15369343990E+01  0.53403976931E+02  0.93417965084E+02  0.10761627721E+03  0.00000000000E+00 0. -1.
</event>
<event>
 7    1  0.3314565E-009  0.2301440E+03  0.7561462E-02  0.1126538E+00
          2   -1    0    0  501    0  0.00000000000E+00  0.00000000000E+00  0.13851082282E+04  0.13851082282E+04  0.00000000000E+00 0. -1.
         -2   -1    0    0    0  501 -0.00000000000E+00 -0.00000000000E+00 -0.41808552075E+02  0.41808552075E+02  0.00000000000E+00 0.  1.
         25    2    1    2    0    0  0.20779925799E+03 -0.37712418010E+02  0.58329281637E+03  0.63283532909E+03  0.12508911230E+03 0.  0.
          5    1    3    3  502    0 -0.38869282191E+01 -0.19176130159E+02  0.13774817635E+03  0.13919362293E+03  0.41800000000E+01 0.  1.
         -5    1    3    3    0  502  0.21168618621E+03 -0.18536287851E+02  0.44554464003E+03  0.49364170616E+03  0.41800000000E+01 0.  1.
        -11    1    1    2    0    0 -0.18207233553E+03 -0.22806353337E-01  0.64875718294E+03  0.67382209692E+03  0.00000000000E+00 0. -1.
         11    1    1    2    0    0 -0.25726922460E+02  0.37735224363E+02  0.11124967678E+03  0.12025935423E+03  0.00000000000E+00 0.  1.
</event>
<event>
 7    1  0.2641580E-009  0.5718379E+02  0.7561462E-02  0.1410045E+00
          2   -1    0    0  501    0  0.00000000000E+00  0.00000000000E+00  0.57109230110E+02  0.57109230110E+02  0.00000000000E+00 0. -1.
         -2   -1    0    0    0  501 -0.00000000000E+00 -0.00000000000E+00 -0.23232170404E+03  0.23232170404E+03  0.00000000000E+00 0.  1.
         25    2    1    2    0    0  0.15471789853E+02 -0.18761968500E+02 -0.61910667578E+02  0.14167698607E+03  0.12509216553E+03 0.  0.
          5    1    3    3  502    0 -0.71625869981E+01 -0.11409703226E+02  0.37136556194E+02  0.39725057409E+02  0.41800000000E+01 0.  1.
         -5    1    3    3    0  502  0.22634376852E+02 -0.73522652745E+01 -0.99047223771E+02  0.10195192866E+03  0.41800000000E+01 0.  1.
        -11    1    1    2    0    0 -0.29197736983E+02 -0.19726392575E+02 -0.99461254492E+01  0.36613710825E+02  0.00000000000E+00 0. -1.
         11    1    1    2    0    0  0.13725947129E+02  0.38488361076E+02 -0.10335568090E+03  0.11114023726E+03  0.00000000000E+00 0.  1.
</event>
<event>
 7    1  0.2641580E-009  0.9693690E+02  0.7561462E-02  0.1286872E+00
          2   -1    0    0  501    0  0.00000000000E+00  0.00000000000E+00  0.23400868280E+03  0.23400868280E+03  0.00000000000E+00 0. -1.
         -2   -1    0    0    0  501 -0.00000000000E+00 -0.00000000000E+00 -0.52368600537E+02  0.52368600537E+02  0.00000000000E+00 0.  1.
         25    2    1    2    0    0  0.13030563631E+02  0.19546857401E+02  0.10460372942E+03  0.16474637850E+03  0.12509018266E+03 0.  0.
          5    1    3    3  502    0 -0.41794764850E+02 -0.97362103933E+01  0.91410013295E+02  0.10106858608E+03  0.41800000000E+01 0. -1.
         -5    1    3    3    0  502  0.54825328481E+02  0.29283067795E+02  0.13193716122E+02  0.63677792421E+02  0.41800000000E+01 0. -1.
        -11    1    1    2    0    0 -0.49522261456E+02 -0.78509617780E+01  0.22451021921E+02  0.54937604297E+02  0.00000000000E+00 0.  1.
         11    1    1    2    0    0  0.36491697825E+02 -0.11695895623E+02  0.54585330925E+02  0.66693300539E+02  0.00000000000E+00 0. -1.
</event>
<event>
 7    1  0.2641580E-009  0.9777317E+02  0.7561462E-02  0.1285050E+00
          1   -1    0    0  501    0  0.00000000000E+00  0.00000000000E+00  0.12349153391E+03  0.12349153391E+03  0.00000000000E+00 0. -1.
         -1   -1    0    0    0  501 -0.00000000000E+00 -0.00000000000E+00 -0.13075843151E+03  0.13075843151E+03  0.00000000000E+00 0.  1.
         25    2    1    2    0    0  0.54296274688E+02 -0.33938253810E+01  0.35093722184E+02  0.14084991820E+03  0.12509007404E+03 0.  0.
          5    1    3    3  502    0  0.39093173188E+02  0.51232703082E+02  0.50457410059E+02  0.81954186500E+02  0.41800000000E+01 0.  1.
         -5    1    3    3    0  502  0.15203101500E+02 -0.54626528463E+02 -0.15363687874E+02  0.58895731698E+02  0.41800000000E+01 0.  1.
        -11    1    1    2    0    0 -0.25713979041E+02  0.26819199788E+02 -0.61447138381E+02  0.71806886930E+02  0.00000000000E+00 0.  1.
         11    1    1    2    0    0 -0.28582295647E+02 -0.23425374407E+02  0.19086518604E+02  0.41593160291E+02  0.00000000000E+00 0. -1.
</event>
<event>
 7    1  0.2641580E-009  0.9197273E+02  0.7561462E-02  0.1298144E+00
          1   -1    0    0  501    0  0.00000000000E+00  0.00000000000E+00  0.16195785465E+03  0.16195785465E+03  0.00000000000E+00 0. -1.
         -1   -1    0    0    0  501 -0.00000000000E+00 -0.00000000000E+00 -0.19831741709E+03  0.19831741709E+03  0.00000000000E+00 0.  1.
         25    2    1    2    0    0  0.40217548644E+02  0.74067456197E+02  0.78293653231E+02  0.16995906563E+03  0.12511094503E+03 0.  0.
          5    1    3    3  502    0  0.10205777191E+01  0.53636719530E+02 -0.23642010366E+02  0.58773772340E+02  0.41800000000E+01 0.  1.
         -5    1    3    3    0  502  0.39196970925E+02  0.20430736667E+02  0.10193566360E+03  0.11118529329E+03  0.41800000000E+01 0.  1.
        -11    1    1    2    0    0 -0.39383505234E+02 -0.60783855411E+02 -0.14227812780E+03  0.15965213188E+03  0.00000000000E+00 0.  1.
         11    1    1    2    0    0 -0.83404340985E+00 -0.13283600786E+02  0.27624912130E+02  0.30664074231E+02  0.00000000000E+00 0. -1.
</event>
<event>
 7    1  0.3461210E-009  0.2127714E+03  0.7561462E-02  0.1139390E+00
          3   -1    0    0  501    0  0.00000000000E+00  0.00000000000E+00  0.13220346898E+04  0.13220346898E+04  0.00000000000E+00 0. -1.
         -3   -1    0    0    0  501 -0.00000000000E+00 -0.00000000000E+00 -0.40384045523E+02  0.40384045523E+02  0.00000000000E+00 0.  1.
         25    2    1    2    0    0 -0.14695771485E+03  0.13828483282E+03  0.74381939756E+03  0.78079118607E+03  0.12509322568E+03 0.  0.
          5    1    3    3  502    0 -0.12191473907E+03  0.12828889690E+03  0.72807659650E+03  0.74928916144E+03  0.41800000000E+01 0. -1.
         -5    1    3    3    0  502 -0.25042975778E+02  0.99959359206E+01  0.15742801059E+02  0.31502024632E+02  0.41800000000E+01 0. -1.
        -11    1    1    2    0    0  0.92446715386E+01 -0.64182476349E+02  0.14676004408E+03  0.16044738939E+03  0.00000000000E+00 0.  1.
         11    1    1    2    0    0  0.13771304331E+03 -0.74102356475E+02  0.39107120260E+03  0.42118015983E+03  0.00000000000E+00 0. -1.
</event>
<event>
 7    1  0.2641580E-009  0.1368864E+03  0.7561462E-02  0.1217581E+00
          1   -1    0    0  501    0  0.00000000000E+00  0.00000000000E+00  0.14584204889E+03  0.14584204889E+03  0.00000000000E+00 0.  1.
         -1   -1    0    0    0  501 -0.00000000000E+00 -0.00000000000E+00 -0.17899770203E+03  0.17899770203E+03  0.00000000000E+00 0. -1.
         25    2    1    2    0    0 -0.92629265657E+02 -0.21477279038E+02  0.55654860976E+02  0.16669458791E+03  0.12509263654E+03 0.  0.
          5    1    3    3  502    0 -0.60957640545E+02  0.42160843761E+02 -0.32139445688E+01  0.74304592907E+02  0.41800000000E+01 0. -1.
         -5    1    3    3    0  502 -0.31671625113E+02 -0.63638122799E+02  0.58868805545E+02  0.92389995005E+02  0.41800000000E+01 0. -1.
        -11    1    1    2    0    0  0.12298963270E+02  0.43362492471E+02 -0.46474581831E+02  0.64741462813E+02  0.00000000000E+00 0. -1.
         11    1    1    2    0    0  0.80330302388E+02 -0.21885213433E+02 -0.42335932286E+02  0.93403700201E+02  0.00000000000E+00 0.  1.
</event>
<event>
 7    1  0.2641580E-009  0.1038063E+03  0.7561462E-02  0.1272489E+00
          2   -1    0    0  501    0  0.00000000000E+00  0.00000000000E+00  0.30880809641E+02  0.30880809641E+02  0.00000000000E+00 0. -1.
         -2   -1    0    0    0  501 -0.00000000000E+00 -0.00000000000E+00 -0.76281895041E+03  0.76281895041E+03  0.00000000000E+00 0.  1.
         25    2    1    2    0    0  0.36380665163E+02 -0.86770024898E+02 -0.53313257592E+03  0.55563377802E+03  0.12508381892E+03 0.  0.
          5    1    3    3  502    0  0.11129427777E+02 -0.32378179544E+02 -0.21851533253E+02  0.40831024708E+02  0.41800000000E+01 0. -1.
         -5    1    3    3    0  502  0.25251237386E+02 -0.54391845354E+02 -0.51128104266E+03  0.51480275331E+03  0.41800000000E+01 0. -1.
        -11    1    1    2    0    0 -0.47988499568E+02  0.89069520051E+02 -0.20190272540E+03  0.22583397888E+03  0.00000000000E+00 0.  1.
         11    1    1    2    0    0  0.11607834405E+02 -0.22994951530E+01  0.30971605505E+01  0.12232003148E+02  0.00000000000E+00 0. -1.
</event>
<event>
 7    1  0.2641580E-009  0.2538374E+03  0.7561462E-02  0.1110903E+00
         -2   -1    0    0    0  501 -0.00000000000E+00  0.00000000000E+00  0.20642209326E+03  0.20642209326E+03  0.00000000000E+00 0.  1.
          2   -1    0    0  501    0  0.00000000000E+00 -0.00000000000E+00 -0.36082544522E+03  0.36082544522E+03  0.00000000000E+00 0. -1.
         25    2    1    2    0    0 -0.13070369472E+03  0.21220975936E+03 -0.58640804126E+02  0.28496014794E+03  0.12508838564E+03 0.  0.
          5    1    3    3  502    0 -0.88923126502E+02  0.86593622453E+02 -0.84233924263E+02  0.15006200143E+03  0.41800000000E+01 0.  1.
         -5    1    3    3    0  502 -0.41780568221E+02  0.12561613691E+03  0.25593120138E+02  0.13489814651E+03  0.41800000000E+01 0.  1.
        -11    1    1    2    0    0  0.61118224127E+02 -0.12764133163E+03 -0.76517601071E+01  0.14172613130E+03  0.00000000000E+00 0.  1.
         11    1    1    2    0    0  0.69585470596E+02 -0.84568427735E+02 -0.88110787720E+02  0.14056125924E+03  0.00000000000E+00 0. -1.
</event>
<event>
 7    1  0.2641580E-009  0.9975613E+02  0.7561462E-02  0.1280810E+00
         -4   -1    0    0    0  501 -0.00000000000E+00  0.00000000000E+00  0.99473852573E+03  0.99473852573E+03  0.00000000000E+00 0.  1.
          4   -1    0    0  501    0  0.00000000000E+00 -0.00000000000E+00 -0.14527854309E+02  0.14527854309E+02  0.00000000000E+00 0. -1.
         25    2    1    2    0    0  0.10393395592E+02  0.35941727400E+02  0.70884907281E+03  0.72077882252E+03  0.12512103150E+03 0.  0.
          5    1    3    3  502    0 -0.33239382030E+02  0.68071797314E+02  0.38560543941E+03  0.39299828678E+03  0.41800000000E+01 0. -1.
         -5    1    3    3    0  502  0.43632777623E+02 -0.32130069914E+02  0.32324363340E+03  0.32778053574E+03  0.41800000000E+01 0. -1.
        -11    1    1    2    0    0  0.73979840704E+01 -0.47504646226E+02  0.26002111939E+03  0.26442844800E+03  0.00000000000E+00 0.  1.
         11    1    1    2    0    0 -0.17791379663E+02  0.11562918826E+02  0.11340479218E+02  0.24059109521E+02  0.00000000000E+00 0. -1.
</event>
<event>
 7    1  0.2641580E-009  0.1045211E+03  0.7561462E-02  0.1271066E+00
         -1   -1    0    0    0  501 -0.00000000000E+00  0.00000000000E+00  0.80901837273E+02  0.80901837273E+02  0.00000000000E+00 0.  1.
          1   -1    0    0  501    0  0.00000000000E+00 -0.00000000000E+00 -0.18301634516E+03  0.18301634516E+03  0.00000000000E+00 0. -1.
         25    2    1    2    0    0  0.20806990405E+00  0.38069258634E+02 -0.14949180822E+02  0.13160572852E+03  0.12508908037E+03 0.  0.
          5    1    3    3  502    0 -0.18614541207E+02  0.70443206883E+02 -0.42930895121E+02  0.84671605017E+02  0.41800000000E+01 0.  1.
         -5    1    3    3    0  502  0.18822611111E+02 -0.32373948248E+02  0.27981714298E+02  0.46934123506E+02  0.41800000000E+01 0.  1.
        -11    1    1    2    0    0 -0.24703440222E+02  0.22269307318E+02 -0.20245150530E+02  0.38936462695E+02  0.00000000000E+00 0.  1.
         11    1    1    2    0    0  0.24495370318E+02 -0.60338565952E+02 -0.66920176539E+02  0.93375991219E+02  0.00000000000E+00 0. -1.
</event>
<event>
 7    1  0.2641580E-009  0.1662093E+03  0.7561462E-02  0.1181860E+00
          1   -1    0    0  501    0  0.00000000000E+00  0.00000000000E+00  0.12035928990E+03  0.12035928990E+03  0.00000000000E+00 0. -1.
         -1   -1    0    0    0  501 -0.00000000000E+00 -0.00000000000E+00 -0.24772940026E+03  0.24772940026E+03  0.00000000000E+00 0.  1.
         25    2    1    2    0    0  0.93264143583E+02  0.96745055954E+02 -0.67340788711E+02  0.19555104721E+03  0.12509046291E+03 0.  0.
          5    1    3    3  502    0  0.11914853996E+03  0.48690521344E+02 -0.49659086894E+02  0.13802405136E+03  0.41800000000E+01 0.  1.
         -5    1    3    3    0  502 -0.25884396377E+02  0.48054534610E+02 -0.17681701817E+02  0.57526995850E+02  0.41800000000E+01 0.  1.
        -11    1    1    2    0    0 -0.42149294905E+02 -0.87261623017E+02 -0.52999878922E+01  0.97052788647E+02  0.00000000000E+00 0. -1.
         11    1    1    2    0    0 -0.51114848678E+02 -0.94834329368E+01 -0.54729333760E+02  0.75484854305E+02  0.00000000000E+00 0.  1.
</event>
<event>
 7    1  0.2641580E-009  0.1309380E+03  0.7561462E-02  0.1226070E+00
          2   -1    0    0  501    0  0.00000000000E+00  0.00000000000E+00  0.67654953110E+03  0.67654953110E+03  0.00000000000E+00 0. -1.
         -2   -1    0    0    0  501 -0.00000000000E+00 -0.00000000000E+00 -0.30600083332E+02  0.30600083332E+02  0.00000000000E+00 0.  1.
         25    2    1    2    0    0 -0.76354528615E+02  0.99918459410E+01  0.34908664015E+03  0.37873033691E+03  0.12508131252E+03 0.  0.
          5    1    3    3  502    0  0.16760377273E+02 -0.26728456082E+02  0.28035932603E+02  0.42412339334E+02  0.41800000000E+01 0. -1.
         -5    1    3    3    0  502 -0.93114905888E+02  0.36720302023E+02  0.32105070754E+03  0.33631799758E+03  0.41800000000E+01 0. -1.
        -11    1    1    2    0    0  0.78035515152E+02  0.34518041444E+02  0.12839930061E+03  0.15416684860E+03  0.00000000000E+00 0.  1.
         11    1    1    2    0    0 -0.16809865371E+01 -0.44509887385E+02  0.16846350700E+03  0.17425242892E+03  0.00000000000E+00 0. -1.
</event>
<event>
 7    1  0.2641580E-009  0.1636317E+03  0.7561462E-02  0.1184656E+00
          2   -1    0    0  501    0  0.00000000000E+00  0.00000000000E+00  0.29880683468E+03  0.29880683468E+03  0.00000000000E+00 0. -1.
         -2   -1    0    0    0  501 -0.00000000000E+00 -0.00000000000E+00 -0.13374210139E+03  0.13374210139E+03  0.00000000000E+00 0.  1.
         25    2    1    2    0    0 -0.78657711767E+02 -0.11898455426E+03  0.18176609699E+03  0.26271518156E+03  0.12504396360E+03 0.  0.
          5    1    3    3  502    0 -0.36251359691E+02 -0.13211846221E+03  0.16633064120E+03  0.21552912503E+03  0.41800000000E+01 0.  1.
         -5    1    3    3    0  502 -0.42406352076E+02  0.13133907955E+02  0.15435455795E+02  0.47186056522E+02  0.41800000000E+01 0.  1.
        -11    1    1    2    0    0  0.36300860324E+02  0.80801952266E+02  0.32660505939E+02  0.94410892372E+02  0.00000000000E+00 0.  1.
         11    1    1    2    0    0  0.42356851442E+02  0.38182601993E+02 -0.49361869644E+02  0.75422862143E+02  0.00000000000E+00 0. -1.
</event>
<event>
 7    1  0.2641580E-009  0.1088703E+03  0.7561462E-02  0.1262676E+00
          2   -1    0    0  501    0  0.00000000000E+00  0.00000000000E+00  0.14068316397E+04  0.14068316397E+04  0.00000000000E+00 0. -1.
         -2   -1    0    0    0  501 -0.00000000000E+00 -0.00000000000E+00 -0.10056522882E+02  0.10056522882E+02  0.00000000000E+00 0.  1.
         25    2    1    2    0    0 -0.16002819052E+02 -0.21508612375E+01  0.10583043892E+04  0.10657937682E+04  0.12508980653E+03 0.  0.
          5    1    3    3  502    0 -0.16246172129E+02  0.59924428869E+02  0.61596781808E+03  0.61910314213E+03  0.41800000000E+01 0.  1.
         -5    1    3    3    0  502  0.24335307757E+00 -0.62075290107E+02  0.44233657110E+03  0.44669062604E+03  0.41800000000E+01 0.  1.
        -11    1    1    2    0    0 -0.33063987687E+02 -0.20867571409E+02  0.14336454121E+03  0.14860038525E+03  0.00000000000E+00 0.  1.
         11    1    1    2    0    0  0.49066806739E+02  0.23018432647E+02  0.19510618642E+03  0.20249400916E+03  0.00000000000E+00 0. -1.
</event>
<event>
 7    1  0.2641580E-009  0.3409732E+03  0.7561462E-02  0.1066382E+00
         -1   -1    0    0    0  501 -0.00000000000E+00  0.00000000000E+00  0.49388880650E+03  0.49388880650E+03  0.00000000000E+00 0.  1.
          1   -1    0    0  501    0  0.00000000000E+00 -0.00000000000E+00 -0.25697291790E+03  0.25697291790E+03  0.00000000000E+00 0. -1.
         25    2    1    2    0    0  0.33054255415E+03  0.34698447831E+02  0.51243220855E+02  0.35879211281E+03  0.12507417857E+03 0.  0.
          5    1    3    3  502    0  0.12455779365E+03 -0.26563294203E+02 -0.26625898961E+02  0.13017935111E+03  0.41800000000E+01 0.  1.
         -5    1    3    3    0  502  0.20598476050E+03  0.61261742033E+02  0.77869119815E+02  0.22861276171E+03  0.41800000000E+01 0.  1.
        -11    1    1    2    0    0 -0.28502977121E+03 -0.47030496830E+01  0.18029085949E+03  0.33729643219E+03  0.00000000000E+00 0.  1.
         11    1    1    2    0    0 -0.45512782943E+02 -0.29995398148E+02  0.53818082535E+01  0.54773179398E+02  0.00000000000E+00 0. -1.
</event>
<event>
 7    1  0.2641580E-009  0.8955942E+02  0.7561462E-02  0.1303922E+00
          3   -1    0    0  501    0  0.00000000000E+00  0.00000000000E+00  0.16132001112E+03  0.16132001112E+03  0.00000000000E+00 0. -1.
         -3   -1    0    0    0  501 -0.00000000000E+00 -0.00000000000E+00 -0.95601910770E+02  0.95601910770E+02  0.00000000000E+00 0.  1.
         25    2    1    2    0    0 -0.42626549787E+01  0.29672010918E+02 -0.18479323295E+02  0.12995184081E+03  0.12508955624E+03 0.  0.
          5    1    3    3  502    0  0.40792917660E+02  0.13765450827E+02 -0.54780928973E+02  0.69799515377E+02  0.41800000000E+01 0.  1.
         -5    1    3    3    0  502 -0.45055572639E+02  0.15906560091E+02  0.36301605678E+02  0.60152325430E+02  0.41800000000E+01 0.  1.
        -11    1    1    2    0    0 -0.28784617479E+01 -0.58312097677E+02  0.30927060770E+02  0.66068671588E+02  0.00000000000E+00 0.  1.
         11    1    1    2    0    0  0.71411167266E+01  0.28640086759E+02  0.53270362871E+02  0.60901409492E+02  0.00000000000E+00 0. -1.
</event>
<event>
 7    1  0.2641580E-009  0.1195914E+03  0.7561462E-02  0.1243773E+00
          1   -1    0    0  501    0  0.00000000000E+00  0.00000000000E+00  0.32953134658E+03  0.32953134658E+03  0.00000000000E+00 0. -1.
         -1   -1    0    0    0  501 -0.00000000000E+00 -0.00000000000E+00 -0.63635495251E+02  0.63635495251E+02  0.00000000000E+00 0.  1.
         25    2    1    2    0    0  0.88091816358E+02  0.10032396082E+02  0.19370397968E+03  0.24704190715E+03  0.12509058743E+03 0.  0.
          5    1    3    3  502    0  0.67465406099E+02 -0.47769683775E+02  0.15087003828E+03  0.17208359759E+03  0.41800000000E+01 0. -1.
         -5    1    3    3    0  502  0.20626410259E+02  0.57802079857E+02  0.42833941397E+02  0.74958309557E+02  0.41800000000E+01 0. -1.
        -11    1    1    2    0    0 -0.54222098306E+02  0.10586122595E+02 -0.88049461314E+01  0.55943087264E+02  0.00000000000E+00 0.  1.
         11    1    1    2    0    0 -0.33869718053E+02 -0.20618518677E+02  0.80996817784E+02  0.90181847422E+02  0.00000000000E+00 0. -1.
</event>
<event>
 7    1  0.2641580E-009  0.2243917E+03  0.7561462E-02  0.1130651E+00
          2   -1    0    0  501    0  0.00000000000E+00  0.00000000000E+00  0.22615558298E+04  0.22615558298E+04  0.00000000000E+00 0. -1.
         -2   -1    0    0    0  501 -0.00000000000E+00 -0.00000000000E+00 -0.30917140286E+02  0.30917140286E+02  0.00000000000E+00 0.  1.
         25    2    1    2    0    0 -0.17238337370E+03  0.11872539109E+03  0.16611466191E+04  0.16789478517E+04  0.12508418275E+03 0.  0.
          5    1    3    3  502    0  0.68613389478E+01 -0.96193272609E+01  0.24546945360E+02  0.27561465049E+02  0.41800000000E+01 0.  1.
         -5    1    3    3    0  502 -0.17924471264E+03  0.12834471835E+03  0.16365996737E+04  0.16513863867E+04  0.41800000000E+01 0.  1.
        -11    1    1    2    0    0  0.18292392059E+01 -0.17142999927E+02  0.10162844937E+02  0.20012795402E+02  0.00000000000E+00 0.  1.
         11    1    1    2    0    0  0.17055413449E+03 -0.10158239116E+03  0.55932922546E+03  0.59351232290E+03  0.00000000000E+00 0. -1.
</event>
<event>
 7    1  0.2641580E-009  0.8768849E+02  0.7561462E-02  0.1308548E+00
         -1   -1    0    0    0  501 -0.00000000000E+00  0.00000000000E+00  0.74883890738E+03  0.74883890738E+03  0.00000000000E+00 0.  1.
          1   -1    0    0  501    0  0.00000000000E+00 -0.00000000000E+00 -0.17648350781E+02  0.17648350781E+02  0.00000000000E+00 0. -1.
         25    2    1    2    0    0  0.21567972497E+02  0.14190112928E+02  0.32036316876E+03  0.34488731485E+03  0.12509261891E+03 0.  0.
          5    1    3    3  502    0 -0.28766247973E+02  0.21377124819E+01  0.27316803518E+03  0.27471861000E+03  0.41800000000E+01 0.  1.
         -5    1    3    3    0  502  0.50334220470E+02  0.12052400446E+02  0.47195133577E+02  0.70168704849E+02  0.41800000000E+01 0.  1.
        -11    1    1    2    0    0 -0.57348072520E+02 -0.10886617228E+02  0.27249591822E+03  0.27867785219E+03  0.00000000000E+00 0.  1.
         11    1    1    2    0    0  0.35780100024E+02 -0.33034956999E+01  0.13833146962E+03  0.14292209112E+03  0.00000000000E+00 0. -1.
</event>
<event>
 7    1  0.2641580E-009  0.2208060E+03  0.7561462E-02  0.1133284E+00
          2   -1    0    0  501    0  0.00000000000E+00  0.00000000000E+00  0.25044591906E+03  0.25044591906E+03  0.00000000000E+00 0. -1.
         -2   -1    0    0    0  501 -0.00000000000E+00 -0.00000000000E+00 -0.22428212676E+03  0.22428212676E+03  0.00000000000E+00 0.  1.
         25    2    1    2    0    0  0.20691939318E+03  0.99296106012E+01 -0.17092974358E+02  0.24259886660E+03  0.12509119818E+03 0.  0.
          5    1    3    3  502    0 -0.90385896184E+00  0.93605635941E+01  0.28057875544E+02  0.29885680381E+02  0.41800000000E+01 0. -1.
         -5    1    3    3    0  502  0.20782325214E+03  0.56904700715E+00 -0.45150849902E+02  0.21271318622E+03  0.41800000000E+01 0.  1.
        -11    1    1    2    0    0 -0.90760602965E+02 -0.46096358898E+02 -0.33438019082E+01  0.10185058844E+03  0.00000000000E+00 0.  1.
         11    1    1    2    0    0 -0.11615879021E+03  0.36166748297E+02  0.46600568571E+02  0.13027859078E+03  0.00000000000E+00 0. -1.
</event>
<event>
 7    1  0.2641580E-009  0.9066471E+02  0.7561462E-02  0.1301250E+00
         -4   -1    0    0    0  501 -0.00000000000E+00  0.00000000000E+00  0.21485546361E+03  0.21485546361E+03  0.00000000000E+00 0.  1.
          4   -1    0    0  501    0  0.00000000000E+00 -0.00000000000E+00 -0.74276641655E+02  0.74276641655E+02  0.00000000000E+00 0. -1.
         25    2    1    2    0    0  0.44971733071E+02  0.45272167186E+02  0.83207800938E+02  0.16322728082E+03  0.12509029206E+03 0.  0.
          5    1    3    3  502    0  0.99925532458E+01  0.35118447408E+02  0.11119030598E+03  0.11710641747E+03  0.41800000000E+01 0. -1.
         -5    1    3    3    0  502  0.34979179825E+02  0.10153719778E+02 -0.27982505046E+02  0.46120863340E+02  0.41800000000E+01 0. -1.
        -11    1    1    2    0    0  0.25560305887E+02 -0.31241359152E+01  0.10307527577E+00  0.25750729830E+02  0.00000000000E+00 0.  1.
         11    1    1    2    0    0 -0.70532038959E+02 -0.42148031271E+02  0.57267945741E+02  0.10015409462E+03  0.00000000000E+00 0. -1.
</event>
<event>
 7    1  0.2641580E-009  0.6149634E+02  0.7561462E-02  0.1391657E+00
         -1   -1    0    0    0  501 -0.00000000000E+00  0.00000000000E+00  0.41358025907E+03  0.41358025907E+03  0.00000000000E+00 0.  1.
          1   -1    0    0  501    0  0.00000000000E+00 -0.00000000000E+00 -0.35071932085E+02  0.35071932085E+02  0.00000000000E+00 0. -1.
         25    2    1    2    0    0  0.42292107803E+02 -0.18972727045E+02  0.27369390854E+03  0.30447301642E+03  0.12508747100E+03 0.  0.
          5    1    3    3  502    0  0.13568058480E+02 -0.22577747011E+02 -0.24513650825E+01  0.26782988291E+02  0.41800000000E+01 0.  1.
         -5    1    3    3    0  502  0.28724049322E+02  0.36050199656E+01  0.27614527362E+03  0.27769002813E+03  0.41800000000E+01 0.  1.
        -11    1    1    2    0    0  0.61424627163E+01  0.17575323249E+02 -0.88525432849E+01  0.20615270023E+02  0.00000000000E+00 0. -1.
         11    1    1    2    0    0 -0.48434570519E+02  0.13974037966E+01  0.11366696173E+03  0.12356390471E+03  0.00000000000E+00 0.  1.
</event>
<event>
 7    1  0.2641580E-009  0.1370492E+03  0.7561462E-02  0.1217356E+00
         -2   -1    0    0    0  501 -0.00000000000E+00  0.00000000000E+00  0.73639158137E+02  0.73639158137E+02  0.00000000000E+00 0. -1.
          2   -1    0    0  501    0  0.00000000000E+00 -0.00000000000E+00 -0.36654480496E+03  0.36654480496E+03  0.00000000000E+00 0.  1.
         25    2    1    2    0    0 -0.78294777626E+02  0.31490491956E+02 -0.27568501728E+03  0.31427789681E+03  0.12508654757E+03 0.  0.
          5    1    3    3  502    0 -0.11198209986E+03  0.17646109557E+02 -0.19378518598E+03  0.22454742612E+03  0.41800000000E+01 0. -1.
         -5    1    3    3    0  502  0.33687322235E+02  0.13844382399E+02 -0.81899831296E+02  0.89730470687E+02  0.41800000000E+01 0. -1.
        -11    1    1    2    0    0  0.35513839031E+02  0.31755661119E+02 -0.13238224560E+02  0.49445984320E+02  0.00000000000E+00 0.  1.
         11    1    1    2    0    0  0.42780938595E+02 -0.63246153075E+02 -0.39824049892E+01  0.76460081973E+02  0.00000000000E+00 0. -1.
</event>
<event>
 7    1  0.2643340E-009  0.8271504E+02  0.7561462E-02  0.1321518E+00
          1   -1    0    0  501    0  0.00000000000E+00  0.00000000000E+00  0.53102091040E+03  0.53102091040E+03  0.00000000000E+00 0. -1.
         -1   -1    0    0    0  501 -0.00000000000E+00 -0.00000000000E+00 -0.32809992276E+02  0.32809992276E+02  0.00000000000E+00 0.  1.
         25    2    1    2    0    0 -0.46506579685E+02 -0.45566079388E+02  0.35780238910E+03  0.38458919395E+03  0.12508864422E+03 0.  0.
          5    1    3    3  502    0 -0.40588287684E+01 -0.41996300565E+02  0.33182072242E+03  0.33451850110E+03  0.41800000000E+01 0.  1.
         -5    1    3    3    0  502 -0.42447750916E+02 -0.35697788229E+01  0.25981666680E+02  0.50070692847E+02  0.41800000000E+01 0.  1.
        -11    1    1    2    0    0  0.27071081806E+02 -0.36487478753E+01 -0.19322170073E+01  0.27384124849E+02  0.00000000000E+00 0.  1.
         11    1    1    2    0    0  0.19435497878E+02  0.49214827264E+02  0.14234074603E+03  0.15185758387E+03  0.00000000000E+00 0. -1.
</event>
<event>
 7    1  0.2641580E-009  0.1211052E+03  0.7561462E-02  0.1241285E+00
         -2   -1    0    0    0  501 -0.00000000000E+00  0.00000000000E+00  0.23594092735E+03  0.23594092735E+03  0.00000000000E+00 0.  1.
          2   -1    0    0  501    0  0.00000000000E+00 -0.00000000000E+00 -0.65195166692E+02  0.65195166692E+02  0.00000000000E+00 0. -1.
         25    2    1    2    0    0  0.16561461193E+02  0.57294963265E+02  0.10679776318E+03  0.17495854112E+03  0.12509090325E+03 0.  0.
          5    1    3    3  502    0  0.40138638893E+02  0.89554503824E+02  0.71704756843E+02  0.12161481835E+03  0.41800000000E+01 0. -1.
         -5    1    3    3    0  502 -0.23577177700E+02 -0.32259540559E+02  0.35093006336E+02  0.53343722771E+02  0.41800000000E+01 0. -1.
        -11    1    1    2    0    0 -0.51308696765E+02 -0.39610834611E+02  0.20918035255E+02  0.68111414471E+02  0.00000000000E+00 0.  1.
         11    1    1    2    0    0  0.34747235572E+02 -0.17684128655E+02  0.43029962226E+02  0.58066138457E+02  0.00000000000E+00 0. -1.
</event>
<event>
 7    1  0.2641580E-009  0.9237091E+02  0.7561462E-02  0.1297210E+00
         -1   -1    0    0    0  501 -0.00000000000E+00  0.00000000000E+00  0.61547216663E+02  0.61547216663E+02  0.00000000000E+00 0.  1.
          1   -1    0    0  501    0  0.00000000000E+00 -0.00000000000E+00 -0.23608249834E+03  0.23608249834E+03  0.00000000000E+00 0. -1.
         25    2    1    2    0    0 -0.32676853328E+02  0.33887120293E+02 -0.11587069292E+03  0.17689077099E+03  0.12509282041E+03 0.  0.
          5    1    3    3  502    0 -0.14705285548E+02  0.68447460221E+02 -0.19398832187E+02  0.72767350673E+02  0.41800000000E+01 0.  1.
         -5    1    3    3    0  502 -0.17971567781E+02 -0.34560339928E+02 -0.96471860735E+02  0.10412342032E+03  0.41800000000E+01 0.  1.
        -11    1    1    2    0    0  0.38266341599E+02  0.27541516459E+01 -0.71806470819E+02  0.81412944315E+02  0.00000000000E+00 0. -1.
         11    1    1    2    0    0 -0.55894882701E+01 -0.36641271939E+02  0.13141882061E+02  0.39325999702E+02  0.00000000000E+00 0.  1.
</event>
<event>
 7    1  0.2641580E-009  0.1158694E+03  0.7561462E-02  0.1250071E+00
         -2   -1    0    0    0  501 -0.00000000000E+00  0.00000000000E+00  0.74328695217E+03  0.74328695217E+03  0.00000000000E+00 0.  1.
          2   -1    0    0  501    0  0.00000000000E+00 -0.00000000000E+00 -0.27042321589E+02  0.27042321589E+02  0.00000000000E+00 0. -1.
         25    2    1    2    0    0  0.80541007750E+01  0.65752565949E+02  0.59738353770E+03  0.61392417818E+03  0.12509011542E+03 0.  0.
          5    1    3    3  502    0  0.60592188094E+02  0.18814303068E+02  0.38246682811E+03  0.38771605365E+03  0.41800000000E+01 0. -1.
         -5    1    3    3    0  502 -0.52538087319E+02  0.46938262881E+02  0.21491670959E+03  0.22620812453E+03  0.41800000000E+01 0. -1.
        -11    1    1    2    0    0  0.23619243441E+02 -0.61176091417E+02  0.98972035725E+02  0.11872593094E+03  0.00000000000E+00 0.  1.
         11    1    1    2    0    0 -0.31673344216E+02 -0.45764745325E+01  0.19889057152E+02  0.37679164632E+02  0.00000000000E+00 0. -1.
</event>
<event>
 7    1  0.2641580E-009  0.8031259E+02  0.7561462E-02  0.1328167E+00
          2   -1    0    0  501    0  0.00000000000E+00  0.00000000000E+00  0.10834898772E+03  0.10834898772E+03  0.00000000000E+00 0. -1.
         -2   -1    0    0    0  501 -0.00000000000E+00 -0.00000000000E+00 -0.11605210922E+03  0.11605210922E+03  0.00000000000E+00 0.  1.
         25    2    1    2    0    0  0.12635571452E+02  0.11354889527E+02 -0.28794401348E+02  0.12947940469E+03  0.12508879849E+03 0.  0.
          5    1    3    3  502    0  0.19448918365E+02 -0.25218054177E+02 -0.68040981618E+02  0.75241333465E+02  0.41800000000E+01 0.  1.
         -5    1    3    3    0  502 -0.68133469130E+01  0.36572943703E+02  0.39246580270E+02  0.54238071225E+02  0.41800000000E+01 0.  1.
        -11    1    1    2    0    0  0.10240529216E+02  0.36563361694E+02  0.50997823990E+00  0.37973779570E+02  0.00000000000E+00 0.  1.
         11    1    1    2    0    0 -0.22876100668E+02 -0.47918251221E+02  0.20581301607E+02  0.56947912672E+02  0.00000000000E+00 0. -1.
</event>
<event>
 7    1  0.2641580E-009  0.9212936E+02  0.7561462E-02  0.1297776E+00
          4   -1    0    0  501    0  0.00000000000E+00  0.00000000000E+00  0.42040069227E+03  0.42040069227E+03  0.00000000000E+00 0. -1.
         -4   -1    0    0    0  501 -0.00000000000E+00 -0.00000000000E+00 -0.37969666314E+02  0.37969666314E+02  0.00000000000E+00 0.  1.
         25    2    1    2    0    0  0.42234256769E+02  0.14255203871E+02  0.30180078860E+03  0.32972429248E+03  0.12508976684E+03 0.  0.
          5    1    3    3  502    0 -0.26691825650E+02  0.25573757811E+02  0.26512819602E+02  0.45682301260E+02  0.41800000000E+01 0.  1.
         -5    1    3    3    0  502  0.68926082419E+02 -0.11318553940E+02  0.27528796900E+03  0.28404199122E+03  0.41800000000E+01 0.  1.
        -11    1    1    2    0    0 -0.30144107859E+02 -0.39148475079E+02  0.87179734510E+02  0.10020766662E+03  0.00000000000E+00 0. -1.
         11    1    1    2    0    0 -0.12090148910E+02  0.24893271208E+02 -0.65494971591E+01  0.28438399482E+02  0.00000000000E+00 0.  1.
</event>
<event>
 7    1  0.2641580E-009  0.1929079E+03  0.7561462E-02  0.1155864E+00
          2   -1    0    0  501    0  0.00000000000E+00  0.00000000000E+00  0.39405534620E+03  0.39405534620E+03  0.00000000000E+00 0. -1.
         -2   -1    0    0    0  501 -0.00000000000E+00 -0.00000000000E+00 -0.11488460986E+03  0.11488460986E+03  0.00000000000E+00 0.  1.
         25    2    1    2    0    0 -0.88395194532E+02 -0.15721422837E+03  0.17917504549E+03  0.28334053422E+03  0.12509251532E+03 0.  0.
          5    1    3    3  502    0 -0.83095593748E+02 -0.69247962017E+02  0.34003749876E+02  0.11346314534E+03  0.41800000000E+01 0.  1.
         -5    1    3    3    0  502 -0.52996007836E+01 -0.87966266350E+02  0.14517129562E+03  0.16987738889E+03  0.41800000000E+01 0.  1.
        -11    1    1    2    0    0  0.66672360624E+02  0.59882199054E+02  0.80876698849E+01  0.89980508105E+02  0.00000000000E+00 0.  1.
         11    1    1    2    0    0  0.21722833908E+02  0.97332029314E+02  0.91908020970E+02  0.13561891373E+03  0.00000000000E+00 0. -1.
</event>
<event>
 7    1  0.2641580E-009  0.7983203E+02  0.7561462E-02  0.1329529E+00
         -3   -1    0    0    0  501 -0.00000000000E+00  0.00000000000E+00  0.18441283108E+03  0.18441283108E+03  0.00000000000E+00 0.  1.
          3   -1    0    0  501    0  0.00000000000E+00 -0.00000000000E+00 -0.64783854626E+02  0.64783854626E+02  0.00000000000E+00 0. -1.
         25    2    1    2    0    0 -0.19994154339E+02  0.83288561798E-01  0.75801076511E+02  0.14761753320E+03  0.12508141254E+03 0.  0.
          5    1    3    3  502    0 -0.73058107475E+02 -0.21520322654E+01  0.47793218873E+02  0.87428728007E+02  0.41800000000E+01 0.  1.
         -5    1    3    3    0  502  0.53063953135E+02  0.22353208272E+01  0.28007857637E+02  0.60188805196E+02  0.41800000000E+01 0.  1.
        -11    1    1    2    0    0  0.11706055091E+01 -0.11238229670E+02  0.68024521583E+02  0.68956534571E+02  0.00000000000E+00 0.  1.
         11    1    1    2    0    0  0.18823548830E+02  0.11154941108E+02 -0.24196621642E+02  0.32622617929E+02  0.00000000000E+00 0. -1.
</event>
<event>
 7    1  0.2641580E-009  0.9809333E+02  0.7561462E-02  0.1284357E+00
         -2   -1    0    0    0  501 -0.00000000000E+00  0.00000000000E+00  0.20296751963E+02  0.20296751963E+02  0.00000000000E+00 0.  1.
          2   -1    0    0  501    0  0.00000000000E+00 -0.00000000000E+00 -0.72274414609E+03  0.72274414609E+03  0.00000000000E+00 0. -1.
         25    2    1    2    0    0  0.23421243062E+02  0.48305009504E+02 -0.37530031976E+03  0.39922347608E+03  0.12508846980E+03 0.  0.
          5    1    3    3  502    0 -0.31778931760E+02  0.72619492678E+01 -0.22677068741E+02  0.39929415944E+02  0.41800000000E+01 0. -1.
         -5    1    3    3    0  502  0.55200174822E+02  0.41043060236E+02 -0.35262325101E+03  0.35929406014E+03  0.41800000000E+01 0. -1.
        -11    1    1    2    0    0  0.19088429217E+02 -0.48260602366E+02 -0.25371358218E+03  0.25896724823E+03  0.00000000000E+00 0. -1.
         11    1    1    2    0    0 -0.42509672279E+02 -0.44407138123E-01 -0.73433492192E+02  0.84850173746E+02  0.00000000000E+00 0.  1.
</event>
<event>
 7    1  0.2641580E-009  0.1114895E+03  0.7561462E-02  0.1257836E+00
          2   -1    0    0  501    0  0.00000000000E+00  0.00000000000E+00  0.61720565038E+02  0.61720565038E+02  0.00000000000E+00 0. -1.
         -2   -1    0    0    0  501 -0.00000000000E+00 -0.00000000000E+00 -0.20931865797E+03  0.20931865797E+03  0.00000000000E+00 0.  1.
         25    2    1    2    0    0 -0.20242244393E+02 -0.27163204110E+02 -0.95964071438E+02  0.16128345781E+03  0.12512259045E+03 0.  0.
          5    1    3    3  502    0  0.48247726585E+02  0.82496997488E+01 -0.55457290510E+02  0.74087003835E+02  0.41800000000E+01 0.  1.
         -5    1    3    3    0  502 -0.68489970978E+02 -0.35412903859E+02 -0.40506780928E+02  0.87196453973E+02  0.41800000000E+01 0.  1.
        -11    1    1    2    0    0  0.56126551995E+02  0.22424245760E+02 -0.35807548733E+02  0.70251100938E+02  0.00000000000E+00 0.  1.
         11    1    1    2    0    0 -0.35884307601E+02  0.47389583506E+01 -0.15826472758E+02  0.39504664259E+02  0.00000000000E+00 0. -1.
</event>
<event>
 7    1  0.2641580E-009  0.1006223E+03  0.7561462E-02  0.1278993E+00
         -2   -1    0    0    0  501 -0.00000000000E+00  0.00000000000E+00  0.56723483633E+02  0.56723483633E+02  0.00000000000E+00 0.  1.
          2   -1    0    0  501    0  0.00000000000E+00 -0.00000000000E+00 -0.29113156183E+03  0.29113156183E+03  0.00000000000E+00 0. -1.
         25    2    1    2    0    0  0.59726505881E+02 -0.32364757667E+02 -0.15491243889E+03  0.21038093813E+03  0.12509013695E+03 0.  0.
          5    1    3    3  502    0 -0.13592946670E+02 -0.28803533175E+02  0.67137846596E+01  0.32817053905E+02  0.41800000000E+01 0.  1.
         -5    1    3    3    0  502  0.73319452551E+02 -0.35612244918E+01 -0.16162622355E+03  0.17756388423E+03  0.41800000000E+01 0.  1.
        -11    1    1    2    0    0 -0.12304552111E+02 -0.20917245731E+02  0.70988334186E+01  0.25284908692E+02  0.00000000000E+00 0.  1.
         11    1    1    2    0    0 -0.47421953770E+02  0.53282003398E+02 -0.86594472726E+02  0.11218919864E+03  0.00000000000E+00 0. -1.
</event>
<event>
 7    1  0.2641580E-009  0.1100694E+03  0.7561462E-02  0.1260441E+00
          3   -1    0    0  501    0  0.00000000000E+00  0.00000000000E+00  0.32009250480E+02  0.32009250480E+02  0.00000000000E+00 0. -1.
         -3   -1    0    0    0  501 -0.00000000000E+00 -0.00000000000E+00 -0.58786171746E+03  0.58786171746E+03  0.00000000000E+00 0.  1.
         25    2    1    2    0    0  0.51473408676E+02 -0.47759589681E+02 -0.20006065546E+03  0.24617491558E+03  0.12508930008E+03 0.  0.
          5    1    3    3  502    0  0.84827854189E+02 -0.31628569225E+02 -0.81482313551E+02  0.12187276586E+03  0.41800000000E+01 0. -1.
         -5    1    3    3    0  502 -0.33354445513E+02 -0.16131020456E+02 -0.11857834190E+03  0.12430214972E+03  0.41800000000E+01 0. -1.
        -11    1    1    2    0    0  0.78329267896E+01  0.28973963734E+02 -0.31572287593E+02  0.43562078238E+02  0.00000000000E+00 0. -1.
         11    1    1    2    0    0 -0.59306335465E+02  0.18785625947E+02 -0.32421952394E+03  0.33013397412E+03  0.00000000000E+00 0.  1.
</event>
<event>
 7    1  0.2641580E-009  0.8829617E+02  0.7561462E-02  0.1307031E+00
          2   -1    0    0  501    0  0.00000000000E+00  0.00000000000E+00  0.45905160370E+03  0.45905160370E+03  0.00000000000E+00 0. -1.
         -2   -1    0    0    0  501 -0.00000000000E+00 -0.00000000000E+00 -0.23651883981E+02  0.23651883981E+02  0.00000000000E+00 0.  1.
         25    2    1    2    0    0 -0.54468135199E+01  0.24845582807E+02  0.34744012304E+03  0.37014764496E+03  0.12509064399E+03 0.  0.
          5    1    3    3  502    0  0.36478069800E+01  0.75648262217E+02  0.20967016119E+03  0.22296864122E+03  0.41800000000E+01 0. -1.
         -5    1    3    3    0  502 -0.90946204999E+01 -0.50802679409E+02  0.13776996184E+03  0.14717900375E+03  0.41800000000E+01 0. -1.
        -11    1    1    2    0    0  0.16458424401E+02  0.49578664274E+01 -0.18532717524E+01  0.17288573957E+02  0.00000000000E+00 0.  1.
         11    1    1    2    0    0 -0.11011610881E+02 -0.29803449235E+02  0.89812868437E+02  0.95267268762E+02  0.00000000000E+00 0. -1.
</event>
<event>
 7    1  0.2641580E-009  0.3473312E+03  0.7561462E-02  0.1063716E+00
          3   -1    0    0  501    0  0.00000000000E+00  0.00000000000E+00  0.87983275291E+02  0.87983275291E+02  0.00000000000E+00 0. -1.
         -3   -1    0    0    0  501 -0.00000000000E+00 -0.00000000000E+00 -0.14547805973E+04  0.14547805973E+04  0.00000000000E+00 0.  1.
         25    2    1    2    0    0 -0.24433028323E+03 -0.23787515561E+03 -0.65122447173E+03  0.74566925741E+03  0.12508977538E+03 0.  0.
          5    1    3    3  502    0 -0.10798858205E+02 -0.56086082548E+02 -0.18290707205E+03  0.19166307261E+03  0.41800000000E+01 0. -1.
         -5    1    3    3    0  502 -0.23353142503E+03 -0.18178907306E+03 -0.46831739967E+03  0.55400618480E+03  0.41800000000E+01 0. -1.
        -11    1    1    2    0    0  0.37746275402E+02  0.28626797658E+02 -0.17980079581E+03  0.18593708889E+03  0.00000000000E+00 0. -1.
         11    1    1    2    0    0  0.20658400783E+03  0.20924835795E+03 -0.53577205450E+03  0.61115752632E+03  0.00000000000E+00 0.  1.
</event>
<event>
 7    1  0.2641580E-009  0.1349308E+03  0.7561462E-02  0.1220317E+00
         -1   -1    0    0    0  501 -0.00000000000E+00  0.00000000000E+00  0.95142656984E+02  0.95142656984E+02  0.00000000000E+00 0.  1.
          1   -1    0    0  501    0  0.00000000000E+00 -0.00000000000E+00 -0.34814790283E+03  0.34814790283E+03  0.00000000000E+00 0. -1.
         25    2    1    2    0    0 -0.23976966438E+02 -0.10614341358E+03 -0.16616809509E+02  0.16663228714E+03  0.12509548990E+03 0.  0.
          5    1    3    3  502    0 -0.66741612722E+02 -0.80791706200E+02  0.17314983883E+02  0.10629686602E+03  0.41800000000E+01 0.  1.
         -5    1    3    3    0  502  0.42764646284E+02 -0.25351707376E+02 -0.33931793392E+02  0.60335421118E+02  0.41800000000E+01 0.  1.
        -11    1    1    2    0    0 -0.43364772200E+00  0.77328783736E+02 -0.22390709083E+03  0.23688460095E+03  0.00000000000E+00 0. -1.
         11    1    1    2    0    0  0.24410614160E+02  0.28814629841E+02 -0.12481345507E+02  0.39773671721E+02  0.00000000000E+00 0.  1.
</event>
<event>
 7    1  0.2641580E-009  0.1428094E+03  0.7561462E-02  0.1209598E+00
         -4   -1    0    0    0  501 -0.00000000000E+00  0.00000000000E+00  0.33326450502E+02  0.33326450502E+02  0.00000000000E+00 0.  1.
          4   -1    0    0  501    0  0.00000000000E+00 -0.00000000000E+00 -0.91987460930E+03  0.91987460930E+03  0.00000000000E+00 0. -1.
         25    2    1    2    0    0  0.12097473840E+03 -0.18276515803E+01 -0.64617615622E+03  0.66920079798E+03  0.12509138861E+03 0.  0.
          5    1    3    3  502    0  0.14592951350E+02 -0.32531122191E+02 -0.43388295521E+02  0.56313805841E+02  0.41800000000E+01 0. -1.
         -5    1    3    3    0  502  0.10638178705E+03  0.30703470610E+02 -0.60278786070E+03  0.61288699214E+03  0.41800000000E+01 0. -1.
        -11    1    1    2    0    0 -0.54380640665E+02 -0.33158372586E+02 -0.55765027252E+02  0.84655005854E+02  0.00000000000E+00 0.  1.
         11    1    1    2    0    0 -0.66594097731E+02  0.34986024166E+02 -0.18460697533E+03  0.19934525597E+03  0.00000000000E+00 0. -1.
</event>
<event>
 7    1  0.2641580E-009  0.9458105E+02  0.7561462E-02  0.1292122E+00
          2   -1    0    0  501    0  0.00000000000E+00  0.00000000000E+00  0.22320594742E+03  0.22320594742E+03  0.00000000000E+00 0.  1.
         -2   -1    0    0    0  501 -0.00000000000E+00 -0.00000000000E+00 -0.67338349992E+02  0.67338349992E+02  0.00000000000E+00 0. -1.
         25    2    1    2    0    0  0.43334590632E+02 -0.37632585637E+02  0.68236519726E+02  0.15361354041E+03  0.12508716531E+03 0.  0.
          5    1    3    3  502    0  0.79828681395E+01  0.17946463035E+02  0.83490712598E+02  0.85871841772E+02  0.41800000000E+01 0. -1.
         -5    1    3    3    0  502  0.35351722492E+02 -0.55579048671E+02 -0.15254192872E+02  0.67741698639E+02  0.41800000000E+01 0. -1.
        -11    1    1    2    0    0 -0.69573338503E+02  0.24718494252E+02  0.49564208748E+02  0.88927297144E+02  0.00000000000E+00 0. -1.
         11    1    1    2    0    0  0.26238747872E+02  0.12914091385E+02  0.38066868949E+02  0.48003459852E+02  0.00000000000E+00 0.  1.
</event>
<event>
 7    1  0.2641580E-009  0.6746761E+02  0.7561462E-02  0.1368923E+00
         -2   -1    0    0    0  501 -0.00000000000E+00  0.00000000000E+00  0.19410227253E+03  0.19410227253E+03  0.00000000000E+00 0. -1.
          2   -1    0    0  501    0  0.00000000000E+00 -0.00000000000E+00 -0.92520051357E+02  0.92520051357E+02  0.00000000000E+00 0.  1.
         25    2    1    2    0    0 -0.19152230946E+02  0.58506991097E+01  0.13766128679E+03  0.18707947415E+03  0.12508821342E+03 0.  0.
          5    1    3    3  502    0  0.79312313245E+01 -0.78371911352E+01  0.15255444580E+03  0.15301848689E+03  0.41800000000E+01 0.  1.
         -5    1    3    3    0  502 -0.27083462270E+02  0.13687890245E+02 -0.14893159010E+02  0.34060987261E+02  0.41800000000E+01 0.  1.
        -11    1    1    2    0    0  0.52139858707E+02 -0.20854042955E+02 -0.17504277642E+02  0.58820538159E+02  0.00000000000E+00 0. -1.
         11    1    1    2    0    0 -0.32987627761E+02  0.15003343846E+02 -0.18574787978E+02  0.40722311578E+02  0.00000000000E+00 0.  1.
</event>
<event>
 7    1  0.2641580E-009  0.9474468E+02  0.7561462E-02  0.1291752E+00
         -3   -1    0    0    0  501 -0.00000000000E+00  0.00000000000E+00  0.78997604161E+02  0.78997604161E+02  0.00000000000E+00 0.  1.
          3   -1    0    0  501    0  0.00000000000E+00 -0.00000000000E+00 -0.15080603377E+03  0.15080603377E+03  0.00000000000E+00 0. -1.
         25    2    1    2    0    0 -0.85052603757E+01 -0.24049788781E+02 -0.62998975928E+02  0.14236329032E+03  0.12509078171E+03 0.  0.
          5    1    3    3  502    0  0.33332107328E+02 -0.54239523509E+02 -0.64305977608E+02  0.90585244082E+02  0.41800000000E+01 0.  1.
         -5    1    3    3    0  502 -0.41837367704E+02  0.30189734728E+02  0.13070016800E+01  0.51778046242E+02  0.41800000000E+01 0.  1.
        -11    1    1    2    0    0  0.26443757797E+02  0.41300370754E+02 -0.27583707462E+02  0.56265921019E+02  0.00000000000E+00 0. -1.
         11    1    1    2    0    0 -0.17938497421E+02 -0.17250581972E+02  0.18774253780E+02  0.31174426588E+02  0.00000000000E+00 0.  1.
</event>
<event>
 7    1  0.2641580E-009  0.9774246E+02  0.7561462E-02  0.1285116E+00
         -1   -1    0    0    0  501 -0.00000000000E+00  0.00000000000E+00  0.48385256036E+03  0.48385256036E+03  0.00000000000E+00 0.  1.
          1   -1    0    0  501    0  0.00000000000E+00 -0.00000000000E+00 -0.27490885744E+02  0.27490885744E+02  0.00000000000E+00 0. -1.
         25    2    1    2    0    0  0.11176686361E+02 -0.15516969826E+02  0.18225801347E+03  0.22188336499E+03  0.12509416258E+03 0.  0.
          5    1    3    3  502    0  0.11975285886E+02 -0.59893469928E+02  0.40811046948E+02  0.73577504477E+02  0.41800000000E+01 0.  1.
         -5    1    3    3    0  502 -0.79859952476E+00  0.44376500102E+02  0.14144696652E+03  0.14830586051E+03  0.41800000000E+01 0.  1.
        -11    1    1    2    0    0 -0.13743628816E+01  0.51942986086E+02  0.11926383263E+03  0.13009160023E+03  0.00000000000E+00 0.  1.
         11    1    1    2    0    0 -0.98023234794E+01 -0.36426016259E+02  0.15483982852E+03  0.15936848089E+03  0.00000000000E+00 0. -1.
</event>
<event>
 7    1  0.2641580E-009  0.1402515E+03  0.7561462E-02  0.1212991E+00
         -2   -1    0    0    0  501 -0.00000000000E+00  0.00000000000E+00  0.18969724681E+02  0.18969724681E+02  0.00000000000E+00 0.  1.
          2   -1    0    0  501    0  0.00000000000E+00 -0.00000000000E+00 -0.11426083264E+04  0.11426083264E+04  0.00000000000E+00 0. -1.
         25    2    1    2    0    0 -0.95445090271E+02  0.25370137959E+02 -0.56105110695E+03  0.58324901016E+03  0.12509058353E+03 0.  0.
          5    1    3    3  502    0 -0.11136818709E+03 -0.54370401043E+01 -0.50519600295E+03  0.51737115140E+03  0.41800000000E+01 0.  1.
         -5    1    3    3    0  502  0.15923096820E+02  0.30807178063E+02 -0.55855103994E+02  0.65877858759E+02  0.41800000000E+01 0.  1.
        -11    1    1    2    0    0 -0.55110397916E+01 -0.32331650549E+02 -0.14207766026E+03  0.14581415820E+03  0.00000000000E+00 0.  1.
         11    1    1    2    0    0  0.10095613006E+03  0.69615125904E+01 -0.42050983451E+03  0.43251488272E+03  0.00000000000E+00 0. -1.
</event>
<event>
 7    1  0.2742829E-009  0.2066543E+03  0.7561462E-02  0.1144243E+00
         -2   -1    0    0    0  501 -0.00000000000E+00  0.00000000000E+00  0.57312215732E+02  0.57312215732E+02  0.00000000000E+00 0.  1.
          2   -1    0    0  501    0  0.00000000000E+00 -0.00000000000E+00 -0.90717713139E+03  0.90717713139E+03  0.00000000000E+00 0. -1.
         25    2    1    2    0    0 -0.89770566170E+02  0.17766391592E+03 -0.48383463038E+03  0.53793040010E+03  0.12509973710E+03 0.  0.
          5    1    3    3  502    0 -0.99736481781E+02  0.12678537323E+03 -0.44400298958E+03  0.47241721372E+03  0.41800000000E+01 0.  1.
         -5    1    3    3    0  502  0.99659156107E+01  0.50878542693E+02 -0.39831640803E+02  0.65513186380E+02  0.41800000000E+01 0.  1.
        -11    1    1    2    0    0  0.75793980910E+02 -0.13245415869E+03 -0.33970391747E+03  0.37240781845E+03  0.00000000000E+00 0. -1.
         11    1    1    2    0    0  0.13976585261E+02 -0.45209757228E+02 -0.26326367810E+02  0.54151128578E+02  0.00000000000E+00 0.  1.
</event>
<event>
 7    1  0.2641580E-009  0.1604893E+03  0.7561462E-02  0.1188145E+00
         -1   -1    0    0    0  501 -0.00000000000E+00  0.00000000000E+00  0.94086515246E+02  0.94086515246E+02  0.00000000000E+00 0.  1.
          1   -1    0    0  501    0  0.00000000000E+00 -0.00000000000E+00 -0.36197175744E+03  0.36197175744E+03  0.00000000000E+00 0. -1.
         25    2    1    2    0    0  0.25778939464E+02 -0.12837883999E+03 -0.22814413707E+03  0.29127794254E+03  0.12508961689E+03 0.  0.
          5    1    3    3  502    0 -0.44230869981E+02 -0.84506471741E+02 -0.14781994231E+03  0.17597136520E+03  0.41800000000E+01 0. -1.
         -5    1    3    3    0  502  0.70009809445E+02 -0.43872368247E+02 -0.80324194755E+02  0.11530657734E+03  0.41800000000E+01 0. -1.
        -11    1    1    2    0    0  0.25026288690E+01  0.10773576772E+03 -0.60986438332E+02  0.12382489434E+03  0.00000000000E+00 0. -1.
         11    1    1    2    0    0 -0.28281568333E+02  0.20643072267E+02  0.21245333199E+02  0.40955435815E+02  0.00000000000E+00 0.  1.
</event>
<event>
 7    1  0.2641580E-009  0.1022274E+03  0.7561462E-02  0.1275681E+00
          2   -1    0    0  501    0  0.00000000000E+00  0.00000000000E+00  0.80427721304E+03  0.80427721304E+03  0.00000000000E+00 0.  1.
         -2   -1    0    0    0  501 -0.00000000000E+00 -0.00000000000E+00 -0.15569721836E+02  0.15569721836E+02  0.00000000000E+00 0. -1.
         25    2    1    2    0    0  0.18635713248E+02 -0.23486007463E+02  0.47931132000E+03  0.49627136671E+03  0.12508815123E+03 0.  0.
          5    1    3    3  502    0  0.57237215511E+02  0.24905330179E+02  0.30219833801E+03  0.30860603074E+03  0.41800000000E+01 0. -1.
         -5    1    3    3    0  502 -0.38601502263E+02 -0.48391337642E+02  0.17711298199E+03  0.18766533597E+03  0.41800000000E+01 0. -1.
        -11    1    1    2    0    0  0.10063042287E+02  0.43638577322E+02  0.25467168982E+03  0.25857931055E+03  0.00000000000E+00 0.  1.
         11    1    1    2    0    0 -0.28698755535E+02 -0.20152569859E+02  0.54724481383E+02  0.64996257614E+02  0.00000000000E+00 0. -1.
</event>
<event>
 7    1  0.2641580E-009  0.1352569E+03  0.7561462E-02  0.1219857E+00
         -1   -1    0    0    0  501 -0.00000000000E+00  0.00000000000E+00  0.21707286285E+03  0.21707286285E+03  0.00000000000E+00 0.  1.
          1   -1    0    0  501    0  0.00000000000E+00 -0.00000000000E+00 -0.10125980258E+03  0.10125980258E+03  0.00000000000E+00 0. -1.
         25    2    1    2    0    0  0.84671675692E+02 -0.38708163905E+02  0.24899690367E+02  0.15790837868E+03  0.12508975522E+03 0.  0.
          5    1    3    3  502    0  0.24931546236E+02  0.35121578539E+02  0.43147430498E+02  0.61108759072E+02  0.41800000000E+01 0. -1.
         -5    1    3    3    0  502  0.59740129457E+02 -0.73829742444E+02 -0.18247740131E+02  0.96799619611E+02  0.41800000000E+01 0. -1.
        -11    1    1    2    0    0 -0.35082195679E+02 -0.30873177898E+02  0.31945307951E+02  0.56607563693E+02  0.00000000000E+00 0. -1.
         11    1    1    2    0    0 -0.49589480014E+02  0.69581341804E+02  0.58968061947E+02  0.10381672305E+03  0.00000000000E+00 0.  1.
</event>
<event>
 7    1  0.2641580E-009  0.1047439E+03  0.7561462E-02  0.1270625E+00
          2   -1    0    0  501    0  0.00000000000E+00  0.00000000000E+00  0.14659583334E+04  0.14659583334E+04  0.00000000000E+00 0. -1.
         -2   -1    0    0    0  501 -0.00000000000E+00 -0.00000000000E+00 -0.10710557238E+02  0.10710557238E+02  0.00000000000E+00 0.  1.
         25    2    1    2    0    0  0.44241467088E+02  0.40253241420E+02  0.88175224565E+03  0.89258585102E+03  0.12507936632E+03 0.  0.
          5    1    3    3  502    0  0.11237747595E+02  0.59467760734E+02  0.79956296047E+03  0.80186102393E+03  0.41800000000E+01 0. -1.
         -5    1    3    3    0  502  0.33003719493E+02 -0.19214519313E+02  0.82189285172E+02  0.90724827086E+02  0.41800000000E+01 0. -1.
        -11    1    1    2    0    0  0.12921898622E+01 -0.60542481694E+02  0.29300145270E+03  0.29919377188E+03  0.00000000000E+00 0.  1.
         11    1    1    2    0    0 -0.45533656950E+02  0.20289240273E+02  0.28049407778E+03  0.28488926771E+03  0.00000000000E+00 0. -1.
</event>
<event>
 7    1  0.2641580E-009  0.1778830E+03  0.7561462E-02  0.1169868E+00
         -1   -1    0    0    0  501 -0.00000000000E+00  0.00000000000E+00  0.59442248834E+02  0.59442248834E+02  0.00000000000E+00 0.  1.
          1   -1    0    0  501    0  0.00000000000E+00 -0.00000000000E+00 -0.58027188068E+03  0.58027188068E+03  0.00000000000E+00 0. -1.
         25    2    1    2    0    0  0.79802721900E+02  0.12755507144E+03 -0.29044000817E+03  0.35020300775E+03  0.12509187670E+03 0.  0.
          5    1    3    3  502    0 -0.18044411220E+02 -0.22381023787E+01 -0.15788605418E+01  0.18723650262E+02  0.41800000000E+01 0. -1.
         -5    1    3    3    0  502  0.97847133120E+02  0.12979317382E+03 -0.28886114763E+03  0.33147935749E+03  0.41800000000E+01 0. -1.
        -11    1    1    2    0    0 -0.72178805169E+02 -0.32511357206E+02 -0.90780744479E+02  0.12044879340E+03  0.00000000000E+00 0.  1.
         11    1    1    2    0    0 -0.76239167315E+01 -0.95043714236E+02 -0.13960887920E+03  0.16906232837E+03  0.00000000000E+00 0. -1.
</event>
<event>
 7    1  0.2641580E-009  0.7198028E+02  0.7561462E-02  0.1353486E+00
         -2   -1    0    0    0  501 -0.00000000000E+00  0.00000000000E+00  0.12501243793E+03  0.12501243793E+03  0.00000000000E+00 0. -1.
          2   -1    0    0  501    0  0.00000000000E+00 -0.00000000000E+00 -0.94126142711E+02  0.94126142711E+02  0.00000000000E+00 0.  1.
         25    2    1    2    0    0  0.23959151571E+01 -0.22309214496E+01 -0.38786161916E+01  0.12519098250E+03  0.12508805305E+03 0.  0.
          5    1    3    3  502    0 -0.37355811497E+02 -0.30734199206E+02  0.37209699747E+02  0.61172557644E+02  0.41800000000E+01 0.  1.
         -5    1    3    3    0  502  0.39751726654E+02  0.28503277757E+02 -0.41088315939E+02  0.64018424860E+02  0.41800000000E+01 0.  1.
        -11    1    1    2    0    0  0.12169933067E+02  0.19954242079E+02  0.57242504358E+02  0.61830278610E+02  0.00000000000E+00 0. -1.
         11    1    1    2    0    0 -0.14565848224E+02 -0.17723320630E+02 -0.22477592950E+02  0.32117319525E+02  0.00000000000E+00 0.  1.
</event>
<event>
 7    1  0.2641580E-009  0.1357725E+03  0.7561462E-02  0.1219133E+00
         -1   -1    0    0    0  501 -0.00000000000E+00  0.00000000000E+00  0.44892756514E+02  0.44892756514E+02  0.00000000000E+00 0.  1.
          1   -1    0    0  501    0  0.00000000000E+00 -0.00000000000E+00 -0.78387292688E+03  0.78387292688E+03  0.00000000000E+00 0. -1.
         25    2    1    2    0    0 -0.12309949099E+03  0.30607555086E+02 -0.57440862590E+03  0.60139909272E+03  0.12508114207E+03 0.  0.
          5    1    3    3  502    0 -0.99509701829E+01 -0.86367360762E+01 -0.31874481828E+03  0.31904442731E+03  0.41800000000E+01 0. -1.
         -5    1    3    3    0  502 -0.11314852080E+03  0.39244291162E+02 -0.25566380762E+03  0.28235466541E+03  0.41800000000E+01 0. -1.
        -11    1    1    2    0    0  0.51640119026E+02 -0.40657847338E+02 -0.13349385781E+03  0.14879641298E+03  0.00000000000E+00 0. -1.
         11    1    1    2    0    0  0.71459371960E+02  0.10050292253E+02 -0.31077686655E+02  0.78570177695E+02  0.00000000000E+00 0.  1.
</event>
<event>
 7    1  0.2641580E-009  0.1257466E+03  0.7561462E-02  0.1233907E+00
          1   -1    0    0  501    0  0.00000000000E+00  0.00000000000E+00  0.51228660438E+03  0.51228660438E+03  0.00000000000E+00 0. -1.
         -1   -1    0    0    0  501 -0.00000000000E+00 -0.00000000000E+00 -0.39919391165E+02  0.39919391165E+02  0.00000000000E+00 0.  1.
         25    2    1    2    0    0  0.87172470994E+02 -0.28187278339E+02  0.28101377413E+03  0.32095310581E+03  0.12509433449E+03 0.  0.
          5    1    3    3  502    0  0.64652652877E+02  0.20712774414E+02  0.24912092367E+03  0.25823960106E+03  0.41800000000E+01 0.  1.
         -5    1    3    3    0  502  0.22519818117E+02 -0.48900052753E+02  0.31892850456E+02  0.62713504745E+02  0.41800000000E+01 0.  1.
        -11    1    1    2    0    0 -0.56713137623E+02  0.61960575563E+02  0.13237276586E+03  0.15677385638E+03  0.00000000000E+00 0. -1.
         11    1    1    2    0    0 -0.30459333371E+02 -0.33773297224E+02  0.58980673236E+02  0.74479033359E+02  0.00000000000E+00 0.  1.
</event>
<event>
 7    1  0.2786052E-009  0.9518884E+02  0.7561462E-02  0.1290751E+00
          1   -1    0    0  501    0  0.00000000000E+00  0.00000000000E+00  0.91609005483E+02  0.91609005483E+02  0.00000000000E+00 0. -1.
         -1   -1    0    0    0  501 -0.00000000000E+00 -0.00000000000E+00 -0.18303882948E+03  0.18303882948E+03  0.00000000000E+00 0.  1.
         25    2    1    2    0    0  0.29091860044E+02 -0.43866605934E+02 -0.99760691842E+02  0.16844563963E+03  0.12510444611E+03 0.  0.
          5    1    3    3  502    0  0.55905532497E+02  0.18900133221E+02 -0.75431263273E+02  0.95864443245E+02  0.41800000000E+01 0.  1.
         -5    1    3    3    0  502 -0.26813672453E+02 -0.62766739155E+02 -0.24329428568E+02  0.72581196388E+02  0.41800000000E+01 0.  1.
        -11    1    1    2    0    0  0.79378244194E+01  0.70544320723E+01  0.42496508542E+02  0.43803279634E+02  0.00000000000E+00 0. -1.
         11    1    1    2    0    0 -0.37029684463E+02  0.36812173861E+02 -0.34165640696E+02  0.62398915696E+02  0.00000000000E+00 0.  1.
</event>
<event>
 7    1  0.2641580E-009  0.1022496E+03  0.7561462E-02  0.1275635E+00
         -1   -1    0    0    0  501 -0.00000000000E+00  0.00000000000E+00  0.51711074206E+03  0.51711074206E+03  0.00000000000E+00 0.  1.
          1   -1    0    0  501    0  0.00000000000E+00 -0.00000000000E+00 -0.22943390951E+02  0.22943390951E+02  0.00000000000E+00 0. -1.
         25    2    1    2    0    0  0.45323192110E+02 -0.27222696841E+02  0.29012328907E+03  0.32033515243E+03  0.12509124691E+03 0.  0.
          5    1    3    3  502    0  0.66534340718E+02  0.22095080067E+02  0.96421342688E+02  0.11928771430E+03  0.41800000000E+01 0. -1.
         -5    1    3    3    0  502 -0.21211148608E+02 -0.49317776908E+02  0.19370194638E+03  0.20104743813E+03  0.41800000000E+01 0. -1.
        -11    1    1    2    0    0 -0.57993598748E+02  0.97053741044E+01  0.16382208624E+03  0.17405495604E+03  0.00000000000E+00 0.  1.
         11    1    1    2    0    0  0.12670406639E+02  0.17517322737E+02  0.40221975796E+02  0.45664024540E+02  0.00000000000E+00 0. -1.
</event>
<event>
 7    1  0.2641580E-009  0.1061482E+03  0.7561462E-02  0.1267874E+00
         -2   -1    0    0    0  501 -0.00000000000E+00  0.00000000000E+00  0.46587254014E+02  0.46587254014E+02  0.00000000000E+00 0. -1.
          2   -1    0    0  501    0  0.00000000000E+00 -0.00000000000E+00 -0.33535704495E+03  0.33535704495E+03  0.00000000000E+00 0.  1.
         25    2    1    2    0    0  0.25243321103E+02  0.49998404814E+02 -0.12150827593E+03  0.18316119356E+03  0.12508675375E+03 0.  0.
          5    1    3    3  502    0  0.29260826932E+02 -0.37507408372E+02 -0.56609671679E+02  0.74061656768E+02  0.41800000000E+01 0.  1.
         -5    1    3    3    0  502 -0.40175058290E+01  0.87505813187E+02 -0.64898604246E+02  0.10909953679E+03  0.41800000000E+01 0.  1.
        -11    1    1    2    0    0 -0.38524338152E+02 -0.50544633781E+02 -0.17300095116E+03  0.18430467638E+03  0.00000000000E+00 0.  1.
         11    1    1    2    0    0  0.13281017049E+02  0.54622896660E+00  0.57394361428E+01  0.14478429030E+02  0.00000000000E+00 0. -1.
</event>
<event>
 7    1  0.2641580E-009  0.1741595E+03  0.7561462E-02  0.1173578E+00
          2   -1    0    0  501    0  0.00000000000E+00  0.00000000000E+00  0.78133299706E+03  0.78133299706E+03  0.00000000000E+00 0. -1.
         -2   -1    0    0    0  501 -0.00000000000E+00 -0.00000000000E+00 -0.50281984517E+02  0.50281984517E+02  0.00000000000E+00 0.  1.
         25    2    1    2    0    0  0.13898639703E+03 -0.82632280910E+02  0.45279132729E+03  0.49680220042E+03  0.12508848015E+03 0.  0.
          5    1    3    3  502    0  0.81386639656E+02  0.38976188234E+01  0.30728431229E+03  0.31793096346E+03  0.41800000000E+01 0. -1.
         -5    1    3    3    0  502  0.57599757372E+02 -0.86529899734E+02  0.14550701500E+03  0.17887123696E+03  0.41800000000E+01 0. -1.
        -11    1    1    2    0    0 -0.92869869082E+02  0.45104074850E+02  0.88588315192E+02  0.13604072824E+03  0.00000000000E+00 0.  1.
         11    1    1    2    0    0 -0.46116527946E+02  0.37528206060E+02  0.18967137006E+03  0.19877205291E+03  0.00000000000E+00 0. -1.
</event>
<event>
 7    1  0.2641580E-009  0.1257684E+03  0.7561462E-02  0.1233873E+00
          1   -1    0    0  501    0  0.00000000000E+00  0.00000000000E+00  0.13367651275E+03  0.13367651275E+03  0.00000000000E+00 0. -1.
         -1   -1    0    0    0  501 -0.00000000000E+00 -0.00000000000E+00 -0.13586847766E+03  0.13586847766E+03  0.00000000000E+00 0.  1.
         25    2    1    2    0    0 -0.84933902643E+01  0.74185996124E+02 -0.34104220105E+02  0.14961845950E+03  0.12508751295E+03 0.  0.
          5    1    3    3  502    0  0.52933070394E+02  0.85533340890E+01 -0.24554497968E+02  0.59122459656E+02  0.41800000000E+01 0.  1.
         -5    1    3    3    0  502 -0.61426460658E+02  0.65632662035E+02 -0.95497221368E+01  0.90495999844E+02  0.41800000000E+01 0.  1.
        -11    1    1    2    0    0 -0.23639014264E+02 -0.71744724026E+02  0.41652760018E+02  0.86261583791E+02  0.00000000000E+00 0. -1.
         11    1    1    2    0    0  0.32132404529E+02 -0.24412720980E+01 -0.97405048209E+01  0.33664947117E+02  0.00000000000E+00 0.  1.
</event>
<event>
 7    1  0.2641580E-009  0.1509910E+03  0.7561462E-02  0.1199261E+00
          2   -1    0    0  501    0  0.00000000000E+00  0.00000000000E+00  0.67598382367E+03  0.67598382367E+03  0.00000000000E+00 0.  1.
         -2   -1    0    0    0  501 -0.00000000000E+00 -0.00000000000E+00 -0.44426317768E+02  0.44426317768E+02  0.00000000000E+00 0. -1.
         25    2    1    2    0    0  0.12327309314E+03 -0.13873933920E+02  0.22411935813E+03  0.28506967358E+03  0.12508593274E+03 0.  0.
          5    1    3    3  502    0 -0.13820121492E+02 -0.18734965406E+01  0.95678012298E+02  0.96779440919E+02  0.41800000000E+01 0. -1.
         -5    1    3    3    0  502  0.13709321463E+03 -0.12000437380E+02  0.12844134583E+03  0.18829023266E+03  0.41800000000E+01 0. -1.
        -11    1    1    2    0    0 -0.43038429311E+02 -0.35277252464E+02  0.10841977560E+03  0.12186729947E+03  0.00000000000E+00 0.  1.
         11    1    1    2    0    0 -0.80234663832E+02  0.49151186384E+02  0.29901837217E+03  0.31347316839E+03  0.00000000000E+00 0. -1.
</event>
<event>
 7    1  0.2641580E-009  0.1466624E+03  0.7561462E-02  0.1204635E+00
         -1   -1    0    0    0  501 -0.00000000000E+00  0.00000000000E+00  0.10869792613E+02  0.10869792613E+02  0.00000000000E+00 0.  1.
          1   -1    0    0  501    0  0.00000000000E+00 -0.00000000000E+00 -0.20871929536E+04  0.20871929536E+04  0.00000000000E+00 0. -1.
         25    2    1    2    0    0  0.95521718313E+02 -0.26641652781E+02 -0.13276731669E+04  0.13372346345E+04  0.12508498451E+03 0.  0.
          5    1    3    3  502    0 -0.52517037969E+01  0.38348087957E+02 -0.38251311383E+03  0.38448915576E+03  0.41800000000E+01 0. -1.
         -5    1    3    3    0  502  0.10077342211E+03 -0.64989740738E+02 -0.94516005305E+03  0.95274547875E+03  0.41800000000E+01 0. -1.
        -11    1    1    2    0    0 -0.17075297787E+00 -0.25656445581E+02 -0.10742809487E+03  0.11044943605E+03  0.00000000000E+00 0.  1.
         11    1    1    2    0    0 -0.95350965335E+02  0.52298098362E+02 -0.64122189925E+03  0.65037867567E+03  0.00000000000E+00 0. -1.
</event>
<event>
 7    1  0.2641580E-009  0.1241433E+03  0.7561462E-02  0.1236414E+00
          2   -1    0    0  501    0  0.00000000000E+00  0.00000000000E+00  0.29641403639E+03  0.29641403639E+03  0.00000000000E+00 0. -1.
         -2   -1    0    0    0  501 -0.00000000000E+00 -0.00000000000E+00 -0.84878401356E+02  0.84878401356E+02  0.00000000000E+00 0.  1.
         25    2    1    2    0    0 -0.85877684551E+02  0.75517690099E+02  0.11465215730E+03  0.20462374017E+03  0.12509140516E+03 0.  0.
          5    1    3    3  502    0 -0.74093151792E+02  0.60948663052E+02  0.14187003313E+03  0.17131582930E+03  0.41800000000E+01 0.  1.
         -5    1    3    3    0  502 -0.11784532759E+02  0.14569027047E+02 -0.27217875831E+02  0.33307910865E+02  0.41800000000E+01 0.  1.
        -11    1    1    2    0    0  0.47155088779E+02  0.11452009592E+01  0.74051625217E+02  0.87798388825E+02  0.00000000000E+00 0. -1.
         11    1    1    2    0    0  0.38722595773E+02 -0.76662891058E+02  0.22831852523E+02  0.88870308756E+02  0.00000000000E+00 0.  1.
</event>
<event>
 7    1  0.2641580E-009  0.1075918E+03  0.7561462E-02  0.1265096E+00
         -1   -1    0    0    0  501 -0.00000000000E+00  0.00000000000E+00  0.15587548677E+03  0.15587548677E+03  0.00000000000E+00 0.  1.
          1   -1    0    0  501    0  0.00000000000E+00 -0.00000000000E+00 -0.79619010490E+02  0.79619010490E+02  0.00000000000E+00 0. -1.
         25    2    1    2    0    0 -0.15499897923E+02 -0.14489325466E+02  0.71018241315E+02  0.14540053281E+03  0.12509011533E+03 0.  0.
          5    1    3    3  502    0 -0.59138768967E+02  0.28220035195E+02  0.37793575590E+02  0.75760089343E+02  0.41800000000E+01 0. -1.
         -5    1    3    3    0  502  0.43638871044E+02 -0.42709360661E+02  0.33224665725E+02  0.69640443469E+02  0.41800000000E+01 0. -1.
        -11    1    1    2    0    0 -0.95407551425E+01 -0.33152467576E+02  0.10383776565E+02  0.36026864016E+02  0.00000000000E+00 0.  1.
         11    1    1    2    0    0  0.25040653066E+02  0.47641793043E+02 -0.51455416041E+01  0.54067100428E+02  0.00000000000E+00 0. -1.
</event>
<event>
 7    1  0.2641580E-009  0.8484522E+02  0.7561462E-02  0.1315838E+00
         -1   -1    0    0    0  501 -0.00000000000E+00  0.00000000000E+00  0.52174587952E+02  0.52174587952E+02  0.00000000000E+00 0.  1.
          1   -1    0    0  501    0  0.00000000000E+00 -0.00000000000E+00 -0.24544188447E+03  0.24544188447E+03  0.00000000000E+00 0. -1.
         25    2    1    2    0    0 -0.26848369170E+02 -0.27475543470E+02 -0.14290870807E+03  0.19376825333E+03  0.12508995460E+03 0.  0.
          5    1    3    3  502    0 -0.70531870440E+02  0.98023067625E+01 -0.95399828549E+02  0.11911939243E+03  0.41800000000E+01 0. -1.
         -5    1    3    3    0  502  0.43683501270E+02 -0.37277850233E+02 -0.47508879517E+02  0.74648860904E+02  0.41800000000E+01 0. -1.
        -11    1    1    2    0    0  0.77236552198E+01  0.17675933031E+02 -0.71287642423E+02  0.73851346777E+02  0.00000000000E+00 0. -1.
         11    1    1    2    0    0  0.19124713950E+02  0.97996104388E+01  0.20929053971E+02  0.29996872313E+02  0.00000000000E+00 0.  1.
</event>
<event>
 7    1  0.2641580E-009  0.2328303E+03  0.7561462E-02  0.1124663E+00
         -1   -1    0    0    0  501 -0.00000000000E+00  0.00000000000E+00  0.57995537041E+03  0.57995537041E+03  0.00000000000E+00 0.  1.
          1   -1    0    0  501    0  0.00000000000E+00 -0.00000000000E+00 -0.10620890004E+03  0.10620890004E+03  0.00000000000E+00 0. -1.
         25    2    1    2    0    0  0.13045814723E+03 -0.16930045091E+03  0.15544885182E+03  0.29239402800E+03  0.12509177120E+03 0.  0.
          5    1    3    3  502    0  0.28753100096E+02  0.14903955903E+02  0.35556427892E+01  0.32847886725E+02  0.41800000000E+01 0. -1.
         -5    1    3    3    0  502  0.10170504713E+03 -0.18420440682E+03  0.15189320903E+03  0.25954614127E+03  0.41800000000E+01 0. -1.
        -11    1    1    2    0    0 -0.47061140138E+02  0.19183950157E+02  0.32425357235E+02  0.60284149215E+02  0.00000000000E+00 0.  1.
         11    1    1    2    0    0 -0.83397007088E+02  0.15011650076E+03  0.28587226131E+03  0.33348609323E+03  0.00000000000E+00 0. -1.
</event>
<event>
 7    1  0.2641580E-009  0.9137799E+02  0.7561462E-02  0.1299549E+00
          1   -1    0    0  501    0  0.00000000000E+00  0.00000000000E+00  0.22359489694E+03  0.22359489694E+03  0.00000000000E+00 0. -1.
         -1   -1    0    0    0  501 -0.00000000000E+00 -0.00000000000E+00 -0.71055922677E+02  0.71055922677E+02  0.00000000000E+00 0.  1.
         25    2    1    2    0    0 -0.55759685679E+02  0.27615062502E+02  0.10134943697E+03  0.17260271106E+03  0.12509297848E+03 0.  0.
          5    1    3    3  502    0 -0.48949432307E+01  0.32928370195E+02  0.11476255021E+03  0.11956652275E+03  0.41800000000E+01 0.  1.
         -5    1    3    3    0  502 -0.50864742449E+02 -0.53133076934E+01 -0.13413113235E+02  0.53036188303E+02  0.41800000000E+01 0.  1.
        -11    1    1    2    0    0  0.40675067786E+02 -0.53936709260E+02  0.62720238242E+01  0.67845176896E+02  0.00000000000E+00 0.  1.
         11    1    1    2    0    0  0.15084617894E+02  0.26321646758E+02  0.44917513462E+02  0.54202931661E+02  0.00000000000E+00 0. -1.
</event>
<event>
 7    1  0.2641580E-009  0.1132407E+03  0.7561462E-02  0.1254684E+00
         -1   -1    0    0    0  501 -0.00000000000E+00  0.00000000000E+00  0.64377513792E+02  0.64377513792E+02  0.00000000000E+00 0.  1.
          1   -1    0    0  501    0  0.00000000000E+00 -0.00000000000E+00 -0.28741048623E+03  0.28741048623E+03  0.00000000000E+00 0. -1.
         25    2    1    2    0    0  0.68605821882E+02 -0.45654301247E+02 -0.12919979114E+03  0.19781285463E+03  0.12508503271E+03 0.  0.
          5    1    3    3  502    0 -0.45565988623E+01  0.31703180366E+02 -0.67128106035E+02  0.74495028414E+02  0.41800000000E+01 0. -1.
         -5    1    3    3    0  502  0.73162420745E+02 -0.77357481613E+02 -0.62071685101E+02  0.12331782621E+03  0.41800000000E+01 0. -1.
        -11    1    1    2    0    0 -0.17928209930E+02 -0.20255974378E+01  0.15894762007E+02  0.24045107933E+02  0.00000000000E+00 0.  1.
         11    1    1    2    0    0 -0.50677611952E+02  0.47679898685E+02 -0.10972794331E+03  0.12993003746E+03  0.00000000000E+00 0. -1.
</event>
<event>
 7    1  0.2641580E-009  0.8297109E+02  0.7561462E-02  0.1320825E+00
          1   -1    0    0  501    0  0.00000000000E+00  0.00000000000E+00  0.49135019950E+02  0.49135019950E+02  0.00000000000E+00 0. -1.
         -1   -1    0    0    0  501 -0.00000000000E+00 -0.00000000000E+00 -0.35504743771E+03  0.35504743771E+03  0.00000000000E+00 0.  1.
         25    2    1    2    0    0 -0.52986525292E+02  0.41490700871E+01 -0.25083981123E+03  0.28529426539E+03  0.12508964912E+03 0.  0.
          5    1    3    3  502    0  0.25511054103E+02  0.13689706609E+02 -0.16863763121E+03  0.17115590848E+03  0.41800000000E+01 0. -1.
         -5    1    3    3    0  502 -0.78497579395E+02 -0.95406365218E+01 -0.82202180025E+02  0.11413835691E+03  0.41800000000E+01 0. -1.
        -11    1    1    2    0    0  0.28686028506E+02  0.87521274195E+01  0.21906588724E+02  0.37140094175E+02  0.00000000000E+00 0. -1.
         11    1    1    2    0    0  0.24300496787E+02 -0.12901197507E+02 -0.76979195251E+02  0.81748098098E+02  0.00000000000E+00 0.  1.
</event>
<event>
 6    1  0.4908481E-009  0.1079005E+03  0.7561462E-02  0.1264508E+00
         -1   -1    0    0    0  501 -0.00000000000E+00  0.00000000000E+00  0.16409149569E+03  0.16409149569E+03  0.00000000000E+00 0.  1.
          1   -1    0    0  501    0  0.00000000000E+00 -0.00000000000E+00 -0.81384500693E+02  0.81384500693E+02  0.00000000000E+00 0. -1.
          5    1    1    2  502    0 -0.46759875451E+02 -0.50458968491E+02 -0.56322172319E+01  0.69150471613E+02  0.41800000000E+01 0.  1.
         -5    1    1    2    0  502  0.12237007478E+02  0.53139265519E+02  0.25582459318E+02  0.60377649148E+02  0.41800000000E+01 0.  1.
        -11    1    1    2    0    0  0.47795350152E+02  0.30333448618E+02  0.56197814260E+02  0.79766584036E+02  0.00000000000E+00 0.  1.
         11    1    1    2    0    0 -0.13272482178E+02 -0.33013745647E+02  0.65589386557E+01  0.36181291590E+02  0.00000000000E+00 0. -1.
</event>
<event>
 7    1  0.2641580E-009  0.7985402E+02  0.7561462E-02  0.1329466E+00
         -1   -1    0    0    0  501 -0.00000000000E+00  0.00000000000E+00  0.55028891557E+02  0.55028891557E+02  0.00000000000E+00 0.  1.
          1   -1    0    0  501    0  0.00000000000E+00 -0.00000000000E+00 -0.23707564907E+03  0.23707564907E+03  0.00000000000E+00 0. -1.
         25    2    1    2    0    0 -0.11810815702E+02 -0.31970147145E+01 -0.14951843352E+03  0.19532480985E+03  0.12508518341E+03 0.  0.
          5    1    3    3  502    0  0.91315610831E+01  0.28636970524E+02  0.94622932620E+01  0.31787873197E+02  0.41800000000E+01 0.  1.
         -5    1    3    3    0  502 -0.20942376785E+02 -0.31833985239E+02 -0.15898072678E+03  0.16353693665E+03  0.41800000000E+01 0.  1.
        -11    1    1    2    0    0  0.49231978662E+02  0.15535224280E+02 -0.20920569882E+02  0.55702793113E+02  0.00000000000E+00 0.  1.
         11    1    1    2    0    0 -0.37421162960E+02 -0.12338209566E+02 -0.11607754116E+02  0.41076937668E+02  0.00000000000E+00 0. -1.
</event>
<event>
 7    1  0.2641580E-009  0.1382883E+03  0.7561462E-02  0.1215651E+00
         -3   -1    0    0    0  501 -0.00000000000E+00  0.00000000000E+00  0.20585421667E+03  0.20585421667E+03  0.00000000000E+00 0.  1.
          3   -1    0    0  501    0  0.00000000000E+00 -0.00000000000E+00 -0.20483254444E+03  0.20483254444E+03  0.00000000000E+00 0. -1.
         25    2    1    2    0    0  0.10778929780E+03 -0.15224077013E+02  0.13649058947E+03  0.21477015105E+03  0.12508489727E+03 0.  0.
          5    1    3    3  502    0 -0.25298852984E+02 -0.18799937611E+02  0.35175880178E+02  0.47416079159E+02  0.41800000000E+01 0. -1.
         -5    1    3    3    0  502  0.13308815079E+03  0.35758605977E+01  0.10131470929E+03  0.16735407189E+03  0.41800000000E+01 0. -1.
        -11    1    1    2    0    0 -0.34745127642E+02  0.16634053696E+02  0.37388172923E+01  0.38702640633E+02  0.00000000000E+00 0.  1.
         11    1    1    2    0    0 -0.73044170161E+02 -0.14099766826E+01 -0.13920773453E+03  0.15721396943E+03  0.00000000000E+00 0. -1.
</event>
<event>
 7    1  0.2641580E-009  0.9412845E+02  0.7561462E-02  0.1293151E+00
         -2   -1    0    0    0  501 -0.00000000000E+00  0.00000000000E+00  0.16789246204E+02  0.16789246204E+02  0.00000000000E+00 0.  1.
          2   -1    0    0  501    0  0.00000000000E+00 -0.00000000000E+00 -0.95162896815E+03  0.95162896815E+03  0.00000000000E+00 0. -1.
         25    2    1    2    0    0  0.33776389448E+02 -0.19872052020E+02 -0.70733749482E+03  0.71938177415E+03  0.12509221581E+03 0.  0.
          5    1    3    3  502    0 -0.38473751405E+02 -0.68567524819E+00 -0.44175555937E+03  0.44344801987E+03  0.41800000000E+01 0. -1.
         -5    1    3    3    0  502  0.72250140853E+02 -0.19186376772E+02 -0.26558193546E+03  0.27593375427E+03  0.41800000000E+01 0. -1.
        -11    1    1    2    0    0 -0.52421455217E+02  0.92816992012E+01 -0.21995234329E+03  0.22630331908E+03  0.00000000000E+00 0. -1.
         11    1    1    2    0    0  0.18645065770E+02  0.10590352819E+02 -0.75498838342E+01  0.22733121129E+02  0.00000000000E+00 0.  1.
</event>
<event>
 7    1  0.2641580E-009  0.1527475E+03  0.7561462E-02  0.1197137E+00
         -2   -1    0    0    0  501 -0.00000000000E+00  0.00000000000E+00  0.21442234398E+03  0.21442234398E+03  0.00000000000E+00 0. -1.
          2   -1    0    0  501    0  0.00000000000E+00 -0.00000000000E+00 -0.19814810599E+03  0.19814810599E+03  0.00000000000E+00 0.  1.
         25    2    1    2    0    0  0.98986014024E+01 -0.14716411320E+03 -0.84028117587E+02  0.21086354252E+03  0.12508976974E+03 0.  0.
          5    1    3    3  502    0  0.31458195234E+02 -0.88563093368E+02  0.13442044897E+02  0.95032628741E+02  0.41800000000E+01 0. -1.
         -5    1    3    3    0  502 -0.21559593831E+02 -0.58601019831E+02 -0.97470162484E+02  0.11583091378E+03  0.41800000000E+01 0. -1.
        -11    1    1    2    0    0 -0.98470070549E+00  0.12419429034E+03  0.30791128760E+02  0.12795813768E+03  0.00000000000E+00 0.  1.
         11    1    1    2    0    0 -0.89139006969E+01  0.22969822857E+02  0.69511226825E+02  0.73748769769E+02  0.00000000000E+00 0. -1.
</event>
<event>
 7    1  0.2641580E-009  0.1057978E+03  0.7561462E-02  0.1268556E+00
         -1   -1    0    0    0  501 -0.00000000000E+00  0.00000000000E+00  0.16608677979E+02  0.16608677979E+02  0.00000000000E+00 0.  1.
          1   -1    0    0  501    0  0.00000000000E+00 -0.00000000000E+00 -0.78626175159E+03  0.78626175159E+03  0.00000000000E+00 0. -1.
         25    2    1    2    0    0 -0.25859993873E+02  0.18559408808E+02 -0.37777673291E+03  0.39921916265E+03  0.12508992350E+03 0.  0.
          5    1    3    3  502    0 -0.10005104538E+02 -0.47383612401E+02 -0.78547078380E+02  0.92371125158E+02  0.41800000000E+01 0.  1.
         -5    1    3    3    0  502 -0.15854889336E+02  0.65943021209E+02 -0.29922965453E+03  0.30684803750E+03  0.41800000000E+01 0.  1.
        -11    1    1    2    0    0  0.16245188605E+02  0.36074016471E+02 -0.20198210788E+03  0.20582034088E+03  0.00000000000E+00 0. -1.
         11    1    1    2    0    0  0.96148052685E+01 -0.54633425279E+02 -0.18989423282E+03  0.19783092604E+03  0.00000000000E+00 0.  1.
</event>
<event>
 7    1  0.2641580E-009  0.6895924E+02  0.7561462E-02  0.1363668E+00
         -2   -1    0    0    0  501 -0.00000000000E+00  0.00000000000E+00  0.51730034420E+02  0.51730034420E+02  0.00000000000E+00 0.  1.
          2   -1    0    0  501    0  0.00000000000E+00 -0.00000000000E+00 -0.27425888804E+03  0.27425888804E+03  0.00000000000E+00 0. -1.
         25    2    1    2    0    0 -0.49985816262E+01  0.34505559365E+02 -0.17239470239E+03  0.21580515920E+03  0.12504524733E+03 0.  0.
          5    1    3    3  502    0 -0.90464865127E+01  0.40236662265E+02 -0.19102101193E+03  0.19546694684E+03  0.41800000000E+01 0.  1.
         -5    1    3    3    0  502  0.40479048865E+01 -0.57311028997E+01  0.18626309547E+02  0.20338212354E+02  0.41800000000E+01 0.  1.
        -11    1    1    2    0    0 -0.38050455871E+02 -0.13277954670E+02  0.65055914458E+00  0.40305886659E+02  0.00000000000E+00 0.  1.
         11    1    1    2    0    0  0.43049037497E+02 -0.21227604695E+02 -0.50784710381E+02  0.69877876606E+02  0.00000000000E+00 0. -1.
</event>
<event>
 7    1  0.2641580E-009  0.1126751E+03  0.7561462E-02  0.1255695E+00
          2   -1    0    0  501    0  0.00000000000E+00  0.00000000000E+00  0.14247435073E+03  0.14247435073E+03  0.00000000000E+00 0. -1.
         -2   -1    0    0    0  501 -0.00000000000E+00 -0.00000000000E+00 -0.16455290499E+03  0.16455290499E+03  0.00000000000E+00 0.  1.
         25    2    1    2    0    0  0.63316998181E+02  0.55852166467E+00 -0.99469981296E+02  0.17190372632E+03  0.12508900727E+03 0.  0.
          5    1    3    3  502    0 -0.27462840399E+02  0.10322868984E+02 -0.69765464773E+02  0.75798823881E+02  0.41800000000E+01 0.  1.
         -5    1    3    3    0  502  0.90779838580E+02 -0.97643473198E+01 -0.29704516523E+02  0.96104902440E+02  0.41800000000E+01 0.  1.
        -11    1    1    2    0    0  0.18553055437E+02 -0.11332066700E+02 -0.30379551065E+00  0.21742214548E+02  0.00000000000E+00 0.  1.
         11    1    1    2    0    0 -0.81870053618E+02  0.10773545036E+02  0.77695222539E+02  0.11338131485E+03  0.00000000000E+00 0. -1.
</event>
<event>
 7    1  0.2641580E-009  0.1247164E+03  0.7561462E-02  0.1235513E+00
         -1   -1    0    0    0  501 -0.00000000000E+00  0.00000000000E+00  0.68567879544E+02  0.68567879544E+02  0.00000000000E+00 0.  1.
          1   -1    0    0  501    0  0.00000000000E+00 -0.00000000000E+00 -0.33373814775E+03  0.33373814775E+03  0.00000000000E+00 0. -1.
         25    2    1    2    0    0  0.10369288074E+03 -0.14807086025E+02 -0.17781078533E+03  0.24130130625E+03  0.12505271570E+03 0.  0.
          5    1    3    3  502    0  0.82161052931E+02  0.24841171244E+02 -0.37329659902E+02  0.93693640745E+02  0.41800000000E+01 0. -1.
         -5    1    3    3    0  502  0.21531827809E+02 -0.39648257269E+02 -0.14048112543E+03  0.14760766550E+03  0.41800000000E+01 0. -1.
        -11    1    1    2    0    0 -0.28578765411E+02 -0.20516444471E+02  0.64259531580E+01  0.35762594986E+02  0.00000000000E+00 0.  1.
         11    1    1    2    0    0 -0.75114115329E+02  0.35323530496E+02 -0.93785436035E+02  0.12524212606E+03  0.00000000000E+00 0. -1.
</event>
<event>
 6    1  0.2641580E-009  0.1297772E+03  0.7561462E-02  0.1227787E+00
          4   -1    0    0  501    0  0.00000000000E+00  0.00000000000E+00  0.10637537105E+03  0.10637537105E+03  0.00000000000E+00 0. -1.
         -4   -1    0    0    0  501 -0.00000000000E+00 -0.00000000000E+00 -0.22966820547E+03  0.22966820547E+03  0.00000000000E+00 0.  1.
          5    1    1    2  502    0 -0.39529615964E+01 -0.10460969538E+03 -0.21167385042E+02  0.10688472698E+03  0.41800000000E+01 0.  1.
         -5    1    1    2    0  502 -0.49939708839E+02  0.20156269377E+02  0.40953451072E+01  0.54170969768E+02  0.41800000000E+01 0.  1.
        -11    1    1    2    0    0  0.18273974207E+02  0.38610642622E+02  0.11059912367E+02  0.44125293410E+02  0.00000000000E+00 0. -1.
         11    1    1    2    0    0  0.35618696228E+02  0.45842783377E+02 -0.11728070685E+03  0.13086258636E+03  0.00000000000E+00 0.  1.
</event>
<event>
 7    1  0.2641580E-009  0.1076474E+03  0.7561462E-02  0.1264990E+00
         -4   -1    0    0    0  501 -0.00000000000E+00  0.00000000000E+00  0.24933887507E+03  0.24933887507E+03  0.00000000000E+00 0. -1.
          4   -1    0    0  501    0  0.00000000000E+00 -0.00000000000E+00 -0.55908520015E+02  0.55908520015E+02  0.00000000000E+00 0.  1.
         25    2    1    2    0    0 -0.14110366286E+02  0.12145195371E+02  0.16657560360E+03  0.20914648375E+03  0.12509281253E+03 0.  0.
          5    1    3    3  502    0 -0.30882778296E+02  0.62574934868E+02  0.11730374829E+03  0.13655405608E+03  0.41800000000E+01 0.  1.
         -5    1    3    3    0  502  0.16772412010E+02 -0.50429739497E+02  0.49271855311E+02  0.72592427677E+02  0.41800000000E+01 0.  1.
        -11    1    1    2    0    0  0.50986858103E+02  0.53427247255E+01  0.11855728805E+02  0.52619033745E+02  0.00000000000E+00 0. -1.
         11    1    1    2    0    0 -0.36876491817E+02 -0.17487920096E+02  0.14999022655E+02  0.43481877589E+02  0.00000000000E+00 0.  1.
</event>
<event>
 7    1  0.3255365E-009  0.3536154E+03  0.7561462E-02  0.1061141E+00
         -3   -1    0    0    0  501 -0.00000000000E+00  0.00000000000E+00  0.14756635890E+03  0.14756635890E+03  0.00000000000E+00 0. -1.
          3   -1    0    0  501    0  0.00000000000E+00 -0.00000000000E+00 -0.85597155549E+03  0.85597155549E+03  0.00000000000E+00 0.  1.
         25    2    1    2    0    0  0.32938208014E+03  0.75831689816E+02 -0.37257206836E+03  0.51836384925E+03  0.12509250251E+03 0.  0.
          5    1    3    3  502    0  0.21218054085E+03  0.10443562761E+03 -0.27807001915E+03  0.36505861198E+03  0.41800000000E+01 0. -1.
         -5    1    3    3    0  502  0.11720153928E+03 -0.28603937792E+02 -0.94502049213E+02  0.15330523727E+03  0.41800000000E+01 0. -1.
        -11    1    1    2    0    0 -0.19104522428E+03  0.24087248187E+01 -0.19077663528E+03  0.26999963749E+03  0.00000000000E+00 0.  1.
         11    1    1    2    0    0 -0.13833685585E+03 -0.78240414635E+02 -0.14505649295E+03  0.21517442765E+03  0.00000000000E+00 0. -1.
</event>
<event>
 7    1  0.2641580E-009  0.1002759E+03  0.7561462E-02  0.1279717E+00
         -2   -1    0    0    0  501 -0.00000000000E+00  0.00000000000E+00  0.38100104352E+02  0.38100104352E+02  0.00000000000E+00 0. -1.
          2   -1    0    0  501    0  0.00000000000E+00 -0.00000000000E+00 -0.44778726580E+03  0.44778726580E+03  0.00000000000E+00 0.  1.
         25    2    1    2    0    0 -0.70117167070E+02  0.39518664227E+00 -0.20094015218E+03  0.24686189275E+03  0.12508907243E+03 0.  0.
          5    1    3    3  502    0 -0.92791403651E+02 -0.20836351231E+02 -0.19194484660E+03  0.21425380897E+03  0.41800000000E+01 0. -1.
         -5    1    3    3    0  502  0.22674236581E+02  0.21231537873E+02 -0.89953055864E+01  0.32608083777E+02  0.41800000000E+01 0. -1.
        -11    1    1    2    0    0  0.30089664421E+02 -0.11915140266E+02 -0.19104651654E+03  0.19376823773E+03  0.00000000000E+00 0. -1.
         11    1    1    2    0    0  0.40027502648E+02  0.11519953624E+02 -0.17700492728E+02  0.45257239670E+02  0.00000000000E+00 0.  1.
</event>
<event>
 7    1  0.2641580E-009  0.8408970E+02  0.7561462E-02  0.1317830E+00
          1   -1    0    0  501    0  0.00000000000E+00  0.00000000000E+00  0.74545031845E+03  0.74545031845E+03  0.00000000000E+00 0. -1.
         -1   -1    0    0    0  501 -0.00000000000E+00 -0.00000000000E+00 -0.17928219670E+02  0.17928219670E+02  0.00000000000E+00 0.  1.
         25    2    1    2    0    0 -0.98537532989E+01 -0.33213184866E+02  0.49999432132E+03  0.51656792162E+03  0.12509150326E+03 0.  0.
          5    1    3    3  502    0  0.28968157082E+01 -0.66007407188E+02  0.45247385504E+03  0.45729140735E+03  0.41800000000E+01 0. -1.
         -5    1    3    3    0  502 -0.12750569007E+02  0.32794222322E+02  0.47520466283E+02  0.59276514265E+02  0.41800000000E+01 0. -1.
        -11    1    1    2    0    0  0.13705581019E+02 -0.13754841012E+02  0.59964664813E+01  0.20322308249E+02  0.00000000000E+00 0.  1.
         11    1    1    2    0    0 -0.38518277199E+01  0.46968025878E+02  0.22153131098E+03  0.22648830825E+03  0.00000000000E+00 0. -1.
</event>
<event>
 7    1  0.2641580E-009  0.1092608E+03  0.7561462E-02  0.1261945E+00
         -1   -1    0    0    0  501 -0.00000000000E+00  0.00000000000E+00  0.20874943790E+02  0.20874943790E+02  0.00000000000E+00 0.  1.
          1   -1    0    0  501    0  0.00000000000E+00 -0.00000000000E+00 -0.64285535170E+03  0.64285535170E+03  0.00000000000E+00 0. -1.
         25    2    1    2    0    0 -0.19117415487E+02 -0.32426296610E+01 -0.25798310273E+03  0.28736524471E+03  0.12509001700E+03 0.  0.
          5    1    3    3  502    0 -0.66035124293E+02 -0.25279678174E+02 -0.18193040817E+03  0.19523279844E+03  0.41800000000E+01 0.  1.
         -5    1    3    3    0  502  0.46917708806E+02  0.22037048513E+02 -0.76052694559E+02  0.92132446274E+02  0.41800000000E+01 0.  1.
        -11    1    1    2    0    0  0.31068498965E+02 -0.40099140427E+02 -0.19119477474E+03  0.19780959172E+03  0.00000000000E+00 0.  1.
         11    1    1    2    0    0 -0.11951083478E+02  0.43341770088E+02 -0.17280253044E+03  0.17855545905E+03  0.00000000000E+00 0. -1.
</event>
<event>
 7    1  0.2641580E-009  0.1778867E+03  0.7561462E-02  0.1169864E+00
          1   -1    0    0  501    0  0.00000000000E+00  0.00000000000E+00  0.14265392932E+03  0.14265392932E+03  0.00000000000E+00 0. -1.
         -1   -1    0    0    0  501 -0.00000000000E+00 -0.00000000000E+00 -0.31569204563E+03  0.31569204563E+03  0.00000000000E+00 0.  1.
         25    2    1    2    0    0 -0.13509226684E+03 -0.81176531451E+02  0.13183213368E+02  0.20164491093E+03  0.12508926082E+03 0.  0.
          5    1    3    3  502    0 -0.46387232557E+02 -0.96937460746E+02 -0.11440586226E+02  0.10815269786E+03  0.41800000000E+01 0.  1.
         -5    1    3    3    0  502 -0.88705034287E+02  0.15760929295E+02  0.24623799594E+02  0.93492213079E+02  0.41800000000E+01 0.  1.
        -11    1    1    2    0    0  0.12633707991E+02  0.38506708675E+01  0.72188225228E+01  0.15051566109E+02  0.00000000000E+00 0. -1.
         11    1    1    2    0    0  0.12245855885E+03  0.77325860583E+02 -0.19344015220E+03  0.24164949790E+03  0.00000000000E+00 0.  1.
</event>
<event>
 7    1  0.2641580E-009  0.1054182E+03  0.7561462E-02  0.1269298E+00
          1   -1    0    0  501    0  0.00000000000E+00  0.00000000000E+00  0.48477064093E+02  0.48477064093E+02  0.00000000000E+00 0. -1.
         -1   -1    0    0    0  501 -0.00000000000E+00 -0.00000000000E+00 -0.40335751070E+03  0.40335751070E+03  0.00000000000E+00 0.  1.
         25    2    1    2    0    0  0.13628520454E+02  0.57975418264E+02 -0.30007292860E+03  0.33051182418E+03  0.12508963885E+03 0.  0.
          5    1    3    3  502    0 -0.21256554125E+02  0.87190347374E+02 -0.22927169077E+03  0.24624576820E+03  0.41800000000E+01 0.  1.
         -5    1    3    3    0  502  0.34885074579E+02 -0.29214929110E+02 -0.70801237838E+02  0.84266055982E+02  0.41800000000E+01 0.  1.
        -11    1    1    2    0    0 -0.24911928355E+02 -0.11432842901E+02 -0.66584109438E+02  0.72005261619E+02  0.00000000000E+00 0.  1.
         11    1    1    2    0    0  0.11283407900E+02 -0.46542575362E+02  0.11776591434E+02  0.49317488997E+02  0.00000000000E+00 0. -1.
</event>
<event>
 7    1  0.2641580E-009  0.1542746E+03  0.7561462E-02  0.1195317E+00
          2   -1    0    0  501    0  0.00000000000E+00  0.00000000000E+00  0.98622317267E+03  0.98622317267E+03  0.00000000000E+00 0.  1.
         -2   -1    0    0    0  501 -0.00000000000E+00 -0.00000000000E+00 -0.40267536579E+02  0.40267536579E+02  0.00000000000E+00 0. -1.
         25    2    1    2    0    0 -0.81810602892E+02 -0.84091870082E+02  0.18960596030E+03  0.25566076992E+03  0.12509033430E+03 0.  0.
          5    1    3    3  502    0 -0.11144670336E+03 -0.60599490978E+02  0.11219403974E+03  0.16940378080E+03  0.41800000000E+01 0. -1.
         -5    1    3    3    0  502  0.29636100467E+02 -0.23492379104E+02  0.77411920560E+02  0.86256989118E+02  0.41800000000E+01 0. -1.
        -11    1    1    2    0    0 -0.13132647585E+02  0.33525360035E+02  0.11447001320E+03  0.11999916716E+03  0.00000000000E+00 0. -1.
         11    1    1    2    0    0  0.94943250477E+02  0.50566510046E+02  0.64187966260E+03  0.65083077217E+03  0.00000000000E+00 0.  1.
</event>
<event>
 7    1  0.2851980E-009  0.1793631E+03  0.7561462E-02  0.1168421E+00
          2   -1    0    0  501    0  0.00000000000E+00  0.00000000000E+00  0.27531666507E+03  0.27531666507E+03  0.00000000000E+00 0.  1.
         -2   -1    0    0    0  501 -0.00000000000E+00 -0.00000000000E+00 -0.15768672565E+03  0.15768672565E+03  0.00000000000E+00 0. -1.
         25    2    1    2    0    0  0.15700325853E+03 -0.80943157635E+02  0.77641443844E+02  0.22995269792E+03  0.12509289157E+03 0.  0.
          5    1    3    3  502    0  0.15033535059E+03 -0.83161149655E+02  0.10500399383E+03  0.20139465129E+03  0.41800000000E+01 0. -1.
         -5    1    3    3    0  502  0.66679079354E+01  0.22179920201E+01 -0.27362549990E+02  0.28558046621E+02  0.41800000000E+01 0. -1.
        -11    1    1    2    0    0 -0.31962795329E+02  0.29468461298E+02 -0.27988510839E+02  0.51704615224E+02  0.00000000000E+00 0. -1.
         11    1    1    2    0    0 -0.12504046320E+03  0.51474696338E+02  0.67977006411E+02  0.15134607758E+03  0.00000000000E+00 0.  1.
</event>
<event>
 7    1  0.2641580E-009  0.2618805E+03  0.7561462E-02  0.1106019E+00
          2   -1    0    0  501    0  0.00000000000E+00  0.00000000000E+00  0.10654400936E+04  0.10654400936E+04  0.00000000000E+00 0. -1.
         -2   -1    0    0    0  501 -0.00000000000E+00 -0.00000000000E+00 -0.10789292215E+03  0.10789292215E+03  0.00000000000E+00 0.  1.
         25    2    1    2    0    0  0.23665769019E+03  0.77272098981E+02  0.83723637843E+03  0.88237503282E+03  0.12507240133E+03 0.  0.
          5    1    3    3  502    0  0.99170456432E+02 -0.15418278466E+02  0.19869280260E+03  0.22264052853E+03  0.41800000000E+01 0.  1.
         -5    1    3    3    0  502  0.13748723376E+03  0.92690377447E+02  0.63854357582E+03  0.65973450429E+03  0.41800000000E+01 0.  1.
        -11    1    1    2    0    0 -0.74456946500E+01  0.97519471712E+01  0.25110392672E+02  0.27947641449E+02  0.00000000000E+00 0. -1.
         11    1    1    2    0    0 -0.22921199554E+03 -0.87024046153E+02  0.95200400397E+02  0.26301034152E+03  0.00000000000E+00 0.  1.
</event>
<event>
 7    1  0.2641580E-009  0.1272031E+03  0.7561462E-02  0.1231666E+00
         -2   -1    0    0    0  501 -0.00000000000E+00  0.00000000000E+00  0.35282637985E+02  0.35282637985E+02  0.00000000000E+00 0.  1.
          2   -1    0    0  501    0  0.00000000000E+00 -0.00000000000E+00 -0.72451040821E+03  0.72451040821E+03  0.00000000000E+00 0. -1.
         25    2    1    2    0    0  0.79927775435E+02  0.19516715943E+02 -0.57022250098E+03  0.58955035112E+03  0.12508622783E+03 0.  0.
          5    1    3    3  502    0 -0.27078125228E+02 -0.21382660758E+02 -0.11673515979E+03  0.12179906805E+03  0.41800000000E+01 0. -1.
         -5    1    3    3    0  502  0.10700590066E+03  0.40899376702E+02 -0.45348734119E+03  0.46775128306E+03  0.41800000000E+01 0. -1.
        -11    1    1    2    0    0 -0.14075164977E+01 -0.26178894953E+02  0.14992280595E+01  0.26259537857E+02  0.00000000000E+00 0.  1.
         11    1    1    2    0    0 -0.78520258937E+02  0.66621790102E+01 -0.12050449731E+03  0.14398315723E+03  0.00000000000E+00 0. -1.
</event>
<event>
 7    1  0.2641580E-009  0.1013817E+03  0.7561462E-02  0.1277417E+00
          1   -1    0    0  501    0  0.00000000000E+00  0.00000000000E+00  0.50555735069E+03  0.50555735069E+03  0.00000000000E+00 0. -1.
         -1   -1    0    0    0  501 -0.00000000000E+00 -0.00000000000E+00 -0.33489029832E+02  0.33489029832E+02  0.00000000000E+00 0.  1.
         25    2    1    2    0    0 -0.22163436859E+02  0.59762627545E+02  0.32105320410E+03  0.35040770707E+03  0.12509041420E+03 0.  0.
          5    1    3    3  502    0 -0.52851710095E+02  0.77335422574E+02  0.15986659627E+03  0.18533448639E+03  0.41800000000E+01 0.  1.
         -5    1    3    3    0  502  0.30688273236E+02 -0.17572795029E+02  0.16118660783E+03  0.16507322067E+03  0.41800000000E+01 0.  1.
        -11    1    1    2    0    0  0.14004878411E+02 -0.97423353325E+00 -0.98659673026E+01  0.17158760477E+02  0.00000000000E+00 0.  1.
         11    1    1    2    0    0  0.81585584481E+01 -0.58788394011E+02  0.16088108407E+03  0.17147991298E+03  0.00000000000E+00 0. -1.
</event>
<event>
 7    1  0.2641580E-009  0.1001206E+03  0.7561462E-02  0.1280043E+00
          1   -1    0    0  501    0  0.00000000000E+00  0.00000000000E+00  0.33079052496E+03  0.33079052496E+03  0.00000000000E+00 0. -1.
         -1   -1    0    0    0  501 -0.00000000000E+00 -0.00000000000E+00 -0.39954821363E+02  0.39954821363E+02  0.00000000000E+00 0.  1.
         25    2    1    2    0    0 -0.11980320769E+02  0.31918072433E+02  0.19734131046E+03  0.23612053413E+03  0.12508805854E+03 0.  0.
          5    1    3    3  502    0 -0.47299051827E+02 -0.11266020206E+02  0.16374737699E+03  0.17086485709E+03  0.41800000000E+01 0. -1.
         -5    1    3    3    0  502  0.35318731058E+02  0.43184092639E+02  0.33593933468E+02  0.65255677044E+02  0.41800000000E+01 0. -1.
        -11    1    1    2    0    0  0.44833502981E+02 -0.41687953418E+02  0.70397652143E+02  0.93293932692E+02  0.00000000000E+00 0.  1.
         11    1    1    2    0    0 -0.32853182212E+02  0.97698809855E+01  0.23096740995E+02  0.41330879503E+02  0.00000000000E+00 0. -1.
</event>
<event>
 7    1  0.2641580E-009  0.9140139E+02  0.7561462E-02  0.1299493E+00
         -2   -1    0    0    0  501 -0.00000000000E+00  0.00000000000E+00  0.55812600577E+02  0.55812600577E+02  0.00000000000E+00 0. -1.
          2   -1    0    0  501    0  0.00000000000E+00 -0.00000000000E+00 -0.23490531354E+03  0.23490531354E+03  0.00000000000E+00 0.  1.
         25    2    1    2    0    0 -0.41482793225E+01 -0.40702280407E+01 -0.79306786618E+02  0.14823064196E+03  0.12509589056E+03 0.  0.
          5    1    3    3  502    0  0.51674842134E+02 -0.40451350170E+01 -0.76086099033E+02  0.92158663689E+02  0.41800000000E+01 0.  1.
         -5    1    3    3    0  502 -0.55823121457E+02 -0.25093023710E-01 -0.32206875847E+01  0.56071978272E+02  0.41800000000E+01 0.  1.
        -11    1    1    2    0    0  0.39318210520E+02 -0.73765279986E+00 -0.99499735255E+02  0.10698907947E+03  0.00000000000E+00 0.  1.
         11    1    1    2    0    0 -0.35169931198E+02  0.48078808406E+01 -0.28619109060E+00  0.35498192686E+02  0.00000000000E+00 0. -1.
</event>
<event>
 7    1  0.2641580E-009  0.1688043E+03  0.7561462E-02  0.1179101E+00
          1   -1    0    0  501    0  0.00000000000E+00  0.00000000000E+00  0.51270843521E+02  0.51270843521E+02  0.00000000000E+00 0. -1.
         -1   -1    0    0    0  501 -0.00000000000E+00 -0.00000000000E+00 -0.63182954223E+03  0.63182954223E+03  0.00000000000E+00 0.  1.
         25    2    1    2    0    0  0.13690679642E+03  0.12404533621E+02 -0.36764478828E+03  0.41194529372E+03  0.12505555289E+03 0.  0.
          5    1    3    3  502    0 -0.17428039570E+02  0.21092360354E+02 -0.31466958882E+02  0.41907828981E+02  0.41800000000E+01 0. -1.
         -5    1    3    3    0  502  0.15433483599E+03 -0.86878267337E+01 -0.33617782940E+03  0.37003746474E+03  0.41800000000E+01 0. -1.
        -11    1    1    2    0    0 -0.82601795715E+02 -0.42831663161E+02 -0.73838311629E+02  0.11878427627E+03  0.00000000000E+00 0. -1.
         11    1    1    2    0    0 -0.54305000708E+02  0.30427129540E+02 -0.13907559880E+03  0.15237081576E+03  0.00000000000E+00 0.  1.
</event>
<event>
 7    1  0.4221443E-009  0.9500327E+02  0.7561462E-02  0.1291169E+00
          1   -1    0    0  501    0  0.00000000000E+00  0.00000000000E+00  0.14184118441E+03  0.14184118441E+03  0.00000000000E+00 0. -1.
         -1   -1    0    0    0  501 -0.00000000000E+00 -0.00000000000E+00 -0.10427140980E+03  0.10427140980E+03  0.00000000000E+00 0.  1.
         25    2    1    2    0    0  0.65625375060E+01  0.43064524615E+02  0.56505298955E+02  0.14400426097E+03  0.12508700248E+03 0.  0.
          5    1    3    3  502    0  0.52608856283E+02  0.62815156153E+02  0.38183478074E+02  0.90492463773E+02  0.41800000000E+01 0.  1.
         -5    1    3    3    0  502 -0.46046318777E+02 -0.19750631538E+02  0.18321820880E+02  0.53511797198E+02  0.41800000000E+01 0.  1.
        -11    1    1    2    0    0 -0.21654638591E+02 -0.33265313347E+02 -0.51429063786E+02  0.64965014019E+02  0.00000000000E+00 0.  1.
         11    1    1    2    0    0  0.15092101085E+02 -0.97992112683E+01  0.32493539445E+02  0.37143319215E+02  0.00000000000E+00 0. -1.
</event>
<event>
 7    1  0.2641580E-009  0.1584808E+03  0.7561462E-02  0.1190423E+00
          2   -1    0    0  501    0  0.00000000000E+00  0.00000000000E+00  0.83469501070E+03  0.83469501070E+03  0.00000000000E+00 0.  1.
         -2   -1    0    0    0  501 -0.00000000000E+00 -0.00000000000E+00 -0.39897894463E+02  0.39897894463E+02  0.00000000000E+00 0. -1.
         25    2    1    2    0    0  0.34193259758E+02 -0.14097296436E+03  0.36077499378E+03  0.40847004619E+03  0.12508647730E+03 0.  0.
          5    1    3    3  502    0  0.81677975341E+01 -0.83039302965E+02  0.64802415683E+02  0.10573109397E+03  0.41800000000E+01 0. -1.
         -5    1    3    3    0  502  0.26025462224E+02 -0.57933661392E+02  0.29597257809E+03  0.30273895222E+03  0.41800000000E+01 0. -1.
        -11    1    1    2    0    0 -0.43718381892E+01  0.13985805269E+03  0.36635168136E+03  0.39216443274E+03  0.00000000000E+00 0.  1.
         11    1    1    2    0    0 -0.29821421569E+02  0.11149116636E+01  0.67670441101E+02  0.73958426235E+02  0.00000000000E+00 0. -1.
</event>
<event>
 7    1  0.2641580E-009  0.8422152E+02  0.7561462E-02  0.1317481E+00
         -2   -1    0    0    0  501 -0.00000000000E+00  0.00000000000E+00  0.32878233584E+02  0.32878233584E+02  0.00000000000E+00 0.  1.
          2   -1    0    0  501    0  0.00000000000E+00 -0.00000000000E+00 -0.54637682724E+03  0.54637682724E+03  0.00000000000E+00 0. -1.
         25    2    1    2    0    0 -0.23726585329E+02 -0.17991394843E+02 -0.44223759311E+03  0.46055194862E+03  0.12508943793E+03 0.  0.
          5    1    3    3  502    0  0.10433305579E+02 -0.61221643521E+02 -0.32549207203E+03  0.33139026065E+03  0.41800000000E+01 0. -1.
         -5    1    3    3    0  502 -0.34159890908E+02  0.43230248679E+02 -0.11674552108E+03  0.12916168797E+03  0.41800000000E+01 0. -1.
        -11    1    1    2    0    0 -0.82657412802E+01  0.17036325259E+02 -0.82603579040E+02  0.84746151107E+02  0.00000000000E+00 0. -1.
         11    1    1    2    0    0  0.31992326610E+02  0.95506958331E+00  0.11342578492E+02  0.33956961093E+02  0.00000000000E+00 0.  1.
</event>
<event>
 7    1  0.2641580E-009  0.1057129E+03  0.7561462E-02  0.1268721E+00
         -3   -1    0    0    0  501 -0.00000000000E+00  0.00000000000E+00  0.20566311600E+03  0.20566311600E+03  0.00000000000E+00 0.  1.
          3   -1    0    0  501    0  0.00000000000E+00 -0.00000000000E+00 -0.95232138229E+02  0.95232138229E+02  0.00000000000E+00 0. -1.
         25    2    1    2    0    0 -0.84692688712E+02 -0.83629843819E+01  0.35417392610E+02  0.15539550788E+03  0.12510228271E+03 0.  0.
          5    1    3    3  502    0 -0.50829087934E+02  0.38225847438E+02 -0.28008938577E+02  0.69618852568E+02  0.41800000000E+01 0.  1.
         -5    1    3    3    0  502 -0.33863600778E+02 -0.46588831820E+02  0.63426331187E+02  0.85776655308E+02  0.41800000000E+01 0.  1.
        -11    1    1    2    0    0  0.50935768190E+02 -0.94022571455E+01 -0.96059491935E+01  0.52679494877E+02  0.00000000000E+00 0. -1.
         11    1    1    2    0    0  0.33756920522E+02  0.17765241527E+02  0.84619534360E+02  0.92820251480E+02  0.00000000000E+00 0.  1.
</event>
<event>
 7    1  0.2641580E-009  0.1572852E+03  0.7561462E-02  0.1191796E+00
          1   -1    0    0  501    0  0.00000000000E+00  0.00000000000E+00  0.11827258078E+03  0.11827258078E+03  0.00000000000E+00 0. -1.
         -1   -1    0    0    0  501 -0.00000000000E+00 -0.00000000000E+00 -0.41418393900E+03  0.41418393900E+03  0.00000000000E+00 0.  1.
         25    2    1    2    0    0 -0.10195447554E+03  0.65929837071E+02  0.26314698494E+02  0.17629872815E+03  0.12508924691E+03 0.  0.
          5    1    3    3  502    0  0.39091090094E+01  0.58687958643E+02  0.36929899124E+02  0.69576199035E+02  0.41800000000E+01 0. -1.
         -5    1    3    3    0  502 -0.10586358455E+03  0.72418784282E+01 -0.10615200630E+02  0.10672252912E+03  0.41800000000E+01 0. -1.
        -11    1    1    2    0    0  0.63638305465E+02 -0.85342531661E+02 -0.19941687346E+03  0.22605369064E+03  0.00000000000E+00 0. -1.
         11    1    1    2    0    0  0.38316170074E+02  0.19412694590E+02 -0.12280918326E+03  0.13010410099E+03  0.00000000000E+00 0.  1.
</event>
<event>
 7    1  0.2641580E-009  0.1811392E+03  0.7561462E-02  0.1166705E+00
          1   -1    0    0  501    0  0.00000000000E+00  0.00000000000E+00  0.96324039905E+03  0.96324039905E+03  0.00000000000E+00 0. -1.
         -1   -1    0    0    0  501 -0.00000000000E+00 -0.00000000000E+00 -0.35408521595E+02  0.35408521595E+02  0.00000000000E+00 0.  1.
         25    2    1    2    0    0 -0.79848702017E+02  0.12127405288E+03  0.57581093247E+03  0.60686808059E+03  0.12508967252E+03 0.  0.
          5    1    3    3  502    0 -0.55132439641E+02  0.14549888975E+03  0.49396172607E+03  0.51790459743E+03  0.41800000000E+01 0.  1.
         -5    1    3    3    0  502 -0.24716262376E+02 -0.24224836872E+02  0.81849206398E+02  0.88963483156E+02  0.41800000000E+01 0.  1.
        -11    1    1    2    0    0 -0.51952780993E+01 -0.74556686040E+02  0.14382989900E+03  0.16208864918E+03  0.00000000000E+00 0. -1.
         11    1    1    2    0    0  0.85043980116E+02 -0.46717366843E+02  0.20819104599E+03  0.22969219088E+03  0.00000000000E+00 0.  1.
</event>
<event>
 7    1  0.2641580E-009  0.2536725E+03  0.7561462E-02  0.1111006E+00
          1   -1    0    0  501    0  0.00000000000E+00  0.00000000000E+00  0.12989698931E+04  0.12989698931E+04  0.00000000000E+00 0. -1.
         -1   -1    0    0    0  501 -0.00000000000E+00 -0.00000000000E+00 -0.54911734452E+02  0.54911734452E+02  0.00000000000E+00 0.  1.
         25    2    1    2    0    0  0.23758314005E+03  0.17897058926E+02  0.49672228782E+03  0.56493495975E+03  0.12510964942E+03 0.  0.
          5    1    3    3  502    0  0.14177830657E+03 -0.50618097975E+02  0.29795478664E+03  0.33385297263E+03  0.41800000000E+01 0. -1.
         -5    1    3    3    0  502  0.95804833484E+02  0.68515156901E+02  0.19876750118E+03  0.23108198712E+03  0.41800000000E+01 0. -1.
        -11    1    1    2    0    0 -0.16302700494E+03 -0.20334565579E+02  0.61972671124E+03  0.64113375790E+03  0.00000000000E+00 0.  1.
         11    1    1    2    0    0 -0.74556135110E+02  0.24375066523E+01  0.12760915957E+03  0.14781290988E+03  0.00000000000E+00 0. -1.
</event>
<event>
 7    1  0.2641580E-009  0.2035917E+03  0.7561462E-02  0.1146744E+00
          2   -1    0    0  501    0  0.00000000000E+00  0.00000000000E+00  0.37778748067E+03  0.37778748067E+03  0.00000000000E+00 0. -1.
         -2   -1    0    0    0  501 -0.00000000000E+00 -0.00000000000E+00 -0.13332586450E+03  0.13332586450E+03  0.00000000000E+00 0.  1.
         25    2    1    2    0    0  0.17627880175E+03 -0.70657419281E+02  0.18179027505E+03  0.29113911853E+03  0.12509034890E+03 0.  0.
          5    1    3    3  502    0  0.92437567011E+02  0.16694767597E+02  0.12739994156E+03  0.15834025569E+03  0.41800000000E+01 0.  1.
         -5    1    3    3    0  502  0.83841234743E+02 -0.87352186878E+02  0.54390333488E+02  0.13279886284E+03  0.41800000000E+01 0.  1.
        -11    1    1    2    0    0 -0.53062735874E+02  0.35610463736E+02 -0.20649617423E+02  0.67157767724E+02  0.00000000000E+00 0.  1.
         11    1    1    2    0    0 -0.12321606588E+03  0.35046955545E+02  0.83320958537E+02  0.15281645892E+03  0.00000000000E+00 0. -1.
</event>
<event>
 7    1  0.2641580E-009  0.2092243E+03  0.7561462E-02  0.1142182E+00
          3   -1    0    0  501    0  0.00000000000E+00  0.00000000000E+00  0.22488552967E+03  0.22488552967E+03  0.00000000000E+00 0. -1.
         -3   -1    0    0    0  501 -0.00000000000E+00 -0.00000000000E+00 -0.21126555356E+03  0.21126555356E+03  0.00000000000E+00 0.  1.
         25    2    1    2    0    0  0.14871125160E+02  0.18266400344E+03  0.56083053273E+02  0.22886791317E+03  0.12509166358E+03 0.  0.
          5    1    3    3  502    0 -0.50478030537E+02  0.67504557843E+02 -0.15276805246E+01  0.84407956403E+02  0.41800000000E+01 0.  1.
         -5    1    3    3    0  502  0.65349155696E+02  0.11515944559E+03  0.57610733798E+02  0.14445995676E+03  0.41800000000E+01 0.  1.
        -11    1    1    2    0    0 -0.49124727819E+02 -0.12761108207E+03 -0.17720694690E+02  0.13788346591E+03  0.00000000000E+00 0. -1.
         11    1    1    2    0    0  0.34253602660E+02 -0.55052921368E+02 -0.24742382480E+02  0.69399704157E+02  0.00000000000E+00 0.  1.
</event>
<event>
 7    1  0.2641580E-009  0.1176732E+03  0.7561462E-02  0.1246986E+00
         -4   -1    0    0    0  501 -0.00000000000E+00  0.00000000000E+00  0.11228420177E+03  0.11228420177E+03  0.00000000000E+00 0.  1.
          4   -1    0    0  501    0  0.00000000000E+00 -0.00000000000E+00 -0.17089067110E+03  0.17089067110E+03  0.00000000000E+00 0. -1.
         25    2    1    2    0    0 -0.47737238518E+02 -0.67993698382E+02 -0.90915905385E+01  0.15043857402E+03  0.12508845100E+03 0.  0.
          5    1    3    3  502    0  0.62044830364E+01 -0.87927104190E+02  0.11971435385E+02  0.89053124179E+02  0.41800000000E+01 0. -1.
         -5    1    3    3    0  502 -0.53941721554E+02  0.19933405808E+02 -0.21063025923E+02  0.61385449843E+02  0.41800000000E+01 0. -1.
        -11    1    1    2    0    0 -0.14448227447E+01  0.22185230248E+02 -0.60661745225E+02  0.64607424401E+02  0.00000000000E+00 0. -1.
         11    1    1    2    0    0  0.49182061263E+02  0.45808468134E+02  0.11146866437E+02  0.68128874453E+02  0.00000000000E+00 0.  1.
</event>
<event>
 7    1  0.2641580E-009  0.2072072E+03  0.7561462E-02  0.1143797E+00
         -2   -1    0    0    0  501 -0.00000000000E+00  0.00000000000E+00  0.27126615741E+02  0.27126615741E+02  0.00000000000E+00 0.  1.
          2   -1    0    0  501    0  0.00000000000E+00 -0.00000000000E+00 -0.18951496436E+04  0.18951496436E+04  0.00000000000E+00 0. -1.
         25    2    1    2    0    0  0.17464828396E+03 -0.91176556477E+02 -0.11299580160E+04  0.11538060463E+04  0.12509231399E+03 0.  0.
          5    1    3    3  502    0  0.55351284282E+02  0.17344039109E+01 -0.60342227367E+03  0.60597251224E+03  0.41800000000E+01 0.  1.
         -5    1    3    3    0  502  0.11929699968E+03 -0.92910960388E+02 -0.52653574230E+03  0.54783353404E+03  0.41800000000E+01 0.  1.
        -11    1    1    2    0    0 -0.85923121939E+02  0.81383855518E+02 -0.32518787207E+03  0.34605384980E+03  0.00000000000E+00 0.  1.
         11    1    1    2    0    0 -0.88725162022E+02  0.97927009596E+01 -0.41287713984E+03  0.42241636329E+03  0.00000000000E+00 0. -1.
</event>
<event>
 7    1  0.2641580E-009  0.1336908E+03  0.7561462E-02  0.1222080E+00
          1   -1    0    0  501    0  0.00000000000E+00  0.00000000000E+00  0.56176785125E+02  0.56176785125E+02  0.00000000000E+00 0. -1.
         -1   -1    0    0    0  501 -0.00000000000E+00 -0.00000000000E+00 -0.34501036694E+03  0.34501036694E+03  0.00000000000E+00 0.  1.
         25    2    1    2    0    0  0.40292635980E+02  0.76543483092E+02 -0.15553672636E+03  0.21753364229E+03  0.12508721343E+03 0.  0.
          5    1    3    3  502    0  0.64057695441E+02 -0.10016502854E+01 -0.10110580999E+03  0.11976747832E+03  0.41800000000E+01 0.  1.
         -5    1    3    3    0  502 -0.23765059461E+02  0.77545133378E+02 -0.54430916372E+02  0.97766163977E+02  0.41800000000E+01 0.  1.
        -11    1    1    2    0    0  0.78916018781E+01 -0.73246460876E+02 -0.56122236232E+02  0.92612238990E+02  0.00000000000E+00 0.  1.
         11    1    1    2    0    0 -0.48184237858E+02 -0.32970222165E+01 -0.77174619222E+02  0.91041270781E+02  0.00000000000E+00 0. -1.
</event>
<event>
 7    1  0.2641580E-009  0.1223177E+03  0.7561462E-02  0.1239322E+00
         -1   -1    0    0    0  501 -0.00000000000E+00  0.00000000000E+00  0.66701962178E+02  0.66701962178E+02  0.00000000000E+00 0.  1.
          1   -1    0    0  501    0  0.00000000000E+00 -0.00000000000E+00 -0.28548804475E+03  0.28548804475E+03  0.00000000000E+00 0. -1.
         25    2    1    2    0    0 -0.12462211818E+02 -0.90806571173E+02 -0.16882861200E+03  0.22924212565E+03  0.12509081441E+03 0.  0.
          5    1    3    3  502    0 -0.19604526848E+02  0.25221223921E+02 -0.12896252290E+02  0.34702065243E+02  0.41800000000E+01 0.  1.
         -5    1    3    3    0  502  0.71423150293E+01 -0.11602779509E+03 -0.15593235970E+03  0.19454006040E+03  0.41800000000E+01 0.  1.
        -11    1    1    2    0    0  0.21339912491E+02  0.74890347827E+02 -0.63306132799E+02  0.10035747363E+03  0.00000000000E+00 0. -1.
         11    1    1    2    0    0 -0.88777006724E+01  0.15916223345E+02  0.13348662223E+02  0.22590407654E+02  0.00000000000E+00 0.  1.
</event>
<event>
 7    1  0.2975197E-009  0.1047578E+03  0.7561462E-02  0.1270598E+00
          1   -1    0    0  501    0  0.00000000000E+00  0.00000000000E+00  0.41445707278E+03  0.41445707278E+03  0.00000000000E+00 0. -1.
         -1   -1    0    0    0  501 -0.00000000000E+00 -0.00000000000E+00 -0.29790201746E+02  0.29790201746E+02  0.00000000000E+00 0.  1.
         25    2    1    2    0    0  0.24352456607E+02 -0.62392957513E+00  0.20514289981E+03  0.24150401221E+03  0.12508855720E+03 0.  0.
          5    1    3    3  502    0  0.72630341038E+02 -0.80463780990E+01  0.15481586817E+03  0.17124641916E+03  0.41800000000E+01 0. -1.
         -5    1    3    3    0  502 -0.48277884431E+02  0.74224485238E+01  0.50327031639E+02  0.70257593047E+02  0.41800000000E+01 0. -1.
        -11    1    1    2    0    0  0.36343428254E+01 -0.38789004943E+02  0.11941099075E+03  0.12560565300E+03  0.00000000000E+00 0. -1.
         11    1    1    2    0    0 -0.27986799432E+02  0.39412934519E+02  0.60112980475E+02  0.77137609319E+02  0.00000000000E+00 0.  1.
</event>
<event>
 7    1  0.2641580E-009  0.1218962E+03  0.7561462E-02  0.1240001E+00
          3   -1    0    0  501    0  0.00000000000E+00  0.00000000000E+00  0.68307607574E+02  0.68307607574E+02  0.00000000000E+00 0. -1.
         -3   -1    0    0    0  501 -0.00000000000E+00 -0.00000000000E+00 -0.23265057673E+03  0.23265057673E+03  0.00000000000E+00 0.  1.
         25    2    1    2    0    0 -0.20984508341E+02 -0.61897355073E+02 -0.88134245207E+02  0.16639561261E+03  0.12509285575E+03 0.  0.
          5    1    3    3  502    0  0.56365505013E+00  0.36226196459E+02 -0.68676889900E+01  0.37111892555E+02  0.41800000000E+01 0.  1.
         -5    1    3    3    0  502 -0.21548163391E+02 -0.98123551533E+02 -0.81266556217E+02  0.12928372005E+03  0.41800000000E+01 0.  1.
        -11    1    1    2    0    0 -0.32335912671E+02  0.14525837009E+02 -0.43447961896E+02  0.56074384365E+02  0.00000000000E+00 0. -1.
         11    1    1    2    0    0  0.53320421012E+02  0.47371518065E+02 -0.32760762055E+02  0.78488187334E+02  0.00000000000E+00 0.  1.
</event>
<event>
 7    1  0.2641580E-009  0.1196612E+03  0.7561462E-02  0.1243657E+00
         -2   -1    0    0    0  501 -0.00000000000E+00  0.00000000000E+00  0.22497508689E+03  0.22497508689E+03  0.00000000000E+00 0.  1.
          2   -1    0    0  501    0  0.00000000000E+00 -0.00000000000E+00 -0.10861043887E+03  0.10861043887E+03  0.00000000000E+00 0. -1.
         25    2    1    2    0    0  0.47750022143E+02 -0.51019145343E+02 -0.31721526138E+02  0.14675452931E+03  0.12509044267E+03 0.  0.
          5    1    3    3  502    0  0.71792220955E+02  0.76893507733E+01 -0.39986051336E+02  0.82641429116E+02  0.41800000000E+01 0. -1.
         -5    1    3    3    0  502 -0.24042198812E+02 -0.58708496117E+02  0.82645251983E+01  0.64113100196E+02  0.41800000000E+01 0. -1.
        -11    1    1    2    0    0 -0.64719266703E+02  0.56161145498E+02  0.14557579410E+03  0.16892296935E+03  0.00000000000E+00 0.  1.
         11    1    1    2    0    0  0.16969244560E+02 -0.51420001542E+01  0.25103800518E+01  0.17908027098E+02  0.00000000000E+00 0. -1.
</event>
<event>
 7    1  0.2641580E-009  0.1738903E+03  0.7561462E-02  0.1173851E+00
          1   -1    0    0  501    0  0.00000000000E+00  0.00000000000E+00  0.48792445063E+02  0.48792445063E+02  0.00000000000E+00 0. -1.
         -1   -1    0    0    0  501 -0.00000000000E+00 -0.00000000000E+00 -0.75159163070E+03  0.75159163070E+03  0.00000000000E+00 0.  1.
         25    2    1    2    0    0  0.92839451497E+02 -0.12440289016E+03 -0.30540770008E+03  0.36471396590E+03  0.12508865185E+03 0.  0.
          5    1    3    3  502    0  0.19896526910E+02  0.10859351396E+02 -0.12758495111E+03  0.12965025818E+03  0.41800000000E+01 0. -1.
         -5    1    3    3    0  502  0.72942924587E+02 -0.13526224155E+03 -0.17782274898E+03  0.23506370773E+03  0.41800000000E+01 0. -1.
        -11    1    1    2    0    0 -0.41667800379E+02  0.11031523584E+03 -0.32627894220E+03  0.34693458313E+03  0.00000000000E+00 0.  1.
         11    1    1    2    0    0 -0.51171651118E+02  0.14087654311E+02 -0.71112543351E+02  0.88735526730E+02  0.00000000000E+00 0. -1.
</event>
<event>
 7    1  0.2641580E-009  0.1143012E+03  0.7561462E-02  0.1252806E+00
         -4   -1    0    0    0  501 -0.00000000000E+00  0.00000000000E+00  0.18099166214E+03  0.18099166214E+03  0.00000000000E+00 0.  1.
          4   -1    0    0  501    0  0.00000000000E+00 -0.00000000000E+00 -0.92510988592E+02  0.92510988592E+02  0.00000000000E+00 0. -1.
         25    2    1    2    0    0 -0.37961916609E+02  0.58178223801E+02  0.62906806271E+02  0.15630564227E+03  0.12509346383E+03 0.  0.
          5    1    3    3  502    0 -0.72927106370E+02  0.26136840862E+01  0.51809180902E+02  0.89592733041E+02  0.41800000000E+01 0.  1.
         -5    1    3    3    0  502  0.34965189762E+02  0.55564539715E+02  0.11097625369E+02  0.66712909228E+02  0.41800000000E+01 0.  1.
        -11    1    1    2    0    0  0.26752758438E+02  0.35504202194E+01  0.44169017137E+02  0.51761159595E+02  0.00000000000E+00 0.  1.
         11    1    1    2    0    0  0.11209158171E+02 -0.61728644021E+02 -0.18595149856E+02  0.65435848873E+02  0.00000000000E+00 0. -1.
</event>
<event>
 7    1  0.2641580E-009  0.1041078E+03  0.7561462E-02  0.1271887E+00
          2   -1    0    0  501    0  0.00000000000E+00  0.00000000000E+00  0.19280498619E+03  0.19280498619E+03  0.00000000000E+00 0. -1.
         -2   -1    0    0    0  501 -0.00000000000E+00 -0.00000000000E+00 -0.94912736142E+02  0.94912736142E+02  0.00000000000E+00 0.  1.
         25    2    1    2    0    0 -0.60456262929E+02 -0.50075993678E+02  0.22772254713E+02  0.14942682064E+03  0.12508890548E+03 0.  0.
          5    1    3    3  502    0 -0.79951428952E+02 -0.42861166545E+02 -0.27484848003E+02  0.94879923370E+02  0.41800000000E+01 0. -1.
         -5    1    3    3    0  502  0.19495166023E+02 -0.72148271331E+01  0.50257102716E+02  0.54546897274E+02  0.41800000000E+01 0. -1.
        -11    1    1    2    0    0  0.66469359445E+02  0.25981359057E+02  0.85503836471E+02  0.11137375281E+03  0.00000000000E+00 0. -1.
         11    1    1    2    0    0 -0.60130965164E+01  0.24094634621E+02 -0.10383841133E+02  0.26917148881E+02  0.00000000000E+00 0.  1.
</event>
<event>
 7    1  0.2975285E-009  0.1692559E+03  0.7561462E-02  0.1178626E+00
          3   -1    0    0  501    0  0.00000000000E+00  0.00000000000E+00  0.28850841998E+03  0.28850841998E+03  0.00000000000E+00 0. -1.
         -3   -1    0    0    0  501 -0.00000000000E+00 -0.00000000000E+00 -0.11215833446E+03  0.11215833446E+03  0.00000000000E+00 0.  1.
         25    2    1    2    0    0 -0.13166039223E+03 -0.10718350652E+02  0.31815739401E+02  0.18468891288E+03  0.12509361032E+03 0.  0.
          5    1    3    3  502    0 -0.13066060787E+03  0.34313621939E+02  0.13296365289E+02  0.13580826495E+03  0.41800000000E+01 0.  1.
         -5    1    3    3    0  502 -0.99978435950E+00 -0.45031972591E+02  0.18519374112E+02  0.48880647926E+02  0.41800000000E+01 0.  1.
        -11    1    1    2    0    0  0.81724678431E+02 -0.36398595751E+02  0.63171940980E+02  0.10951929038E+03  0.00000000000E+00 0.  1.
         11    1    1    2    0    0  0.49935713798E+02  0.47116946403E+02  0.81362405140E+02  0.10645855119E+03  0.00000000000E+00 0. -1.
</event>
<event>
 7    1  0.2641580E-009  0.9706179E+02  0.7561462E-02  0.1286599E+00
         -1   -1    0    0    0  501 -0.00000000000E+00  0.00000000000E+00  0.72986680271E+02  0.72986680271E+02  0.00000000000E+00 0.  1.
          1   -1    0    0  501    0  0.00000000000E+00 -0.00000000000E+00 -0.20662796663E+03  0.20662796663E+03  0.00000000000E+00 0. -1.
         25    2    1    2    0    0  0.54783819750E+02 -0.11567566416E+02 -0.60401752268E+02  0.14976565295E+03  0.12508518549E+03 0.  0.
          5    1    3    3  502    0  0.23707193680E+02  0.33952532713E+02 -0.80765583133E+02  0.90858996960E+02  0.41800000000E+01 0. -1.
         -5    1    3    3    0  502  0.31076626070E+02 -0.45520099130E+02  0.20363830865E+02  0.58906655992E+02  0.41800000000E+01 0. -1.
        -11    1    1    2    0    0  0.36545242282E+01 -0.26976684752E+02  0.17280105702E+01  0.27277886430E+02  0.00000000000E+00 0.  1.
         11    1    1    2    0    0 -0.58438343978E+02  0.38544251168E+02 -0.74967544663E+02  0.10257110752E+03  0.00000000000E+00 0. -1.
</event>
<event>
 7    1  0.2641580E-009  0.1036334E+03  0.7561462E-02  0.1272836E+00
          2   -1    0    0  501    0  0.00000000000E+00  0.00000000000E+00  0.10200879332E+04  0.10200879332E+04  0.00000000000E+00 0. -1.
         -2   -1    0    0    0  501 -0.00000000000E+00 -0.00000000000E+00 -0.14861616334E+02  0.14861616334E+02  0.00000000000E+00 0.  1.
         25    2    1    2    0    0 -0.36148516266E+02 -0.20274956043E+02  0.63702915046E+03  0.65051826650E+03  0.12510030951E+03 0.  0.
          5    1    3    3  502    0 -0.70698919659E+02  0.15325131385E+02  0.24966190689E+03  0.25996487656E+03  0.41800000000E+01 0. -1.
         -5    1    3    3    0  502  0.34550403393E+02 -0.35600087427E+02  0.38736724357E+03  0.39055338994E+03  0.41800000000E+01 0. -1.
        -11    1    1    2    0    0  0.37133422014E+02  0.46089212283E+02  0.34393726531E+03  0.34899276352E+03  0.00000000000E+00 0. -1.
         11    1    1    2    0    0 -0.98490574856E+00 -0.25814256240E+02  0.24259901093E+02  0.35438519518E+02  0.00000000000E+00 0.  1.
</event>
<event>
 7    1  0.2641580E-009  0.1238568E+03  0.7561462E-02  0.1236867E+00
         -2   -1    0    0    0  501 -0.00000000000E+00  0.00000000000E+00  0.85124943684E+02  0.85124943684E+02  0.00000000000E+00 0.  1.
          2   -1    0    0  501    0  0.00000000000E+00 -0.00000000000E+00 -0.22324953774E+03  0.22324953774E+03  0.00000000000E+00 0. -1.
         25    2    1    2    0    0  0.53359431137E+02  0.65363189699E+02 -0.10109064768E+03  0.18162404490E+03  0.12509356171E+03 0.  0.
          5    1    3    3  502    0 -0.30065539166E+02  0.57791748683E+02 -0.58035020276E+02  0.87346201060E+02  0.41800000000E+01 0.  1.
         -5    1    3    3    0  502  0.83424970303E+02  0.75714410157E+01 -0.43055627401E+02  0.94277843844E+02  0.41800000000E+01 0.  1.
        -11    1    1    2    0    0 -0.10848156949E+02 -0.53272242322E+02 -0.56542654449E+02  0.78439059679E+02  0.00000000000E+00 0.  1.
         11    1    1    2    0    0 -0.42511274189E+02 -0.12090947377E+02  0.19508708070E+02  0.48311376840E+02  0.00000000000E+00 0. -1.
</event>
<event>
 7    1  0.2641580E-009  0.1389494E+03  0.7561462E-02  0.1214750E+00
         -2   -1    0    0    0  501 -0.00000000000E+00  0.00000000000E+00  0.16591099870E+03  0.16591099870E+03  0.00000000000E+00 0.  1.
          2   -1    0    0  501    0  0.00000000000E+00 -0.00000000000E+00 -0.14157199440E+03  0.14157199440E+03  0.00000000000E+00 0. -1.
         25    2    1    2    0    0 -0.32909322332E+02  0.10322523880E+03  0.55911183444E+01  0.16558187693E+03  0.12509046302E+03 0.  0.
          5    1    3    3  502    0 -0.59305546262E+02  0.45971504860E+02 -0.42354091495E+02  0.86266265381E+02  0.41800000000E+01 0.  1.
         -5    1    3    3    0  502  0.26396223929E+02  0.57253733944E+02  0.47945209839E+02  0.79315611545E+02  0.41800000000E+01 0.  1.
        -11    1    1    2    0    0  0.59959654779E+02 -0.43751217845E+02  0.11407822282E+01  0.74233622088E+02  0.00000000000E+00 0.  1.
         11    1    1    2    0    0 -0.27050332447E+02 -0.59474020958E+02  0.17607103719E+02  0.67667494086E+02  0.00000000000E+00 0. -1.
</event>
<event>
 7    1  0.2641580E-009  0.1017449E+03  0.7561462E-02  0.1276669E+00
          2   -1    0    0  501    0  0.00000000000E+00  0.00000000000E+00  0.20248761047E+03  0.20248761047E+03  0.00000000000E+00 0. -1.
         -2   -1    0    0    0  501 -0.00000000000E+00 -0.00000000000E+00 -0.79525203980E+02  0.79525203980E+02  0.00000000000E+00 0.  1.
         25    2    1    2    0    0  0.53019337519E+02  0.20224467899E+02  0.30815956442E+02  0.14077356219E+03  0.12508994119E+03 0.  0.
          5    1    3    3  502    0  0.60157365943E+02 -0.34474195819E+02  0.46116375965E+02  0.83376084021E+02  0.41800000000E+01 0.  1.
         -5    1    3    3    0  502 -0.71380284243E+01  0.54698663718E+02 -0.15300419523E+02  0.57397478167E+02  0.41800000000E+01 0.  1.
        -11    1    1    2    0    0 -0.44197270011E+02  0.11591206007E+02  0.97609088478E+02  0.10777424965E+03  0.00000000000E+00 0. -1.
         11    1    1    2    0    0 -0.88220675074E+01 -0.31815673907E+02 -0.54626384329E+01  0.33465002613E+02  0.00000000000E+00 0.  1.
</event>
<event>
 7    1  0.2641580E-009  0.1004524E+03  0.7561462E-02  0.1279348E+00
          2   -1    0    0  501    0  0.00000000000E+00  0.00000000000E+00  0.15427854581E+04  0.15427854581E+04  0.00000000000E+00 0.  1.
         -2   -1    0    0    0  501 -0.00000000000E+00 -0.00000000000E+00 -0.14492042401E+02  0.14492042401E+02  0.00000000000E+00 0. -1.
         25    2    1    2    0    0 -0.57618562579E+02  0.68428733358E+02  0.10880692143E+04  0.10988838697E+04  0.12509497854E+03 0.  0.
          5    1    3    3  502    0 -0.54007411574E+02  0.68555413109E+02  0.34823004444E+03  0.35902406803E+03  0.41800000000E+01 0. -1.
         -5    1    3    3    0  502 -0.36111510043E+01 -0.12667975123E+00  0.73983916983E+03  0.73985980164E+03  0.41800000000E+01 0. -1.
        -11    1    1    2    0    0  0.48045412415E+02 -0.79796515845E+02  0.43089294510E+03  0.44084529682E+03  0.00000000000E+00 0.  1.
         11    1    1    2    0    0  0.95731501635E+01  0.11367782487E+02  0.93312563688E+01  0.17548334056E+02  0.00000000000E+00 0. -1.
</event>
<event>
 7    1  0.2641580E-009  0.9190645E+02  0.7561462E-02  0.1298300E+00
          2   -1    0    0  501    0  0.00000000000E+00  0.00000000000E+00  0.85951862395E+02  0.85951862395E+02  0.00000000000E+00 0. -1.
         -2   -1    0    0    0  501 -0.00000000000E+00 -0.00000000000E+00 -0.15828716931E+03  0.15828716931E+03  0.00000000000E+00 0.  1.
         25    2    1    2    0    0  0.36346937902E+02 -0.21704411962E+02 -0.24215004209E+02  0.13426140664E+03  0.12509027736E+03 0.  0.
          5    1    3    3  502    0  0.36921804814E+02  0.28844894872E+02  0.33254983786E+02  0.57607412522E+02  0.41800000000E+01 0.  1.
         -5    1    3    3    0  502 -0.57486691211E+00 -0.50549306834E+02 -0.57469987994E+02  0.76653994113E+02  0.41800000000E+01 0.  1.
        -11    1    1    2    0    0  0.12879231512E+02  0.33102506799E+02  0.59031543032E+01  0.36006913106E+02  0.00000000000E+00 0.  1.
         11    1    1    2    0    0 -0.49226169414E+02 -0.11398094837E+02 -0.54023457010E+02  0.73970711963E+02  0.00000000000E+00 0. -1.
</event>
<event>
 7    1  0.2641580E-009  0.8380584E+02  0.7561462E-02  0.1318585E+00
         -2   -1    0    0    0  501 -0.00000000000E+00  0.00000000000E+00  0.17433854785E+03  0.17433854785E+03  0.00000000000E+00 0.  1.
          2   -1    0    0  501    0  0.00000000000E+00 -0.00000000000E+00 -0.91473254300E+02  0.91473254300E+02  0.00000000000E+00 0. -1.
         25    2    1    2    0    0 -0.22172368972E+02 -0.14951240188E+02  0.10687235463E+03  0.16669068098E+03  0.12509568102E+03 0.  0.
          5    1    3    3  502    0  0.31223545206E+02 -0.35180540373E+02  0.97960662933E+02  0.10874899576E+03  0.41800000000E+01 0. -1.
         -5    1    3    3    0  502 -0.53395914178E+02  0.20229300185E+02  0.89116917007E+01  0.57941685218E+02  0.41800000000E+01 0. -1.
        -11    1    1    2    0    0 -0.16476106634E+02  0.17957510129E+02  0.26139472434E+02  0.35738022874E+02  0.00000000000E+00 0.  1.
         11    1    1    2    0    0  0.38648475606E+02 -0.30062699404E+01 -0.50146533520E+02  0.63383098297E+02  0.00000000000E+00 0. -1.
</event>
<event>
 7    1  0.2641580E-009  0.1198344E+03  0.7561462E-02  0.1243370E+00
          1   -1    0    0  501    0  0.00000000000E+00  0.00000000000E+00  0.21547065461E+03  0.21547065461E+03  0.00000000000E+00 0. -1.
         -1   -1    0    0    0  501 -0.00000000000E+00 -0.00000000000E+00 -0.10354872458E+03  0.10354872458E+03  0.00000000000E+00 0.  1.
         25    2    1    2    0    0 -0.37351048077E+02 -0.94668719827E+02  0.64345358876E+02  0.17361891407E+03  0.12508371120E+03 0.  0.
          5    1    3    3  502    0  0.26744616522E+02 -0.54661428984E+02 -0.16190948170E+02  0.63109155708E+02  0.41800000000E+01 0.  1.
         -5    1    3    3    0  502 -0.64095664599E+02 -0.40007290843E+02  0.80536307046E+02  0.11050975836E+03  0.41800000000E+01 0.  1.
        -11    1    1    2    0    0  0.16083003593E+02  0.61734439451E+02  0.74318347595E+02  0.97943967697E+02  0.00000000000E+00 0. -1.
         11    1    1    2    0    0  0.21268044484E+02  0.32934280376E+02 -0.26741776447E+02  0.47456497422E+02  0.00000000000E+00 0.  1.
</event>
<event>
 7    1  0.2641580E-009  0.1845922E+03  0.7561462E-02  0.1163431E+00
         -1   -1    0    0    0  501 -0.00000000000E+00  0.00000000000E+00  0.87028215120E+02  0.87028215120E+02  0.00000000000E+00 0.  1.
          1   -1    0    0  501    0  0.00000000000E+00 -0.00000000000E+00 -0.68456104146E+03  0.68456104146E+03  0.00000000000E+00 0. -1.
         25    2    1    2    0    0  0.15037538534E+03 -0.44887659611E+02 -0.67547177028E+02  0.21175102217E+03  0.12509282860E+03 0.  0.
          5    1    3    3  502    0  0.63611533955E+02 -0.74389548081E+02 -0.23640552811E+00  0.97968160151E+02  0.41800000000E+01 0.  1.
         -5    1    3    3    0  502  0.86763851383E+02  0.29501888470E+02 -0.67310771499E+02  0.11378286202E+03  0.41800000000E+01 0.  1.
        -11    1    1    2    0    0 -0.34969826353E+01  0.31829539615E+02 -0.74860674362E+02  0.81421551481E+02  0.00000000000E+00 0. -1.
         11    1    1    2    0    0 -0.14687840270E+03  0.13058119996E+02 -0.45512497495E+03  0.47841668292E+03  0.00000000000E+00 0.  1.
</event>
<event>
 7    1  0.3069229E-009  0.1044496E+03  0.7561462E-02  0.1271208E+00
          3   -1    0    0  501    0  0.00000000000E+00  0.00000000000E+00  0.13661861766E+03  0.13661861766E+03  0.00000000000E+00 0. -1.
         -3   -1    0    0    0  501 -0.00000000000E+00 -0.00000000000E+00 -0.16833006549E+03  0.16833006549E+03  0.00000000000E+00 0.  1.
         25    2    1    2    0    0 -0.67132651711E+02 -0.64689014444E+02  0.32403611555E+02  0.15933906564E+03  0.12508989679E+03 0.  0.
          5    1    3    3  502    0 -0.58301594837E+02 -0.78596242428E+02 -0.23651743587E+02  0.10076369713E+03  0.41800000000E+01 0.  1.
         -5    1    3    3    0  502 -0.88310568744E+01  0.13907227983E+02  0.56055355142E+02  0.58575368507E+02  0.41800000000E+01 0.  1.
        -11    1    1    2    0    0  0.35462378566E+02  0.42145374050E+02 -0.85147972273E+02  0.10141000951E+03  0.00000000000E+00 0.  1.
         11    1    1    2    0    0  0.31670273145E+02  0.22543640394E+02  0.21032912886E+02  0.44199608005E+02  0.00000000000E+00 0. -1.
</event>
<event>
 7    1  0.2641580E-009  0.1054185E+03  0.7561462E-02  0.1269297E+00
         -2   -1    0    0    0  501 -0.00000000000E+00  0.00000000000E+00  0.44907401735E+02  0.44907401735E+02  0.00000000000E+00 0. -1.
          2   -1    0    0  501    0  0.00000000000E+00 -0.00000000000E+00 -0.36312069456E+03  0.36312069456E+03  0.00000000000E+00 0.  1.
         25    2    1    2    0    0  0.26026596988E+02  0.51651666128E+02 -0.23399678309E+03  0.27156471955E+03  0.12509046344E+03 0.  0.
          5    1    3    3  502    0 -0.48202170892E+02  0.26846055818E+02 -0.13045808655E+03  0.14170725013E+03  0.41800000000E+01 0. -1.
         -5    1    3    3    0  502  0.74228767881E+02  0.24805610310E+02 -0.10353869653E+03  0.12985746942E+03  0.41800000000E+01 0. -1.
        -11    1    1    2    0    0  0.15554988347E+02 -0.11685782795E+02 -0.75704568392E+02  0.78164549876E+02  0.00000000000E+00 0.  1.
         11    1    1    2    0    0 -0.41581585335E+02 -0.39965883333E+02 -0.85119413489E+01  0.58298826876E+02  0.00000000000E+00 0. -1.
</event>
<event>
 7    1  0.2641580E-009  0.1110060E+03  0.7561462E-02  0.1258718E+00
         -2   -1    0    0    0  501 -0.00000000000E+00  0.00000000000E+00  0.15257390147E+02  0.15257390147E+02  0.00000000000E+00 0. -1.
          2   -1    0    0  501    0  0.00000000000E+00 -0.00000000000E+00 -0.88481508655E+03  0.88481508655E+03  0.00000000000E+00 0.  1.
         25    2    1    2    0    0 -0.25387662216E+02 -0.30859491461E+02 -0.57260463511E+03  0.58746952269E+03  0.12509008888E+03 0.  0.
          5    1    3    3  502    0 -0.88866525642E+01 -0.77979478800E+02 -0.40420029077E+03  0.41177071189E+03  0.41800000000E+01 0.  1.
         -5    1    3    3    0  502 -0.16501009651E+02  0.47119987339E+02 -0.16840434434E+03  0.17569881080E+03  0.41800000000E+01 0.  1.
        -11    1    1    2    0    0  0.56593563673E+02  0.16391458568E+02 -0.22876322299E+03  0.23622896426E+03  0.00000000000E+00 0.  1.
         11    1    1    2    0    0 -0.31205901457E+02  0.14468032893E+02 -0.68189838296E+02  0.76373989737E+02  0.00000000000E+00 0. -1.
</event>
<event>
 7    1  0.2641580E-009  0.7749182E+02  0.7561462E-02  0.1336324E+00
         -1   -1    0    0    0  501 -0.00000000000E+00  0.00000000000E+00  0.36941430016E+02  0.36941430016E+02  0.00000000000E+00 0.  1.
          1   -1    0    0  501    0  0.00000000000E+00 -0.00000000000E+00 -0.42570030850E+03  0.42570030850E+03  0.00000000000E+00 0. -1.
         25    2    1    2    0    0  0.12189899443E+02 -0.96870863317E+01 -0.32975465763E+03  0.35302836293E+03  0.12509379485E+03 0.  0.
          5    1    3    3  502    0 -0.41909485331E+02  0.73901091746E+01 -0.42839840968E+02  0.60528861285E+02  0.41800000000E+01 0. -1.
         -5    1    3    3    0  502  0.54099384774E+02 -0.17077195506E+02 -0.28691481666E+03  0.29249950164E+03  0.41800000000E+01 0. -1.
        -11    1    1    2    0    0 -0.32869414484E+02  0.10882910835E+02  0.11220853617E+02  0.36397028898E+02  0.00000000000E+00 0.  1.
         11    1    1    2    0    0  0.20679515040E+02 -0.11958245030E+01 -0.70225074465E+02  0.73216346686E+02  0.00000000000E+00 0. -1.
</event>
<event>
 7    1  0.2641580E-009  0.1058501E+03  0.7561462E-02  0.1268454E+00
          1   -1    0    0  501    0  0.00000000000E+00  0.00000000000E+00  0.12155710956E+03  0.12155710956E+03  0.00000000000E+00 0. -1.
         -1   -1    0    0    0  501 -0.00000000000E+00 -0.00000000000E+00 -0.13714144560E+03  0.13714144560E+03  0.00000000000E+00 0.  1.
         25    2    1    2    0    0 -0.50182764179E+02 -0.74795528775E+01  0.35136435660E+02  0.13948511616E+03  0.12508906821E+03 0.  0.
          5    1    3    3  502    0  0.76668442045E+01 -0.46582733330E+02  0.49003696560E+02  0.68173060817E+02  0.41800000000E+01 0.  1.
         -5    1    3    3    0  502 -0.57849608384E+02  0.39103180453E+02 -0.13867260900E+02  0.71312055338E+02  0.41800000000E+01 0.  1.
        -11    1    1    2    0    0  0.70863813912E+02 -0.34812005721E+01 -0.91911435965E+01  0.71542127451E+02  0.00000000000E+00 0. -1.
         11    1    1    2    0    0 -0.20681049733E+02  0.10960753450E+02 -0.41529628103E+02  0.47671311547E+02  0.00000000000E+00 0.  1.
</event>
<event>
 7    1  0.2641580E-009  0.1489703E+03  0.7561462E-02  0.1201744E+00
         -2   -1    0    0    0  501 -0.00000000000E+00  0.00000000000E+00  0.65667193410E+02  0.65667193410E+02  0.00000000000E+00 0.  1.
          2   -1    0    0  501    0  0.00000000000E+00 -0.00000000000E+00 -0.38950788843E+03  0.38950788843E+03  0.00000000000E+00 0. -1.
         25    2    1    2    0    0  0.97938055007E+02  0.61876497225E+02 -0.18800699705E+03  0.25380128733E+03  0.12509156240E+03 0.  0.
          5    1    3    3  502    0 -0.49964723776E+00  0.50851558252E+02 -0.12987355115E+02  0.52652392319E+02  0.41800000000E+01 0.  1.
         -5    1    3    3    0  502  0.98437702245E+02  0.11024938973E+02 -0.17501964193E+03  0.20114889501E+03  0.41800000000E+01 0.  1.
        -11    1    1    2    0    0  0.17951793238E+02 -0.47541111090E+01 -0.10331933169E+02  0.21251289277E+02  0.00000000000E+00 0.  1.
         11    1    1    2    0    0 -0.11588984825E+03 -0.57122386116E+02 -0.12550176480E+03  0.18012250523E+03  0.00000000000E+00 0. -1.
</event>
<event>
 7    1  0.2641580E-009  0.1052264E+03  0.7561462E-02  0.1269674E+00
         -1   -1    0    0    0  501 -0.00000000000E+00  0.00000000000E+00  0.45492959013E+03  0.45492959013E+03  0.00000000000E+00 0.  1.
          1   -1    0    0  501    0  0.00000000000E+00 -0.00000000000E+00 -0.36814578786E+02  0.36814578786E+02  0.00000000000E+00 0. -1.
         25    2    1    2    0    0  0.48779269002E+02 -0.29204303509E+02  0.31446368341E+03  0.34317264208E+03  0.12509094957E+03 0.  0.
          5    1    3    3  502    0 -0.34163942648E+02  0.21039108769E+02  0.92874916021E+02  0.10125730345E+03  0.41800000000E+01 0. -1.
         -5    1    3    3    0  502  0.82943211649E+02 -0.50243412277E+02  0.22158876739E+03  0.24191533864E+03  0.41800000000E+01 0. -1.
        -11    1    1    2    0    0 -0.10060494886E+02  0.32661771986E+02  0.10423453171E+03  0.10969431392E+03  0.00000000000E+00 0.  1.
         11    1    1    2    0    0 -0.38718774116E+02 -0.34574684777E+01 -0.58320376900E+00  0.38877212914E+02  0.00000000000E+00 0. -1.
</event>
<event>
 7    1  0.2641580E-009  0.1530528E+03  0.7561462E-02  0.1196771E+00
         -1   -1    0    0    0  501 -0.00000000000E+00  0.00000000000E+00  0.60583670154E+03  0.60583670154E+03  0.00000000000E+00 0.  1.
          1   -1    0    0  501    0  0.00000000000E+00 -0.00000000000E+00 -0.45489645795E+02  0.45489645795E+02  0.00000000000E+00 0. -1.
         25    2    1    2    0    0  0.68860634189E+02 -0.88375538538E+02  0.18844902161E+03  0.25241232709E+03  0.12508767472E+03 0.  0.
          5    1    3    3  502    0  0.25573851916E+02 -0.11017585343E+03  0.16023201401E+03  0.19617469586E+03  0.41800000000E+01 0.  1.
         -5    1    3    3    0  502  0.43286782273E+02  0.21800314887E+02  0.28217007594E+02  0.56237631229E+02  0.41800000000E+01 0.  1.
        -11    1    1    2    0    0 -0.33757469178E+02  0.10137215061E+03  0.27888731770E+03  0.29865367169E+03  0.00000000000E+00 0.  1.
         11    1    1    2    0    0 -0.35103165011E+02 -0.12996612072E+02  0.93010716441E+02  0.10026034855E+03  0.00000000000E+00 0. -1.
</event>
<event>
 7    1  0.2641580E-009  0.1345482E+03  0.7561462E-02  0.1220859E+00
          2   -1    0    0  501    0  0.00000000000E+00  0.00000000000E+00  0.24628636067E+03  0.24628636067E+03  0.00000000000E+00 0.  1.
         -2   -1    0    0    0  501 -0.00000000000E+00 -0.00000000000E+00 -0.75533215146E+02  0.75533215146E+02  0.00000000000E+00 0. -1.
         25    2    1    2    0    0  0.74422672122E+02  0.27275490383E+02  0.10474649042E+03  0.18139004052E+03  0.12509129882E+03 0.  0.
          5    1    3    3  502    0 -0.25975693342E+02 -0.22004260910E+02  0.37512252262E+02  0.50828787243E+02  0.41800000000E+01 0. -1.
         -5    1    3    3    0  502  0.10039836546E+03  0.49279751294E+02  0.67234238162E+02  0.13056125327E+03  0.41800000000E+01 0. -1.
        -11    1    1    2    0    0 -0.13352000204E+02 -0.54429818909E+02  0.39329254171E+02  0.68466570891E+02  0.00000000000E+00 0.  1.
         11    1    1    2    0    0 -0.61070671917E+02  0.27154328525E+02  0.26677400930E+02  0.71962964409E+02  0.00000000000E+00 0. -1.
</event>
<event>
 7    1  0.2641580E-009  0.7646816E+02  0.7561462E-02  0.1339384E+00
          2   -1    0    0  501    0  0.00000000000E+00  0.00000000000E+00  0.35216361711E+03  0.35216361711E+03  0.00000000000E+00 0.  1.
         -2   -1    0    0    0  501 -0.00000000000E+00 -0.00000000000E+00 -0.40303418358E+02  0.40303418358E+02  0.00000000000E+00 0. -1.
         25    2    1    2    0    0 -0.41793886636E+02 -0.16002092787E+02  0.14991086854E+03  0.20030592071E+03  0.12508556045E+03 0.  0.
          5    1    3    3  502    0 -0.58952397534E+02 -0.22743575250E+02  0.16334134778E+02  0.65398254939E+02  0.41800000000E+01 0.  1.
         -5    1    3    3    0  502  0.17158510898E+02  0.67414824629E+01  0.13357673376E+03  0.13490766577E+03  0.41800000000E+01 0.  1.
        -11    1    1    2    0    0 -0.13510587212E+02  0.43014074520E+01 -0.56669409122E+01  0.15269325204E+02  0.00000000000E+00 0. -1.
         11    1    1    2    0    0  0.55304473848E+02  0.11700685335E+02  0.16761627112E+03  0.17689178955E+03  0.00000000000E+00 0.  1.
</event>
<event>
 7    1  0.2641580E-009  0.1046108E+03  0.7561462E-02  0.1270888E+00
          1   -1    0    0  501    0  0.00000000000E+00  0.00000000000E+00  0.35435793231E+03  0.35435793231E+03  0.00000000000E+00 0. -1.
         -1   -1    0    0    0  501 -0.00000000000E+00 -0.00000000000E+00 -0.33740210667E+02  0.33740210667E+02  0.00000000000E+00 0.  1.
         25    2    1    2    0    0 -0.26367193466E+02  0.17066765870E+01  0.19670271194E+03  0.23460100161E+03  0.12509009328E+03 0.  0.
          5    1    3    3  502    0  0.39634937476E+02 -0.27422355531E+02  0.42866783362E+02  0.64637043307E+02  0.41800000000E+01 0.  1.
         -5    1    3    3    0  502 -0.66002130942E+02  0.29129032118E+02  0.15383592857E+03  0.16996395830E+03  0.41800000000E+01 0.  1.
        -11    1    1    2    0    0 -0.30476290183E+02 -0.76611130867E+01  0.29333105854E+02  0.42987533263E+02  0.00000000000E+00 0.  1.
         11    1    1    2    0    0  0.56843483648E+02  0.59544364997E+01  0.94581903849E+02  0.11050960810E+03  0.00000000000E+00 0. -1.
</event>
<event>
 7    1  0.2641580E-009  0.1351191E+03  0.7561462E-02  0.1220052E+00
          2   -1    0    0  501    0  0.00000000000E+00  0.00000000000E+00  0.13175384651E+03  0.13175384651E+03  0.00000000000E+00 0. -1.
         -2   -1    0    0    0  501 -0.00000000000E+00 -0.00000000000E+00 -0.16264636511E+03  0.16264636511E+03  0.00000000000E+00 0.  1.
         25    2    1    2    0    0 -0.60477084530E+02  0.51674004693E+02  0.39456596827E+02  0.15339840107E+03  0.12508623387E+03 0.  0.
          5    1    3    3  502    0 -0.89306209133E+02  0.59362803554E+00  0.22337744009E+02  0.92154210926E+02  0.41800000000E+01 0.  1.
         -5    1    3    3    0  502  0.28829124603E+02  0.51080376658E+02  0.17118852818E+02  0.61244190146E+02  0.41800000000E+01 0.  1.
        -11    1    1    2    0    0 -0.24963724169E+02 -0.91171798294E+01 -0.12310275102E+02  0.29289133915E+02  0.00000000000E+00 0.  1.
         11    1    1    2    0    0  0.85440808700E+02 -0.42556824864E+02 -0.58038840323E+02  0.11171267663E+03  0.00000000000E+00 0. -1.
</event>
<event>
 7    1  0.2641580E-009  0.7544861E+02  0.7561462E-02  0.1342487E+00
          2   -1    0    0  501    0  0.00000000000E+00  0.00000000000E+00  0.59188006365E+03  0.59188006365E+03  0.00000000000E+00 0. -1.
         -2   -1    0    0    0  501 -0.00000000000E+00 -0.00000000000E+00 -0.27563744851E+02  0.27563744851E+02  0.00000000000E+00 0.  1.
         25    2    1    2    0    0  0.26644967715E+02 -0.59375082023E+01  0.16486537046E+03  0.20874385696E+03  0.12509276211E+03 0.  0.
          5    1    3    3  502    0  0.35226021333E+02  0.13763082369E+02  0.17879358387E+03  0.18279746456E+03  0.41800000000E+01 0.  1.
         -5    1    3    3    0  502 -0.85810536174E+01 -0.19700590571E+02 -0.13928213408E+02  0.25946392404E+02  0.41800000000E+01 0.  1.
        -11    1    1    2    0    0 -0.10599255376E+02  0.46312550881E+02  0.27012340316E+03  0.27426966569E+03  0.00000000000E+00 0. -1.
         11    1    1    2    0    0 -0.16045712339E+02 -0.40375042679E+02  0.12932754517E+03  0.13643028585E+03  0.00000000000E+00 0.  1.
</event>
<event>
 7    1  0.2641580E-009  0.1305765E+03  0.7561462E-02  0.1226603E+00
          1   -1    0    0  501    0  0.00000000000E+00  0.00000000000E+00  0.13377107715E+03  0.13377107715E+03  0.00000000000E+00 0. -1.
         -1   -1    0    0    0  501 -0.00000000000E+00 -0.00000000000E+00 -0.14396676228E+03  0.14396676228E+03  0.00000000000E+00 0.  1.
         25    2    1    2    0    0  0.86542156465E+02  0.42547271532E+01  0.48727305279E+00  0.15217201881E+03  0.12509371817E+03 0.  0.
          5    1    3    3  502    0  0.84006001176E+02  0.48348474890E+02  0.26725720491E+02  0.10062961688E+03  0.41800000000E+01 0.  1.
         -5    1    3    3    0  502  0.25361552896E+01 -0.44093747737E+02 -0.26238447438E+02  0.51542401934E+02  0.41800000000E+01 0.  1.
        -11    1    1    2    0    0 -0.65697210902E+02  0.35654180114E+02  0.11066173825E+02  0.75563246906E+02  0.00000000000E+00 0. -1.
         11    1    1    2    0    0 -0.20844945564E+02 -0.39908907268E+02 -0.21749132007E+02  0.50002573713E+02  0.00000000000E+00 0.  1.
</event>
<event>
 7    1  0.2641580E-009  0.1341415E+03  0.7561462E-02  0.1221437E+00
         -2   -1    0    0    0  501 -0.00000000000E+00  0.00000000000E+00  0.11587928610E+03  0.11587928610E+03  0.00000000000E+00 0.  1.
          2   -1    0    0  501    0  0.00000000000E+00 -0.00000000000E+00 -0.25118847078E+03  0.25118847078E+03  0.00000000000E+00 0. -1.
         25    2    1    2    0    0  0.71050802403E+02 -0.83451853066E+02  0.61067822788E+01  0.16642465203E+03  0.12508974263E+03 0.  0.
          5    1    3    3  502    0  0.54182881581E+02 -0.15839855398E+02  0.56769901438E+02  0.80168446316E+02  0.41800000000E+01 0. -1.
         -5    1    3    3    0  502  0.16867920822E+02 -0.67611997668E+02 -0.50663119159E+02  0.86256205715E+02  0.41800000000E+01 0. -1.
        -11    1    1    2    0    0  0.12943691368E+02  0.49679889850E+02 -0.59106172084E+02  0.78289016983E+02  0.00000000000E+00 0.  1.
         11    1    1    2    0    0 -0.83994493771E+02  0.33771963216E+02 -0.82309794874E+02  0.12235408786E+03  0.00000000000E+00 0. -1.
</event>
<event>
 7    1  0.2641580E-009  0.1144929E+03  0.7561462E-02  0.1252469E+00
         -2   -1    0    0    0  501 -0.00000000000E+00  0.00000000000E+00  0.18585880442E+02  0.18585880442E+02  0.00000000000E+00 0. -1.
          2   -1    0    0  501    0  0.00000000000E+00 -0.00000000000E+00 -0.78121888880E+03  0.78121888880E+03  0.00000000000E+00 0.  1.
         25    2    1    2    0    0  0.18237159714E+02 -0.47048657779E+02 -0.37828290222E+03  0.40161138496E+03  0.12509028831E+03 0.  0.
          5    1    3    3  502    0 -0.13340644043E+02  0.36678112769E+02 -0.17690759156E+03  0.18120989237E+03  0.41800000000E+01 0.  1.
         -5    1    3    3    0  502  0.31577803757E+02 -0.83726770548E+02 -0.20137531066E+03  0.22040149260E+03  0.41800000000E+01 0.  1.
        -11    1    1    2    0    0  0.26483127773E+02 -0.94304895862E+01 -0.65003006096E+02  0.70821472676E+02  0.00000000000E+00 0. -1.
         11    1    1    2    0    0 -0.44720287487E+02  0.56479147365E+02 -0.31934710004E+03  0.32737191160E+03  0.00000000000E+00 0.  1.
</event>
<event>
 7    1  0.2641580E-009  0.1080858E+03  0.7561462E-02  0.1264156E+00
         -2   -1    0    0    0  501 -0.00000000000E+00  0.00000000000E+00  0.20875981286E+02  0.20875981286E+02  0.00000000000E+00 0.  1.
          2   -1    0    0  501    0  0.00000000000E+00 -0.00000000000E+00 -0.92044194922E+03  0.92044194922E+03  0.00000000000E+00 0. -1.
         25    2    1    2    0    0 -0.62419781438E+02 -0.54520612321E+02 -0.55380141777E+03  0.57377068525E+03  0.12509221659E+03 0.  0.
          5    1    3    3  502    0 -0.18450055436E+02 -0.70471613061E+02 -0.48507773232E+03  0.49053494431E+03  0.41800000000E+01 0. -1.
         -5    1    3    3    0  502 -0.43969726001E+02  0.15951000739E+02 -0.68723685447E+02  0.83235740945E+02  0.41800000000E+01 0. -1.
        -11    1    1    2    0    0  0.68543165942E+01  0.37514215292E+02 -0.36216573317E+02  0.52592187516E+02  0.00000000000E+00 0.  1.
         11    1    1    2    0    0  0.55565464844E+02  0.17006397029E+02 -0.30954797685E+03  0.31495505774E+03  0.00000000000E+00 0. -1.
</event>
<event>
 7    1  0.2641580E-009  0.2252878E+03  0.7561462E-02  0.1130001E+00
         -2   -1    0    0    0  501 -0.00000000000E+00  0.00000000000E+00  0.13318808288E+03  0.13318808288E+03  0.00000000000E+00 0.  1.
          2   -1    0    0  501    0  0.00000000000E+00 -0.00000000000E+00 -0.45500303907E+03  0.45500303907E+03  0.00000000000E+00 0. -1.
         25    2    1    2    0    0  0.13606074124E+03  0.17252188737E+03 -0.18819897306E+03  0.31518617797E+03  0.12508855422E+03 0.  0.
          5    1    3    3  502    0  0.43464717288E+02  0.10198923977E+03 -0.23404421047E+02  0.11338529888E+03  0.41800000000E+01 0.  1.
         -5    1    3    3    0  502  0.92596023950E+02  0.70532647596E+02 -0.16479455201E+03  0.20180087909E+03  0.41800000000E+01 0.  1.
        -11    1    1    2    0    0 -0.13514756464E+03 -0.15513601450E+03 -0.87258782028E+02  0.22348633574E+03  0.00000000000E+00 0.  1.
         11    1    1    2    0    0 -0.91317659521E+00 -0.17385872869E+02 -0.46357201102E+02  0.49518608229E+02  0.00000000000E+00 0. -1.
</event>
<event>
 7    1  0.2641580E-009  0.8520331E+02  0.7561462E-02  0.1314902E+00
          1   -1    0    0  501    0  0.00000000000E+00  0.00000000000E+00  0.18028089439E+03  0.18028089439E+03  0.00000000000E+00 0. -1.
         -1   -1    0    0    0  501 -0.00000000000E+00 -0.00000000000E+00 -0.87839957336E+02  0.87839957336E+02  0.00000000000E+00 0.  1.
         25    2    1    2    0    0  0.27014188502E+02  0.53498156328E+02  0.81503751453E+02  0.16087665812E+03  0.12508644417E+03 0.  0.
          5    1    3    3  502    0  0.57998452313E+02  0.52808248831E+02  0.97940064419E+02  0.12554784042E+03  0.41800000000E+01 0.  1.
         -5    1    3    3    0  502 -0.30984263810E+02  0.68990749648E+00 -0.16436312966E+02  0.35328817701E+02  0.41800000000E+01 0.  1.
        -11    1    1    2    0    0 -0.16994342887E+02 -0.42144757136E+02 -0.35968732171E+02  0.57954619645E+02  0.00000000000E+00 0.  1.
         11    1    1    2    0    0 -0.10019845615E+02 -0.11353399192E+02  0.46905917775E+02  0.49289573965E+02  0.00000000000E+00 0. -1.
</event>
<event>
 7    1  0.2641580E-009  0.1010317E+03  0.7561462E-02  0.1278141E+00
         -3   -1    0    0    0  501 -0.00000000000E+00  0.00000000000E+00  0.20446051248E+02  0.20446051248E+02  0.00000000000E+00 0.  1.
          3   -1    0    0  501    0  0.00000000000E+00 -0.00000000000E+00 -0.96376542155E+03  0.96376542155E+03  0.00000000000E+00 0. -1.
         25    2    1    2    0    0  0.43440107714E+02 -0.21535765537E+01 -0.78998776349E+03  0.80101184753E+03  0.12509049749E+03 0.  0.
          5    1    3    3  502    0  0.44590816041E+02 -0.50824894258E+02 -0.63250918843E+03  0.63612644702E+03  0.41800000000E+01 0. -1.
         -5    1    3    3    0  502 -0.11507083265E+01  0.48671317705E+02 -0.15747857507E+03  0.16488540051E+03  0.41800000000E+01 0. -1.
        -11    1    1    2    0    0 -0.43583561394E+01 -0.32761911227E+02 -0.11104758755E+03  0.11586157601E+03  0.00000000000E+00 0.  1.
         11    1    1    2    0    0 -0.39081751575E+02  0.34915487780E+02 -0.42284019260E+02  0.67338049258E+02  0.00000000000E+00 0. -1.
</event>
<event>
 7    1  0.2641580E-009  0.2109046E+03  0.7561462E-02  0.1140852E+00
          1   -1    0    0  501    0  0.00000000000E+00  0.00000000000E+00  0.79385009385E+03  0.79385009385E+03  0.00000000000E+00 0. -1.
         -1   -1    0    0    0  501 -0.00000000000E+00 -0.00000000000E+00 -0.63647188320E+02  0.63647188320E+02  0.00000000000E+00 0.  1.
         25    2    1    2    0    0  0.19192492933E+03  0.93607597262E+01  0.45647624510E+03  0.51082482444E+03  0.12509451068E+03 0.  0.
          5    1    3    3  502    0 -0.22289752325E+00  0.34997723467E+02  0.63926502842E+02  0.72999729430E+02  0.41800000000E+01 0.  1.
         -5    1    3    3    0  502  0.19214782686E+03 -0.25636963741E+02  0.39254974226E+03  0.43782509501E+03  0.41800000000E+01 0.  1.
        -11    1    1    2    0    0 -0.79056958852E+02  0.30660736120E+01  0.44277602276E+02  0.90663717184E+02  0.00000000000E+00 0.  1.
         11    1    1    2    0    0 -0.11286797048E+03 -0.12426833338E+02  0.22944905816E+03  0.25600874055E+03  0.00000000000E+00 0. -1.
</event>
<event>
 7    1  0.2641580E-009  0.8786799E+02  0.7561462E-02  0.1308098E+00
          3   -1    0    0  501    0  0.00000000000E+00  0.00000000000E+00  0.16329597795E+02  0.16329597795E+02  0.00000000000E+00 0. -1.
         -3   -1    0    0    0  501 -0.00000000000E+00 -0.00000000000E+00 -0.14439906378E+04  0.14439906378E+04  0.00000000000E+00 0.  1.
         25    2    1    2    0    0 -0.19369300088E+02 -0.26072633217E+02 -0.12588126614E+04  0.12654294372E+04  0.12508953608E+03 0.  0.
          5    1    3    3  502    0  0.35631208377E+02  0.23828495172E+02 -0.23467728349E+03  0.23859647939E+03  0.41800000000E+01 0. -1.
         -5    1    3    3    0  502 -0.55000508466E+02 -0.49901128389E+02 -0.10241353779E+04  0.10268329578E+04  0.41800000000E+01 0. -1.
        -11    1    1    2    0    0  0.50289934546E+01 -0.14450466153E+02  0.47726617378E+01  0.16027633864E+02  0.00000000000E+00 0. -1.
         11    1    1    2    0    0  0.14340306634E+02  0.40523099371E+02 -0.17362104031E+03  0.17886316450E+03  0.00000000000E+00 0.  1.
</event>
<event>
 7    1  0.2641580E-009  0.1416519E+03  0.7561462E-02  0.1211123E+00
         -2   -1    0    0    0  501 -0.00000000000E+00  0.00000000000E+00  0.41229904696E+03  0.41229904696E+03  0.00000000000E+00 0. -1.
          2   -1    0    0  501    0  0.00000000000E+00 -0.00000000000E+00 -0.72713101502E+02  0.72713101502E+02  0.00000000000E+00 0.  1.
         25    2    1    2    0    0  0.90100157638E+02  0.72020676492E+02  0.84415836928E+02  0.18994733574E+03  0.12509572567E+03 0.  0.
          5    1    3    3  502    0 -0.17589016902E+02  0.79549344307E+01 -0.19013359853E+02  0.27415957949E+02  0.41800000000E+01 0. -1.
         -5    1    3    3    0  502  0.10768917454E+03  0.64065742062E+02  0.10342919678E+03  0.16253137779E+03  0.41800000000E+01 0. -1.
        -11    1    1    2    0    0  0.57678043995E+01 -0.34900426870E+02  0.26026826026E+02  0.43917001677E+02  0.00000000000E+00 0.  1.
         11    1    1    2    0    0 -0.95867962038E+02 -0.37120249622E+02  0.22914328251E+03  0.25114781105E+03  0.00000000000E+00 0. -1.
</event>
<event>
 7    1  0.2641580E-009  0.2340672E+03  0.7561462E-02  0.1123809E+00
          1   -1    0    0  501    0  0.00000000000E+00  0.00000000000E+00  0.43730422649E+03  0.43730422649E+03  0.00000000000E+00 0. -1.
         -1   -1    0    0    0  501 -0.00000000000E+00 -0.00000000000E+00 -0.16375458538E+03  0.16375458538E+03  0.00000000000E+00 0.  1.
         25    2    1    2    0    0 -0.97178247008E+02 -0.18653951218E+03  0.28041087524E+03  0.37218066557E+03  0.12509031768E+03 0.  0.
          5    1    3    3  502    0 -0.99963839600E+02 -0.68594498966E+02  0.18076562673E+03  0.21769625335E+03  0.41800000000E+01 0. -1.
         -5    1    3    3    0  502  0.27855925921E+01 -0.11794501322E+03  0.99645248505E+02  0.15448441222E+03  0.41800000000E+01 0. -1.
        -11    1    1    2    0    0 -0.12398652746E+02  0.60525390457E+02 -0.18053523575E+01  0.61808646459E+02  0.00000000000E+00 0. -1.
         11    1    1    2    0    0  0.10957689975E+03  0.12601412173E+03 -0.50558817724E+01  0.16706949983E+03  0.00000000000E+00 0.  1.
</event>
<event>
 7    1  0.2641580E-009  0.1007150E+03  0.7561462E-02  0.1278799E+00
         -4   -1    0    0    0  501 -0.00000000000E+00  0.00000000000E+00  0.58211072148E+02  0.58211072148E+02  0.00000000000E+00 0.  1.
          4   -1    0    0  501    0  0.00000000000E+00 -0.00000000000E+00 -0.36545446198E+03  0.36545446198E+03  0.00000000000E+00 0. -1.
         25    2    1    2    0    0  0.74312066036E+02  0.61135270097E+02 -0.19175108081E+03  0.24834621869E+03  0.12509021920E+03 0.  0.
          5    1    3    3  502    0  0.74566952676E+02  0.62594511740E+02 -0.55737997622E+02  0.11226085743E+03  0.41800000000E+01 0.  1.
         -5    1    3    3    0  502 -0.25488664025E+00 -0.14592416423E+01 -0.13601308318E+03  0.13608536127E+03  0.41800000000E+01 0.  1.
        -11    1    1    2    0    0 -0.44348790737E+02 -0.19979882041E+02 -0.11449846769E+03  0.12440221071E+03  0.00000000000E+00 0. -1.
         11    1    1    2    0    0 -0.29963275300E+02 -0.41155388056E+02 -0.99384133275E+00  0.50917104723E+02  0.00000000000E+00 0.  1.
</event>
<event>
 7    1  0.2641580E-009  0.9516232E+02  0.7561462E-02  0.1290811E+00
         -1   -1    0    0    0  501 -0.00000000000E+00  0.00000000000E+00  0.18839629766E+03  0.18839629766E+03  0.00000000000E+00 0.  1.
          1   -1    0    0  501    0  0.00000000000E+00 -0.00000000000E+00 -0.90295922689E+02  0.90295922689E+02  0.00000000000E+00 0. -1.
         25    2    1    2    0    0  0.66040379902E+02  0.11147110144E+02  0.87410336582E+02  0.16665513442E+03  0.12509107500E+03 0.  0.
          5    1    3    3  502    0 -0.50474511624E+01 -0.94983838683E+01 -0.27544434052E+02  0.29864097284E+02  0.41800000000E+01 0. -1.
         -5    1    3    3    0  502  0.71087831064E+02  0.20645494013E+02  0.11495477063E+03  0.13679103713E+03  0.41800000000E+01 0. -1.
        -11    1    1    2    0    0 -0.74546276014E+02  0.15956415984E+02 -0.10008583251E+02  0.76889051348E+02  0.00000000000E+00 0. -1.
         11    1    1    2    0    0  0.85058961121E+01 -0.27103526128E+02  0.20698621641E+02  0.35148034583E+02  0.00000000000E+00 0.  1.
</event>
<event>
 7    1  0.2641580E-009  0.9228916E+02  0.7561462E-02  0.1297401E+00
          2   -1    0    0  501    0  0.00000000000E+00  0.00000000000E+00  0.16634798987E+02  0.16634798987E+02  0.00000000000E+00 0. -1.
         -2   -1    0    0    0  501 -0.00000000000E+00 -0.00000000000E+00 -0.13423722805E+04  0.13423722805E+04  0.00000000000E+00 0.  1.
         25    2    1    2    0    0  0.89438339398E+01 -0.15376308765E+02 -0.11606906426E+04  0.11675475384E+04  0.12509222059E+03 0.  0.
          5    1    3    3  502    0 -0.10704803004E+02 -0.68546041642E+02 -0.63123295469E+03  0.63504776838E+03  0.41800000000E+01 0.  1.
         -5    1    3    3    0  502  0.19648636944E+02  0.53169732877E+02 -0.52945768788E+03  0.53249977003E+03  0.41800000000E+01 0.  1.
        -11    1    1    2    0    0 -0.28878756871E+02 -0.54716065736E+01 -0.15937433422E+03  0.16206202357E+03  0.00000000000E+00 0.  1.
         11    1    1    2    0    0  0.19934922931E+02  0.20847915339E+02 -0.56725047348E+01  0.29397517518E+02  0.00000000000E+00 0. -1.
</event>
<event>
 7    1  0.2641580E-009  0.8662262E+02  0.7561462E-02  0.1311243E+00
          2   -1    0    0  501    0  0.00000000000E+00  0.00000000000E+00  0.36991968204E+03  0.36991968204E+03  0.00000000000E+00 0. -1.
         -2   -1    0    0    0  501 -0.00000000000E+00 -0.00000000000E+00 -0.35736202711E+02  0.35736202711E+02  0.00000000000E+00 0.  1.
         25    2    1    2    0    0 -0.21202262005E+02  0.28033235049E+02  0.16832993889E+03  0.21264378967E+03  0.12508802811E+03 0.  0.
          5    1    3    3  502    0  0.30470903805E+02 -0.23844491020E+01 -0.30788648429E+01  0.31001828735E+02  0.41800000000E+01 0.  1.
         -5    1    3    3    0  502 -0.51673165810E+02  0.30417684151E+02  0.17140880373E+03  0.18164196093E+03  0.41800000000E+01 0.  1.
        -11    1    1    2    0    0 -0.35215927222E+01  0.24224245640E+02  0.94040138973E+01  0.26223103735E+02  0.00000000000E+00 0.  1.
         11    1    1    2    0    0  0.24723854727E+02 -0.52257480689E+02  0.15644952654E+03  0.16678899135E+03  0.00000000000E+00 0. -1.
</event>
<event>
 7    1  0.2641580E-009  0.9711891E+02  0.7561462E-02  0.1286474E+00
         -1   -1    0    0    0  501 -0.00000000000E+00  0.00000000000E+00  0.57958682758E+02  0.57958682758E+02  0.00000000000E+00 0.  1.
          1   -1    0    0  501    0  0.00000000000E+00 -0.00000000000E+00 -0.21712323096E+03  0.21712323096E+03  0.00000000000E+00 0. -1.
         25    2    1    2    0    0  0.18695304522E+02  0.45793090337E+02 -0.15487414683E+03  0.20513465430E+03  0.12509078107E+03 0.  0.
          5    1    3    3  502    0  0.67577750601E+02  0.12473150243E+02 -0.11376277035E+03  0.13297282493E+03  0.41800000000E+01 0. -1.
         -5    1    3    3    0  502 -0.48882446079E+02  0.33319940094E+02 -0.41111376481E+02  0.72161829374E+02  0.41800000000E+01 0. -1.
        -11    1    1    2    0    0  0.10992650731E+02 -0.31050267369E+02  0.91391423965E+01  0.34183057170E+02  0.00000000000E+00 0.  1.
         11    1    1    2    0    0 -0.29687955254E+02 -0.14742822968E+02 -0.13429543776E+02  0.35764202245E+02  0.00000000000E+00 0. -1.
</event>
<event>
 7    1  0.2641580E-009  0.1288479E+03  0.7561462E-02  0.1229175E+00
          4   -1    0    0  501    0  0.00000000000E+00  0.00000000000E+00  0.41981138724E+03  0.41981138724E+03  0.00000000000E+00 0. -1.
         -4   -1    0    0    0  501 -0.00000000000E+00 -0.00000000000E+00 -0.63764267926E+02  0.63764267926E+02  0.00000000000E+00 0.  1.
         25    2    1    2    0    0  0.11387173654E+03 -0.10392877383E+02  0.25371905240E+03  0.30511581526E+03  0.12509004313E+03 0.  0.
          5    1    3    3  502    0  0.31623092417E+02 -0.26463136010E+01  0.20830700565E+03  0.21075175907E+03  0.41800000000E+01 0.  1.
         -5    1    3    3    0  502  0.82248644121E+02 -0.77465637819E+01  0.45412046748E+02  0.94364056187E+02  0.41800000000E+01 0.  1.
        -11    1    1    2    0    0 -0.43595905217E+02  0.46685309808E+02  0.27381107037E+02  0.69497094372E+02  0.00000000000E+00 0.  1.
         11    1    1    2    0    0 -0.70275831322E+02 -0.36292432425E+02  0.74946959882E+02  0.10896274554E+03  0.00000000000E+00 0. -1.
</event>
<event>
 7    1  0.2641580E-009  0.1053684E+03  0.7561462E-02  0.1269395E+00
         -1   -1    0    0    0  501 -0.00000000000E+00  0.00000000000E+00  0.17456683880E+03  0.17456683880E+03  0.00000000000E+00 0.  1.
          1   -1    0    0  501    0  0.00000000000E+00 -0.00000000000E+00 -0.97732359437E+02  0.97732359437E+02  0.00000000000E+00 0. -1.
         25    2    1    2    0    0  0.66407245484E+01 -0.41751822432E+01  0.11768887546E+03  0.17192870928E+03  0.12508908145E+03 0.  0.
          5    1    3    3  502    0 -0.54765493966E+02  0.11477318375E+02  0.81150564769E+02  0.98660401016E+02  0.41800000000E+01 0.  1.
         -5    1    3    3    0  502  0.61406218514E+02 -0.15652500618E+02  0.36538310693E+02  0.73268308266E+02  0.41800000000E+01 0.  1.
        -11    1    1    2    0    0 -0.98431997260E+01  0.47078048955E+02 -0.16014296667E+02  0.50692099700E+02  0.00000000000E+00 0. -1.
         11    1    1    2    0    0  0.32024751776E+01 -0.42902866712E+02 -0.24840099430E+02  0.49678389256E+02  0.00000000000E+00 0.  1.
</event>
<event>
 7    1  0.2641580E-009  0.2431360E+03  0.7561462E-02  0.1117721E+00
         -1   -1    0    0    0  501 -0.00000000000E+00  0.00000000000E+00  0.17547068463E+03  0.17547068463E+03  0.00000000000E+00 0.  1.
          1   -1    0    0  501    0  0.00000000000E+00 -0.00000000000E+00 -0.37779599951E+03  0.37779599951E+03  0.00000000000E+00 0. -1.
         25    2    1    2    0    0 -0.21184297142E+03  0.31881972108E+02 -0.27459106840E+02  0.24959751435E+03  0.12510400447E+03 0.  0.
          5    1    3    3  502    0 -0.22837886846E+03  0.31543319031E+02 -0.21750809236E+02  0.23160841659E+03  0.41800000000E+01 0.  1.
         -5    1    3    3    0  502  0.16535897034E+02  0.33865307656E+00 -0.57082976038E+01  0.17989097758E+02  0.41800000000E+01 0.  1.
        -11    1    1    2    0    0  0.30959229963E+02 -0.47902308501E+02 -0.81515337177E+02  0.99487965477E+02  0.00000000000E+00 0. -1.
         11    1    1    2    0    0  0.18088374146E+03  0.16020336393E+02 -0.93350870870E+02  0.20418120431E+03  0.00000000000E+00 0.  1.
</event>
<event>
 7    1  0.2641580E-009  0.9682412E+02  0.7561462E-02  0.1287120E+00
          1   -1    0    0  501    0  0.00000000000E+00  0.00000000000E+00  0.58616314262E+02  0.58616314262E+02  0.00000000000E+00 0. -1.
         -1   -1    0    0    0  501 -0.00000000000E+00 -0.00000000000E+00 -0.27744382571E+03  0.27744382571E+03  0.00000000000E+00 0.  1.
         25    2    1    2    0    0 -0.65786132127E+02  0.33739903384E+01 -0.13853383882E+03  0.19793657525E+03  0.12509222331E+03 0.  0.
          5    1    3    3  502    0 -0.46106797784E+02 -0.23890659254E+02 -0.15260106809E+03  0.16124874816E+03  0.41800000000E+01 0. -1.
         -5    1    3    3    0  502 -0.19679334343E+02  0.27264649592E+02  0.14067229266E+02  0.36687827093E+02  0.41800000000E+01 0. -1.
        -11    1    1    2    0    0  0.84951185740E+02  0.80901331755E+01 -0.78107523740E+02  0.11568465533E+03  0.00000000000E+00 0.  1.
         11    1    1    2    0    0 -0.19165053613E+02 -0.11464123514E+02 -0.21861488903E+01  0.22438909397E+02  0.00000000000E+00 0. -1.
</event>
<event>
 7    1  0.2641580E-009  0.9030757E+02  0.7561462E-02  0.1302109E+00
         -2   -1    0    0    0  501 -0.00000000000E+00  0.00000000000E+00  0.52131595953E+02  0.52131595953E+02  0.00000000000E+00 0.  1.
          2   -1    0    0  501    0  0.00000000000E+00 -0.00000000000E+00 -0.31707697909E+03  0.31707697909E+03  0.00000000000E+00 0. -1.
         25    2    1    2    0    0 -0.96928025098E-01  0.37414531194E+01 -0.48308553592E+02  0.13413993556E+03  0.12508316472E+03 0.  0.
          5    1    3    3  502    0 -0.20805849300E+02 -0.39694839407E+02  0.20993215214E+02  0.49666398356E+02  0.41800000000E+01 0. -1.
         -5    1    3    3    0  502  0.20708921275E+02  0.43436292527E+02 -0.69301768806E+02  0.84473537208E+02  0.41800000000E+01 0. -1.
        -11    1    1    2    0    0 -0.35459773416E+02 -0.27211794856E+02 -0.76524924558E+02  0.88622465484E+02  0.00000000000E+00 0.  1.
         11    1    1    2    0    0  0.35556701441E+02  0.23470341736E+02 -0.14011190499E+03  0.14644617400E+03  0.00000000000E+00 0. -1.
</event>
<event>
 7    1  0.2641580E-009  0.1026002E+03  0.7561462E-02  0.1274921E+00
         -1   -1    0    0    0  501 -0.00000000000E+00  0.00000000000E+00  0.16228096274E+03  0.16228096274E+03  0.00000000000E+00 0.  1.
          1   -1    0    0  501    0  0.00000000000E+00 -0.00000000000E+00 -0.78569896385E+02  0.78569896385E+02  0.00000000000E+00 0. -1.
         25    2    1    2    0    0 -0.19045512876E+02 -0.69551423889E+00  0.77410774308E+02  0.14833500615E+03  0.12509049033E+03 0.  0.
          5    1    3    3  502    0  0.45357353821E+02 -0.16159172751E+02  0.64708017381E+02  0.80765142995E+02  0.41800000000E+01 0.  1.
         -5    1    3    3    0  502 -0.64402866697E+02  0.15463658512E+02  0.12702756927E+02  0.67569863156E+02  0.41800000000E+01 0.  1.
        -11    1    1    2    0    0  0.33616890413E+02 -0.37059465784E+02  0.12504251308E+02  0.51573788168E+02  0.00000000000E+00 0.  1.
         11    1    1    2    0    0 -0.14571377537E+02  0.37754980022E+02 -0.62039592641E+01  0.40942064803E+02  0.00000000000E+00 0. -1.
</event>
<event>
 7    1  0.2641580E-009  0.1595821E+03  0.7561462E-02  0.1189169E+00
         -2   -1    0    0    0  501 -0.00000000000E+00  0.00000000000E+00  0.16268992234E+03  0.16268992234E+03  0.00000000000E+00 0.  1.
          2   -1    0    0  501    0  0.00000000000E+00 -0.00000000000E+00 -0.23270074568E+03  0.23270074568E+03  0.00000000000E+00 0. -1.
         25    2    1    2    0    0 -0.25819176114E+02 -0.13128060584E+03  0.55017707226E+02  0.19124865795E+03  0.12509146147E+03 0.  0.
          5    1    3    3  502    0 -0.58141230761E+02 -0.99759328810E+02 -0.54503318837E+01  0.11566980988E+03  0.41800000000E+01 0.  1.
         -5    1    3    3    0  502  0.32322054647E+02 -0.31521277030E+02  0.60468039109E+02  0.75578848073E+02  0.41800000000E+01 0.  1.
        -11    1    1    2    0    0  0.56510580924E+02  0.97077896475E+02 -0.10586100881E+03  0.15435062982E+03  0.00000000000E+00 0. -1.
         11    1    1    2    0    0 -0.30691404810E+02  0.34202709366E+02 -0.19167521748E+02  0.49791380249E+02  0.00000000000E+00 0.  1.
</event>
<event>
 7    1  0.2641580E-009  0.1125028E+03  0.7561462E-02  0.1256004E+00
         -2   -1    0    0    0  501 -0.00000000000E+00  0.00000000000E+00  0.29581254471E+02  0.29581254471E+02  0.00000000000E+00 0.  1.
          2   -1    0    0  501    0  0.00000000000E+00 -0.00000000000E+00 -0.60732098711E+03  0.60732098711E+03  0.00000000000E+00 0. -1.
         25    2    1    2    0    0 -0.74829235362E+02 -0.11931186187E+02 -0.28115074239E+03  0.31691419255E+03  0.12508836007E+03 0.  0.
          5    1    3    3  502    0 -0.94808871607E+01  0.39400722591E+02 -0.18647341965E+03  0.19087198013E+03  0.41800000000E+01 0. -1.
         -5    1    3    3    0  502 -0.65348348202E+02 -0.51331908778E+02 -0.94677322739E+02  0.12604221242E+03  0.41800000000E+01 0. -1.
        -11    1    1    2    0    0 -0.96563527509E+01 -0.98703924628E+01 -0.35816709510E+01  0.14265278217E+02  0.00000000000E+00 0.  1.
         11    1    1    2    0    0  0.84485588113E+02  0.21801578650E+02 -0.29300731930E+03  0.30572277081E+03  0.00000000000E+00 0. -1.
</event>
<event>
 7    1  0.2641580E-009  0.1318616E+03  0.7561462E-02  0.1224719E+00
          1   -1    0    0  501    0  0.00000000000E+00  0.00000000000E+00  0.56756433884E+03  0.56756433884E+03  0.00000000000E+00 0. -1.
         -1   -1    0    0    0  501 -0.00000000000E+00 -0.00000000000E+00 -0.42697669046E+02  0.42697669046E+02  0.00000000000E+00 0.  1.
         25    2    1    2    0    0  0.27631870876E+02 -0.98389677361E+02  0.36213144533E+03  0.39652354866E+03  0.12509073525E+03 0.  0.
          5    1    3    3  502    0 -0.15433197079E+02 -0.11033032490E+03  0.29862960994E+03  0.31876022414E+03  0.41800000000E+01 0. -1.
         -5    1    3    3    0  502  0.43065067955E+02  0.11940647538E+02  0.63501835398E+02  0.77763324521E+02  0.41800000000E+01 0. -1.
        -11    1    1    2    0    0 -0.51160353205E+01  0.73943260771E+02  0.35404468011E+02  0.82141682391E+02  0.00000000000E+00 0.  1.
         11    1    1    2    0    0 -0.22515835556E+02  0.24446416590E+02  0.12733075645E+03  0.13159677683E+03  0.00000000000E+00 0. -1.
</event>
<event>
 7    1  0.2641580E-009  0.1116836E+03  0.7561462E-02  0.1257483E+00
         -2   -1    0    0    0  501 -0.00000000000E+00  0.00000000000E+00  0.57498093138E+02  0.57498093138E+02  0.00000000000E+00 0.  1.
          2   -1    0    0  501    0  0.00000000000E+00 -0.00000000000E+00 -0.36234807351E+03  0.36234807351E+03  0.00000000000E+00 0. -1.
         25    2    1    2    0    0  0.46477606711E+02  0.71728784295E+02 -0.10741932140E+03  0.18571286263E+03  0.12508065524E+03 0.  0.
          5    1    3    3  502    0  0.16449462754E+01  0.75542710229E+02 -0.74956843551E+01  0.76046463435E+02  0.41800000000E+01 0.  1.
         -5    1    3    3    0  502  0.44832660436E+02 -0.38139259337E+01 -0.99923637042E+02  0.10966639920E+03  0.41800000000E+01 0.  1.
        -11    1    1    2    0    0 -0.58673196385E+02 -0.47931955877E+02 -0.67471021925E+02  0.10145124528E+03  0.00000000000E+00 0.  1.
         11    1    1    2    0    0  0.12195589674E+02 -0.23796828418E+02 -0.12995963705E+03  0.13268205874E+03  0.00000000000E+00 0. -1.
</event>
<event>
 7    1  0.2641580E-009  0.9504132E+02  0.7561462E-02  0.1291083E+00
          1   -1    0    0  501    0  0.00000000000E+00  0.00000000000E+00  0.15698166735E+02  0.15698166735E+02  0.00000000000E+00 0. -1.
         -1   -1    0    0    0  501 -0.00000000000E+00 -0.00000000000E+00 -0.10081374741E+04  0.10081374741E+04  0.00000000000E+00 0.  1.
         25    2    1    2    0    0 -0.38501752407E+02  0.26159959985E+02 -0.72604830634E+03  0.73821473478E+03  0.12509245805E+03 0.  0.
          5    1    3    3  502    0  0.33444851641E+02  0.11589239953E+00 -0.46318443897E+03  0.46440916058E+03  0.41800000000E+01 0.  1.
         -5    1    3    3    0  502 -0.71946604049E+02  0.26044067585E+02 -0.26286386737E+03  0.27380557419E+03  0.41800000000E+01 0.  1.
        -11    1    1    2    0    0 -0.15983472599E+02 -0.18945415711E+02 -0.16545983239E+02  0.29802176668E+02  0.00000000000E+00 0. -1.
         11    1    1    2    0    0  0.54485225006E+02 -0.72145442739E+01 -0.24984501781E+03  0.25581872941E+03  0.00000000000E+00 0.  1.
</event>
<event>
 7    1  0.2641580E-009  0.4009006E+03  0.7561462E-02  0.1043468E+00
          1   -1    0    0  501    0  0.00000000000E+00  0.00000000000E+00  0.83486722097E+03  0.83486722097E+03  0.00000000000E+00 0. -1.
         -1   -1    0    0    0  501 -0.00000000000E+00 -0.00000000000E+00 -0.27043488863E+03  0.27043488863E+03  0.00000000000E+00 0.  1.
         25    2    1    2    0    0 -0.72206390739E+02 -0.38255528814E+03 -0.56424426266E+01  0.40895367615E+03  0.12509580622E+03 0.  0.
          5    1    3    3  502    0 -0.44939984784E+02 -0.29566637894E+02  0.84228265222E+01  0.54609566153E+02  0.41800000000E+01 0.  1.
         -5    1    3    3    0  502 -0.27266405955E+02 -0.35298865024E+03 -0.14065269149E+02  0.35434411000E+03  0.41800000000E+01 0.  1.
        -11    1    1    2    0    0 -0.10466059038E+02  0.35257306785E+02  0.23947886734E+02  0.43887553503E+02  0.00000000000E+00 0.  1.
         11    1    1    2    0    0  0.82672449778E+02  0.34729798135E+03  0.54612688824E+03  0.65246087994E+03  0.00000000000E+00 0. -1.
</event>
<event>
 7    1  0.2641580E-009  0.1548134E+03  0.7561462E-02  0.1194680E+00
         -2   -1    0    0    0  501 -0.00000000000E+00  0.00000000000E+00  0.13825842735E+03  0.13825842735E+03  0.00000000000E+00 0.  1.
          2   -1    0    0  501    0  0.00000000000E+00 -0.00000000000E+00 -0.18465831022E+03  0.18465831022E+03  0.00000000000E+00 0. -1.
         25    2    1    2    0    0 -0.32009074050E+02  0.10420786065E+03 -0.59949734207E+02  0.17643074635E+03  0.12509987444E+03 0.  0.
          5    1    3    3  502    0 -0.60593133445E+01 -0.29065315611E+02 -0.83932340216E+01  0.31135616697E+02  0.41800000000E+01 0.  1.
         -5    1    3    3    0  502 -0.25949760706E+02  0.13327317626E+03 -0.51556500186E+02  0.14529512966E+03  0.41800000000E+01 0.  1.
        -11    1    1    2    0    0  0.63536437012E+02 -0.49034097448E+02  0.19709644411E+02  0.82641948329E+02  0.00000000000E+00 0. -1.
         11    1    1    2    0    0 -0.31527362962E+02 -0.55173763198E+02 -0.61597930723E+01  0.63844042882E+02  0.00000000000E+00 0.  1.
</event>
<event>
 7    1  0.2641580E-009  0.1862918E+03  0.7561462E-02  0.1161849E+00
          1   -1    0    0  501    0  0.00000000000E+00  0.00000000000E+00  0.10277572672E+04  0.10277572672E+04  0.00000000000E+00 0. -1.
         -1   -1    0    0    0  501 -0.00000000000E+00 -0.00000000000E+00 -0.49934517557E+02  0.49934517557E+02  0.00000000000E+00 0.  1.
         25    2    1    2    0    0 -0.19570162678E+02  0.15999430153E+03  0.78533374538E+03  0.81140469267E+03  0.12508923159E+03 0.  0.
          5    1    3    3  502    0  0.47427425849E+02  0.10852871800E+03  0.49584168074E+03  0.50980808950E+03  0.41800000000E+01 0. -1.
         -5    1    3    3    0  502 -0.66997588528E+02  0.51465583531E+02  0.28949206463E+03  0.30159660317E+03  0.41800000000E+01 0. -1.
        -11    1    1    2    0    0  0.34240288564E+02 -0.66012301916E+02  0.13775021354E+03  0.15654118530E+03  0.00000000000E+00 0. -1.
         11    1    1    2    0    0 -0.14670125886E+02 -0.93981999614E+02  0.54738790703E+02  0.10974590677E+03  0.00000000000E+00 0.  1.
</event>
<event>
 7    1  0.2641580E-009  0.1189706E+03  0.7561462E-02  0.1244805E+00
          2   -1    0    0  501    0  0.00000000000E+00  0.00000000000E+00  0.10580696857E+03  0.10580696857E+03  0.00000000000E+00 0. -1.
         -2   -1    0    0    0  501 -0.00000000000E+00 -0.00000000000E+00 -0.17454803271E+03  0.17454803271E+03  0.00000000000E+00 0.  1.
         25    2    1    2    0    0 -0.47915160533E+02 -0.63313974094E+02 -0.19508683794E+02  0.14943057702E+03  0.12507752268E+03 0.  0.
          5    1    3    3  502    0 -0.82643757851E+01 -0.76500084380E+02  0.31596372504E+02  0.83284848398E+02  0.41800000000E+01 0. -1.
         -5    1    3    3    0  502 -0.39650784748E+02  0.13186110286E+02 -0.51105056298E+02  0.66145728621E+02  0.41800000000E+01 0. -1.
        -11    1    1    2    0    0  0.52815095981E+02 -0.25170627422E+01 -0.90515743625E+01  0.53644207206E+02  0.00000000000E+00 0. -1.
         11    1    1    2    0    0 -0.48999354488E+01  0.65831036836E+02 -0.40180805981E+02  0.77280217052E+02  0.00000000000E+00 0.  1.
</event>
<event>
 7    1  0.2641580E-009  0.1164462E+03  0.7561462E-02  0.1249077E+00
         -1   -1    0    0    0  501 -0.00000000000E+00  0.00000000000E+00  0.17892363534E+03  0.17892363534E+03  0.00000000000E+00 0.  1.
          1   -1    0    0  501    0  0.00000000000E+00 -0.00000000000E+00 -0.11884415067E+03  0.11884415067E+03  0.00000000000E+00 0. -1.
         25    2    1    2    0    0 -0.47667013884E+02 -0.70672638952E+02 -0.11956732755E+02  0.15184582177E+03  0.12508966393E+03 0.  0.
          5    1    3    3  502    0 -0.38202672132E+02 -0.84532097769E+02 -0.53273970530E+02  0.10705469652E+03  0.41800000000E+01 0.  1.
         -5    1    3    3    0  502 -0.94643417523E+01  0.13859458817E+02  0.41317237775E+02  0.44791125246E+02  0.41800000000E+01 0.  1.
        -11    1    1    2    0    0  0.74008767218E+02  0.51990121334E+02  0.68454386892E+02  0.11342959678E+03  0.00000000000E+00 0.  1.
         11    1    1    2    0    0 -0.26341753334E+02  0.18682517618E+02  0.35818305344E+01  0.32492367461E+02  0.00000000000E+00 0. -1.
</event>
<event>
 7    1  0.2641580E-009  0.9152063E+02  0.7561462E-02  0.1299211E+00
          4   -1    0    0  501    0  0.00000000000E+00  0.00000000000E+00  0.10538590044E+03  0.10538590044E+03  0.00000000000E+00 0. -1.
         -4   -1    0    0    0  501 -0.00000000000E+00 -0.00000000000E+00 -0.11658809657E+03  0.11658809657E+03  0.00000000000E+00 0.  1.
         25    2    1    2    0    0 -0.15206184535E+02  0.17512214175E+02 -0.73068654176E+01  0.12743269677E+03  0.12509115169E+03 0.  0.
          5    1    3    3  502    0 -0.19603690928E+02 -0.37392284686E+02 -0.43996100493E+02  0.61119693312E+02  0.41800000000E+01 0. -1.
         -5    1    3    3    0  502  0.43975063927E+01  0.54904498860E+02  0.36689235075E+02  0.66313003461E+02  0.41800000000E+01 0. -1.
        -11    1    1    2    0    0 -0.89142038930E+01 -0.46682284741E+02  0.17992478502E+02  0.50817595598E+02  0.00000000000E+00 0. -1.
         11    1    1    2    0    0  0.24120388428E+02  0.29170070567E+02 -0.21887809211E+02  0.43723704633E+02  0.00000000000E+00 0.  1.
</event>
<event>
 7    1  0.2641580E-009  0.1038841E+03  0.7561462E-02  0.1272334E+00
          2   -1    0    0  501    0  0.00000000000E+00  0.00000000000E+00  0.79910460926E+03  0.79910460926E+03  0.00000000000E+00 0. -1.
         -2   -1    0    0    0  501 -0.00000000000E+00 -0.00000000000E+00 -0.18481184501E+02  0.18481184501E+02  0.00000000000E+00 0.  1.
         25    2    1    2    0    0  0.19749831880E+02  0.44109074885E+02  0.53179090059E+03  0.54843829214E+03  0.12508929608E+03 0.  0.
          5    1    3    3  502    0  0.56172790844E+02  0.56345108888E+02  0.46052942684E+03  0.46737028052E+03  0.41800000000E+01 0. -1.
         -5    1    3    3    0  502 -0.36422958965E+02 -0.12236034003E+02  0.71261473748E+02  0.81068011624E+02  0.41800000000E+01 0. -1.
        -11    1    1    2    0    0  0.22676244276E+02  0.63236781026E+01  0.13961730050E+03  0.14158810528E+03  0.00000000000E+00 0. -1.
         11    1    1    2    0    0 -0.42426076156E+02 -0.50432752987E+02  0.10921522368E+03  0.12755939634E+03  0.00000000000E+00 0.  1.
</event>
<event>
 7    1  0.2641580E-009  0.9036688E+02  0.7561462E-02  0.1301966E+00
         -1   -1    0    0    0  501 -0.00000000000E+00  0.00000000000E+00  0.11978533229E+02  0.11978533229E+02  0.00000000000E+00 0.  1.
          1   -1    0    0  501    0  0.00000000000E+00 -0.00000000000E+00 -0.10709007891E+04  0.10709007891E+04  0.00000000000E+00 0. -1.
         25    2    1    2    0    0 -0.13729426227E+02  0.11466990033E+01 -0.74273748504E+03  0.75332414461E+03  0.12509389713E+03 0.  0.
          5    1    3    3  502    0 -0.46286212472E+02 -0.21728214471E+02 -0.65370943088E+03  0.65571946836E+03  0.41800000000E+01 0.  1.
         -5    1    3    3    0  502  0.32556786245E+02  0.22874913474E+02 -0.89028054168E+02  0.97604676251E+02  0.41800000000E+01 0.  1.
        -11    1    1    2    0    0 -0.13750049952E+02  0.38671014229E+02 -0.19071353290E+03  0.19507988837E+03  0.00000000000E+00 0. -1.
         11    1    1    2    0    0  0.27479476179E+02 -0.39817713233E+02 -0.12547123791E+03  0.13447528933E+03  0.00000000000E+00 0.  1.
</event>
<event>
 7    1  0.2641580E-009  0.8808828E+02  0.7561462E-02  0.1307548E+00
          2   -1    0    0  501    0  0.00000000000E+00  0.00000000000E+00  0.53475043788E+03  0.53475043788E+03  0.00000000000E+00 0. -1.
         -2   -1    0    0    0  501 -0.00000000000E+00 -0.00000000000E+00 -0.31734974936E+02  0.31734974936E+02  0.00000000000E+00 0.  1.
         25    2    1    2    0    0  0.82527379223E+01 -0.17048151085E+02  0.45108376648E+03  0.46848902836E+03  0.12508660270E+03 0.  0.
          5    1    3    3  502    0 -0.42004528535E+02 -0.50253732890E+02  0.25567929344E+03  0.26396816395E+03  0.41800000000E+01 0.  1.
         -5    1    3    3    0  502  0.50257266457E+02  0.33205581805E+02  0.19540447304E+03  0.20452086441E+03  0.41800000000E+01 0.  1.
        -11    1    1    2    0    0 -0.21559066502E+02 -0.70122315371E+01 -0.13942172574E+02  0.26614825111E+02  0.00000000000E+00 0.  1.
         11    1    1    2    0    0  0.13306328580E+02  0.24060382622E+02  0.65873869040E+02  0.71381559345E+02  0.00000000000E+00 0. -1.
</event>
<event>
 7    1  0.2641580E-009  0.1699916E+03  0.7561462E-02  0.1177857E+00
         -2   -1    0    0    0  501 -0.00000000000E+00  0.00000000000E+00  0.47727198598E+02  0.47727198598E+02  0.00000000000E+00 0.  1.
          2   -1    0    0  501    0  0.00000000000E+00 -0.00000000000E+00 -0.61740927267E+03  0.61740927267E+03  0.00000000000E+00 0. -1.
         25    2    1    2    0    0 -0.13211251148E+03 -0.32708249338E+02 -0.30493312685E+03  0.35658684685E+03  0.12508565956E+03 0.  0.
          5    1    3    3  502    0 -0.45528815061E+02  0.47495410152E+02 -0.93446632149E+02  0.11436097432E+03  0.41800000000E+01 0. -1.
         -5    1    3    3    0  502 -0.86583696421E+02 -0.80203659490E+02 -0.21148649471E+03  0.24222587253E+03  0.41800000000E+01 0. -1.
        -11    1    1    2    0    0  0.58333617583E+02  0.53664747269E+02 -0.16179287211E+03  0.18016561688E+03  0.00000000000E+00 0. -1.
         11    1    1    2    0    0  0.73778893899E+02 -0.20956497931E+02 -0.10295607510E+03  0.12838400754E+03  0.00000000000E+00 0.  1.
</event>
<event>
 7    1  0.2641580E-009  0.1095346E+03  0.7561462E-02  0.1261434E+00
         -1   -1    0    0    0  501 -0.00000000000E+00  0.00000000000E+00  0.38459029072E+02  0.38459029072E+02  0.00000000000E+00 0.  1.
          1   -1    0    0  501    0  0.00000000000E+00 -0.00000000000E+00 -0.73402988923E+03  0.73402988923E+03  0.00000000000E+00 0. -1.
         25    2    1    2    0    0 -0.38896537347E+02 -0.28857798226E+02 -0.64058305337E+03  0.65447670334E+03  0.12508954316E+03 0.  0.
          5    1    3    3  502    0 -0.44430668189E+02  0.42972846236E+02 -0.30159274551E+03  0.30789025047E+03  0.41800000000E+01 0.  1.
         -5    1    3    3    0  502  0.55341308415E+01 -0.71830644462E+02 -0.33899030786E+03  0.34658645287E+03  0.41800000000E+01 0.  1.
        -11    1    1    2    0    0  0.11726353367E+02  0.49474011616E+02 -0.64946418498E+02  0.82481649258E+02  0.00000000000E+00 0. -1.
         11    1    1    2    0    0  0.27170183980E+02 -0.20616213390E+02  0.99586117125E+01  0.35530565705E+02  0.00000000000E+00 0.  1.
</event>
<event>
 7    1  0.2641580E-009  0.7672228E+02  0.7561462E-02  0.1338619E+00
          2   -1    0    0  501    0  0.00000000000E+00  0.00000000000E+00  0.37557342166E+03  0.37557342166E+03  0.00000000000E+00 0. -1.
         -2   -1    0    0    0  501 -0.00000000000E+00 -0.00000000000E+00 -0.49782281881E+02  0.49782281881E+02  0.00000000000E+00 0.  1.
         25    2    1    2    0    0  0.72596955450E+01  0.26298672809E+02  0.58358773267E+02  0.14070448715E+03  0.12509069876E+03 0.  0.
          5    1    3    3  502    0  0.37495970269E+02  0.22503038406E+02 -0.25907380680E+02  0.50999993114E+02  0.41800000000E+01 0. -1.
         -5    1    3    3    0  502 -0.30236274724E+02  0.37956344034E+01  0.84266153947E+02  0.89704494039E+02  0.41800000000E+01 0. -1.
        -11    1    1    2    0    0 -0.21286461265E+02  0.20710315848E+02  0.30038189792E+02  0.42241253079E+02  0.00000000000E+00 0. -1.
         11    1    1    2    0    0  0.14026765720E+02 -0.47008988658E+02  0.23739417672E+03  0.24240996331E+03  0.00000000000E+00 0.  1.
</event>
<event>
 7    1  0.2641580E-009  0.2059945E+03  0.7561462E-02  0.1144778E+00
          1   -1    0    0  501    0  0.00000000000E+00  0.00000000000E+00  0.12155833723E+03  0.12155833723E+03  0.00000000000E+00 0. -1.
         -1   -1    0    0    0  501 -0.00000000000E+00 -0.00000000000E+00 -0.36901147634E+03  0.36901147634E+03  0.00000000000E+00 0.  1.
         25    2    1    2    0    0 -0.17475351198E+03 -0.49351891994E+02 -0.12803927142E+03  0.25498429640E+03  0.12509411334E+03 0.  0.
          5    1    3    3  502    0 -0.80663246021E+01  0.26698896335E+02 -0.46533412641E+02  0.54412567943E+02  0.41800000000E+01 0.  1.
         -5    1    3    3    0  502 -0.16668718737E+03 -0.76050788328E+02 -0.81505858782E+02  0.20057172846E+03  0.41800000000E+01 0.  1.
        -11    1    1    2    0    0  0.50653623266E+02 -0.24333570086E+02 -0.50905624069E+02  0.75824103984E+02  0.00000000000E+00 0.  1.
         11    1    1    2    0    0  0.12409988871E+03  0.73685462080E+02 -0.68508243623E+02  0.15976141319E+03  0.00000000000E+00 0. -1.
</event>
<event>
 7    1  0.2778361E-009  0.1403302E+03  0.7561462E-02  0.1212885E+00
          2   -1    0    0  501    0  0.00000000000E+00  0.00000000000E+00  0.27035097022E+03  0.27035097022E+03  0.00000000000E+00 0. -1.
         -2   -1    0    0    0  501 -0.00000000000E+00 -0.00000000000E+00 -0.10528722373E+03  0.10528722373E+03  0.00000000000E+00 0.  1.
         25    2    1    2    0    0  0.11908144464E+03  0.31064435726E+02  0.46300274135E+02  0.18148383859E+03  0.12508908289E+03 0.  0.
          5    1    3    3  502    0 -0.16394853578E+02 -0.11221326071E+00 -0.21006704582E+02  0.26973280355E+02  0.41800000000E+01 0.  1.
         -5    1    3    3    0  502  0.13547629822E+03  0.31176648987E+02  0.67306978717E+02  0.15451055823E+03  0.41800000000E+01 0.  1.
        -11    1    1    2    0    0 -0.21588372424E+02 -0.13877959578E+02 -0.13458378092E+02  0.28979018735E+02  0.00000000000E+00 0.  1.
         11    1    1    2    0    0 -0.97493072220E+02 -0.17186476149E+02  0.13222185045E+03  0.16517533662E+03  0.00000000000E+00 0. -1.
</event>
<event>
 7    1  0.2641580E-009  0.1524851E+03  0.7561462E-02  0.1197452E+00
         -1   -1    0    0    0  501 -0.00000000000E+00  0.00000000000E+00  0.89173046316E+02  0.89173046316E+02  0.00000000000E+00 0.  1.
          1   -1    0    0  501    0  0.00000000000E+00 -0.00000000000E+00 -0.29105221017E+03  0.29105221017E+03  0.00000000000E+00 0. -1.
         25    2    1    2    0    0  0.11316217725E+03 -0.19137138771E+02 -0.15036971217E+03  0.22677594883E+03  0.12507746476E+03 0.  0.
          5    1    3    3  502    0  0.13033740612E+03  0.15027229706E+02 -0.11483288988E+03  0.17440677184E+03  0.41800000000E+01 0. -1.
         -5    1    3    3    0  502 -0.17175228870E+02 -0.34164368476E+02 -0.35536822296E+02  0.52369176994E+02  0.41800000000E+01 0. -1.
        -11    1    1    2    0    0 -0.82811655213E+01  0.28747020628E+02 -0.36296033270E+02  0.47035847271E+02  0.00000000000E+00 0. -1.
         11    1    1    2    0    0 -0.10488101173E+03 -0.96098818569E+01 -0.15213418408E+02  0.10641346038E+03  0.00000000000E+00 0.  1.
</event>
<event>
 7    1  0.2641580E-009  0.1307607E+03  0.7561462E-02  0.1226331E+00
         -2   -1    0    0    0  501 -0.00000000000E+00  0.00000000000E+00  0.35619492573E+02  0.35619492573E+02  0.00000000000E+00 0. -1.
          2   -1    0    0  501    0  0.00000000000E+00 -0.00000000000E+00 -0.75525820945E+03  0.75525820945E+03  0.00000000000E+00 0.  1.
         25    2    1    2    0    0 -0.25494439249E+02 -0.11980994066E+03 -0.35853236843E+03  0.39899429202E+03  0.12508636033E+03 0.  0.
          5    1    3    3  502    0  0.70707132265E+01 -0.20025305572E+02  0.35927284275E+01  0.21940554832E+02  0.41800000000E+01 0. -1.
         -5    1    3    3    0  502 -0.32565152475E+02 -0.99784635090E+02 -0.36212509685E+03  0.37705373719E+03  0.41800000000E+01 0. -1.
        -11    1    1    2    0    0  0.37431707090E+02  0.42626874875E+02 -0.24817670754E+03  0.25457780996E+03  0.00000000000E+00 0.  1.
         11    1    1    2    0    0 -0.11937267841E+02  0.77183065788E+02 -0.11292964092E+03  0.13730560005E+03  0.00000000000E+00 0. -1.
</event>
<event>
 7    1  0.2641580E-009  0.1048375E+03  0.7561462E-02  0.1270440E+00
          2   -1    0    0  501    0  0.00000000000E+00  0.00000000000E+00  0.10272377363E+03  0.10272377363E+03  0.00000000000E+00 0. -1.
         -2   -1    0    0    0  501 -0.00000000000E+00 -0.00000000000E+00 -0.24947664702E+03  0.24947664702E+03  0.00000000000E+00 0.  1.
         25    2    1    2    0    0 -0.19784620271E+02 -0.81375103205E+02 -0.18138889340E+03  0.23571858821E+03  0.12509190044E+03 0.  0.
          5    1    3    3  502    0  0.97477483195E+01 -0.87623507343E+02 -0.18505355820E+03  0.20502485078E+03  0.41800000000E+01 0.  1.
         -5    1    3    3    0  502 -0.29532368591E+02  0.62484041378E+01  0.36646647990E+01  0.30693737422E+02  0.41800000000E+01 0.  1.
        -11    1    1    2    0    0  0.26638823075E+02  0.34618065554E+02 -0.16646869351E+02  0.46745648105E+02  0.00000000000E+00 0.  1.
         11    1    1    2    0    0 -0.68542028038E+01  0.46757037651E+02  0.51282889361E+02  0.69736184347E+02  0.00000000000E+00 0. -1.
</event>
<event>
 7    1  0.2641580E-009  0.9973994E+02  0.7561462E-02  0.1280844E+00
         -2   -1    0    0    0  501 -0.00000000000E+00  0.00000000000E+00  0.25940081200E+03  0.25940081200E+03  0.00000000000E+00 0.  1.
          2   -1    0    0  501    0  0.00000000000E+00 -0.00000000000E+00 -0.56884902400E+02  0.56884902400E+02  0.00000000000E+00 0. -1.
         25    2    1    2    0    0 -0.24586770294E+01 -0.51888509819E+02  0.14132235686E+03  0.19574973169E+03  0.12508991313E+03 0.  0.
          5    1    3    3  502    0 -0.12119154593E+02  0.36548547250E+02  0.15774884055E+02  0.41820922768E+02  0.41800000000E+01 0.  1.
         -5    1    3    3    0  502  0.96604775640E+01 -0.88437057069E+02  0.12554747280E+03  0.15392880893E+03  0.41800000000E+01 0.  1.
        -11    1    1    2    0    0 -0.21538487118E+02  0.10777070337E+02 -0.16658320570E+02  0.29283977131E+02  0.00000000000E+00 0. -1.
         11    1    1    2    0    0  0.23997164147E+02  0.41111439482E+02  0.77851873307E+02  0.91252005572E+02  0.00000000000E+00 0.  1.
</event>
<event>
 7    1  0.2641580E-009  0.9465806E+02  0.7561462E-02  0.1291948E+00
         -2   -1    0    0    0  501 -0.00000000000E+00  0.00000000000E+00  0.13460055469E+02  0.13460055469E+02  0.00000000000E+00 0.  1.
          2   -1    0    0  501    0  0.00000000000E+00 -0.00000000000E+00 -0.87466608022E+03  0.87466608022E+03  0.00000000000E+00 0. -1.
         25    2    1    2    0    0  0.11737611985E+02 -0.34341026070E+01 -0.61835022035E+03  0.63099415488E+03  0.12508822441E+03 0.  0.
          5    1    3    3  502    0  0.14579761486E+02  0.51117872503E+02 -0.46698680337E+03  0.47002101364E+03  0.41800000000E+01 0.  1.
         -5    1    3    3    0  502 -0.28421495010E+01 -0.54551975110E+02 -0.15136341698E+03  0.16097314124E+03  0.41800000000E+01 0.  1.
        -11    1    1    2    0    0 -0.42492003466E+02  0.19224715354E+02 -0.10300700045E+03  0.11307343712E+03  0.00000000000E+00 0.  1.
         11    1    1    2    0    0  0.30754391480E+02 -0.15790612747E+02 -0.13984880394E+03  0.14405854369E+03  0.00000000000E+00 0. -1.
</event>
<event>
 7    1  0.2641580E-009  0.8646115E+02  0.7561462E-02  0.1311655E+00
         -1   -1    0    0    0  501 -0.00000000000E+00  0.00000000000E+00  0.14036669627E+02  0.14036669627E+02  0.00000000000E+00 0.  1.
          1   -1    0    0  501    0  0.00000000000E+00 -0.00000000000E+00 -0.12774646814E+04  0.12774646814E+04  0.00000000000E+00 0. -1.
         25    2    1    2    0    0  0.52110285842E+02 -0.59858711982E+00 -0.98393102194E+03  0.99321824405E+03  0.12508550746E+03 0.  0.
          5    1    3    3  502    0  0.40827974940E+02 -0.22325227980E+02 -0.11773517249E+03  0.12666642248E+03  0.41800000000E+01 0.  1.
         -5    1    3    3    0  502  0.11282310902E+02  0.21726640861E+02 -0.86619584946E+03  0.86655182158E+03  0.41800000000E+01 0.  1.
        -11    1    1    2    0    0  0.15229448918E+02 -0.25042535094E+02 -0.52543123246E+02  0.60165143387E+02  0.00000000000E+00 0. -1.
         11    1    1    2    0    0 -0.67339734760E+02  0.25641122213E+02 -0.22695386658E+03  0.23811796358E+03  0.00000000000E+00 0.  1.
</event>
<event>
 7    1  0.2641580E-009  0.9722226E+02  0.7561462E-02  0.1286248E+00
          3   -1    0    0  501    0  0.00000000000E+00  0.00000000000E+00  0.27203006254E+03  0.27203006254E+03  0.00000000000E+00 0. -1.
         -3   -1    0    0    0  501 -0.00000000000E+00 -0.00000000000E+00 -0.43154254088E+02  0.43154254088E+02  0.00000000000E+00 0.  1.
         25    2    1    2    0    0 -0.14799415600E+01 -0.10013272318E+02  0.12824844888E+03  0.17943838070E+03  0.12509201405E+03 0.  0.
          5    1    3    3  502    0 -0.31464474806E+02  0.48719254129E+02  0.47368596848E+02  0.74998901759E+02  0.41800000000E+01 0. -1.
         -5    1    3    3    0  502  0.29984533246E+02 -0.58732526448E+02  0.80879852035E+02  0.10443947894E+03  0.41800000000E+01 0. -1.
        -11    1    1    2    0    0 -0.18279123186E+02 -0.24430989445E+02  0.89424334715E+02  0.94486566394E+02  0.00000000000E+00 0. -1.
         11    1    1    2    0    0  0.19759064746E+02  0.34444261763E+02  0.11203024850E+02  0.41259369528E+02  0.00000000000E+00 0.  1.
</event>
<event>
 7    1  0.2641580E-009  0.2479221E+03  0.7561462E-02  0.1114625E+00
         -1   -1    0    0    0  501 -0.00000000000E+00  0.00000000000E+00  0.14764865769E+04  0.14764865769E+04  0.00000000000E+00 0.  1.
          1   -1    0    0  501    0  0.00000000000E+00 -0.00000000000E+00 -0.93559381458E+02  0.93559381458E+02  0.00000000000E+00 0. -1.
         25    2    1    2    0    0  0.13151623247E+03  0.19069180242E+03  0.12667839890E+04  0.12938502124E+04  0.12508722704E+03 0.  0.
          5    1    3    3  502    0  0.18165032274E+02  0.12770689314E+03  0.51321207009E+03  0.52919100544E+03  0.41800000000E+01 0.  1.
         -5    1    3    3    0  502  0.11335120020E+03  0.62984909275E+02  0.75357191894E+03  0.76465920697E+03  0.41800000000E+01 0.  1.
        -11    1    1    2    0    0 -0.26085917114E+02 -0.10191319554E+02 -0.12583676740E+02  0.30703208077E+02  0.00000000000E+00 0. -1.
         11    1    1    2    0    0 -0.10543031536E+03 -0.18050048286E+03  0.12872688317E+03  0.24549253789E+03  0.00000000000E+00 0.  1.
</event>
<event>
 7    1  0.2641580E-009  0.1312633E+03  0.7561462E-02  0.1225593E+00
         -2   -1    0    0    0  501 -0.00000000000E+00  0.00000000000E+00  0.61975422542E+02  0.61975422542E+02  0.00000000000E+00 0.  1.
          2   -1    0    0  501    0  0.00000000000E+00 -0.00000000000E+00 -0.34765300663E+03  0.34765300663E+03  0.00000000000E+00 0. -1.
         25    2    1    2    0    0  0.73593787156E+02 -0.66617196874E+02 -0.12999013906E+03  0.20591456344E+03  0.12509786071E+03 0.  0.
          5    1    3    3  502    0  0.87310100191E+02 -0.74576591389E+02 -0.51825396174E+02  0.12604787054E+03  0.41800000000E+01 0.  1.
         -5    1    3    3    0  502 -0.13716313035E+02  0.79593945150E+01 -0.78164742883E+02  0.79866692897E+02  0.41800000000E+01 0.  1.
        -11    1    1    2    0    0 -0.90540932411E+02  0.69364477685E+02 -0.13851808206E+03  0.17943341457E+03  0.00000000000E+00 0.  1.
         11    1    1    2    0    0  0.16947145255E+02 -0.27472808108E+01 -0.17169362978E+02  0.24280451174E+02  0.00000000000E+00 0. -1.
</event>
<event>
 7    1  0.2641580E-009  0.7670101E+02  0.7561462E-02  0.1338683E+00
         -1   -1    0    0    0  501 -0.00000000000E+00  0.00000000000E+00  0.10227204896E+03  0.10227204896E+03  0.00000000000E+00 0.  1.
          1   -1    0    0  501    0  0.00000000000E+00 -0.00000000000E+00 -0.12315262135E+03  0.12315262135E+03  0.00000000000E+00 0. -1.
         25    2    1    2    0    0 -0.28774941432E+02 -0.23097067379E+02 -0.12665397507E+02  0.13102902627E+03  0.12508685644E+03 0.  0.
          5    1    3    3  502    0 -0.40256243761E+02 -0.10229748227E+02 -0.64169859877E+02  0.76553616682E+02  0.41800000000E+01 0.  1.
         -5    1    3    3    0  502  0.11481302329E+02 -0.12867319152E+02  0.51504462370E+02  0.54475409584E+02  0.41800000000E+01 0.  1.
        -11    1    1    2    0    0 -0.53292868691E+00  0.52438324402E+02 -0.70046668388E+01  0.52906778740E+02  0.00000000000E+00 0. -1.
         11    1    1    2    0    0  0.29307870119E+02 -0.29341257023E+02 -0.12105080520E+01  0.41488865306E+02  0.00000000000E+00 0.  1.
</event>
<event>
 7    1  0.2641580E-009  0.2025871E+03  0.7561462E-02  0.1147574E+00
          1   -1    0    0  501    0  0.00000000000E+00  0.00000000000E+00  0.86483490458E+03  0.86483490458E+03  0.00000000000E+00 0. -1.
         -1   -1    0    0    0  501 -0.00000000000E+00 -0.00000000000E+00 -0.59043996256E+02  0.59043996256E+02  0.00000000000E+00 0.  1.
         25    2    1    2    0    0  0.11674905920E+03  0.14598846707E+03  0.54981740661E+03  0.59404547203E+03  0.12509143409E+03 0.  0.
          5    1    3    3  502    0  0.87971258558E+02  0.15972521884E+03  0.51640215495E+03  0.54766755053E+03  0.41800000000E+01 0. -1.
         -5    1    3    3    0  502  0.28777800646E+02 -0.13736751767E+02  0.33415251660E+02  0.46377921499E+02  0.41800000000E+01 0. -1.
        -11    1    1    2    0    0 -0.95655521227E+02 -0.13831706368E+03  0.25726103650E+03  0.30735131324E+03  0.00000000000E+00 0.  1.
         11    1    1    2    0    0 -0.21093537976E+02 -0.76714033852E+01 -0.12875347963E+01  0.22482115561E+02  0.00000000000E+00 0. -1.
</event>
<event>
 7    1  0.2641580E-009  0.4231588E+03  0.7561462E-02  0.1036043E+00
         -2   -1    0    0    0  501 -0.00000000000E+00  0.00000000000E+00  0.31457332343E+03  0.31457332343E+03  0.00000000000E+00 0.  1.
          2   -1    0    0  501    0  0.00000000000E+00 -0.00000000000E+00 -0.58344014751E+03  0.58344014751E+03  0.00000000000E+00 0. -1.
         25    2    1    2    0    0  0.20213998479E+02  0.41066291436E+03 -0.18955493129E+03  0.46971451652E+03  0.12509204645E+03 0.  0.
          5    1    3    3  502    0 -0.48679303321E+02  0.20149188326E+03 -0.11551692154E+03  0.23734002012E+03  0.41800000000E+01 0.  1.
         -5    1    3    3    0  502  0.68893301800E+02  0.20917103111E+03 -0.74038009750E+02  0.23237449640E+03  0.41800000000E+01 0.  1.
        -11    1    1    2    0    0  0.29979517499E+02 -0.19531166699E+03 -0.15772341330E+02  0.19822761030E+03  0.00000000000E+00 0.  1.
         11    1    1    2    0    0 -0.50193515978E+02 -0.21535124737E+03 -0.63539551458E+02  0.23007134413E+03  0.00000000000E+00 0. -1.
</event>
<event>
 7    1  0.2641580E-009  0.9707343E+02  0.7561462E-02  0.1286573E+00
         -3   -1    0    0    0  501 -0.00000000000E+00  0.00000000000E+00  0.56742004515E+02  0.56742004515E+02  0.00000000000E+00 0. -1.
          3   -1    0    0  501    0  0.00000000000E+00 -0.00000000000E+00 -0.38206526985E+03  0.38206526985E+03  0.00000000000E+00 0.  1.
         25    2    1    2    0    0 -0.70551164221E+02  0.24441999748E+02 -0.26003640616E+03  0.29806245326E+03  0.12508962942E+03 0.  0.
          5    1    3    3  502    0 -0.51466525226E+02 -0.25108864306E+02 -0.22969651765E+03  0.23676406169E+03  0.41800000000E+01 0.  1.
         -5    1    3    3    0  502 -0.19084638995E+02  0.49550864054E+02 -0.30339888505E+02  0.61298391566E+02  0.41800000000E+01 0.  1.
        -11    1    1    2    0    0  0.11173672828E+02 -0.21243391491E+02 -0.76549163204E+02  0.80224105066E+02  0.00000000000E+00 0.  1.
         11    1    1    2    0    0  0.59377491392E+02 -0.31986082572E+01  0.11262304024E+02  0.60520716046E+02  0.00000000000E+00 0. -1.
</event>
<event>
 7    1  0.2777912E-009  0.1314035E+03  0.7561462E-02  0.1225388E+00
         -2   -1    0    0    0  501 -0.00000000000E+00  0.00000000000E+00  0.66434703898E+02  0.66434703898E+02  0.00000000000E+00 0.  1.
          2   -1    0    0  501    0  0.00000000000E+00 -0.00000000000E+00 -0.35722284431E+03  0.35722284431E+03  0.00000000000E+00 0. -1.
         25    2    1    2    0    0  0.47691451983E+02 -0.97635290489E+02 -0.14371127823E+03  0.21933378093E+03  0.12508897404E+03 0.  0.
          5    1    3    3  502    0  0.70545428891E+02 -0.10371986464E+03 -0.14892495509E+03  0.19475775339E+03  0.41800000000E+01 0. -1.
         -5    1    3    3    0  502 -0.22853976908E+02  0.60845741473E+01  0.52136768659E+01  0.24576027538E+02  0.41800000000E+01 0. -1.
        -11    1    1    2    0    0 -0.18785436117E+02  0.10591188381E+02  0.89395915059E+01  0.23344853346E+02  0.00000000000E+00 0.  1.
         11    1    1    2    0    0 -0.28906015866E+02  0.87044102108E+02 -0.15601645368E+03  0.18097891392E+03  0.00000000000E+00 0. -1.
</event>
<event>
 7    1  0.2641580E-009  0.1174069E+03  0.7561462E-02  0.1247437E+00
         -1   -1    0    0    0  501 -0.00000000000E+00  0.00000000000E+00  0.60242825775E+02  0.60242825775E+02  0.00000000000E+00 0.  1.
          1   -1    0    0  501    0  0.00000000000E+00 -0.00000000000E+00 -0.49737787923E+03  0.49737787923E+03  0.00000000000E+00 0. -1.
         25    2    1    2    0    0  0.11823578209E+02 -0.10183241138E+03 -0.35519971801E+03  0.39028692551E+03  0.12508959805E+03 0.  0.
          5    1    3    3  502    0 -0.14219729372E+02 -0.59456514968E+02 -0.44817420968E+02  0.75916740563E+02  0.41800000000E+01 0.  1.
         -5    1    3    3    0  502  0.26043307581E+02 -0.42375896414E+02 -0.31038229704E+03  0.31437018494E+03  0.41800000000E+01 0.  1.
        -11    1    1    2    0    0 -0.40439726923E+02  0.48940837004E+02  0.26591615985E+01  0.63542491143E+02  0.00000000000E+00 0.  1.
         11    1    1    2    0    0  0.28616148714E+02  0.52891574378E+02 -0.84594497043E+02  0.10379128835E+03  0.00000000000E+00 0. -1.
</event>
<event>
 7    1  0.3903334E-009  0.1774491E+03  0.7561462E-02  0.1170295E+00
         -2   -1    0    0    0  501 -0.00000000000E+00  0.00000000000E+00  0.60887876443E+02  0.60887876443E+02  0.00000000000E+00 0.  1.
          2   -1    0    0  501    0  0.00000000000E+00 -0.00000000000E+00 -0.61926108267E+03  0.61926108267E+03  0.00000000000E+00 0. -1.
         25    2    1    2    0    0 -0.73487967119E+02 -0.12761621927E+03 -0.40523399246E+03  0.44894169952E+03  0.12509068784E+03 0.  0.
          5    1    3    3  502    0 -0.95199709387E+02 -0.13209782457E+03 -0.38718336140E+03  0.42004910150E+03  0.41800000000E+01 0.  1.
         -5    1    3    3    0  502  0.21711742268E+02  0.44816053009E+01 -0.18050631062E+02  0.28892598017E+02  0.41800000000E+01 0.  1.
        -11    1    1    2    0    0  0.20061666384E+01  0.87430762835E+02 -0.10288035495E+03  0.13502788760E+03  0.00000000000E+00 0. -1.
         11    1    1    2    0    0  0.71481800480E+02  0.40185456439E+02 -0.50258858813E+02  0.96179372000E+02  0.00000000000E+00 0.  1.
</event>
<event>
 7    1  0.2641580E-009  0.1409206E+03  0.7561462E-02  0.1212096E+00
         -2   -1    0    0    0  501 -0.00000000000E+00  0.00000000000E+00  0.13516146126E+03  0.13516146126E+03  0.00000000000E+00 0.  1.
          2   -1    0    0  501    0  0.00000000000E+00 -0.00000000000E+00 -0.29661395754E+03  0.29661395754E+03  0.00000000000E+00 0. -1.
         25    2    1    2    0    0 -0.40866024868E+02  0.98161378658E+02 -0.22455206885E+03  0.27817008022E+03  0.12509705695E+03 0.  0.
          5    1    3    3  502    0  0.29569841742E+02  0.86979016673E+02 -0.11284123428E+03  0.14556902636E+03  0.41800000000E+01 0.  1.
         -5    1    3    3    0  502 -0.70435866610E+02  0.11182361985E+02 -0.11171083458E+03  0.13260105387E+03  0.41800000000E+01 0.  1.
        -11    1    1    2    0    0 -0.32869649189E+01 -0.59967450747E+02 -0.91138005073E+01  0.60745046277E+02  0.00000000000E+00 0. -1.
         11    1    1    2    0    0  0.44152989787E+02 -0.38193927911E+02  0.72213373076E+02  0.92860292307E+02  0.00000000000E+00 0.  1.
</event>
<event>
 7    1  0.2641580E-009  0.1271682E+03  0.7561462E-02  0.1231719E+00
          1   -1    0    0  501    0  0.00000000000E+00  0.00000000000E+00  0.28567734891E+02  0.28567734891E+02  0.00000000000E+00 0. -1.
         -1   -1    0    0    0  501 -0.00000000000E+00 -0.00000000000E+00 -0.75377597048E+03  0.75377597048E+03  0.00000000000E+00 0.  1.
         25    2    1    2    0    0  0.94915494443E+02 -0.20982279592E+02 -0.52818322179E+03  0.55142928747E+03  0.12509011215E+03 0.  0.
          5    1    3    3  502    0 -0.13188785271E+02  0.33140477608E+02 -0.91334901182E+02  0.98141591015E+02  0.41800000000E+01 0.  1.
         -5    1    3    3    0  502  0.10810427971E+03 -0.54122757200E+02 -0.43684832061E+03  0.45328769646E+03  0.41800000000E+01 0.  1.
        -11    1    1    2    0    0 -0.21556260096E+02  0.77842745175E+01 -0.30616164643E+01  0.23122300372E+02  0.00000000000E+00 0. -1.
         11    1    1    2    0    0 -0.73359234347E+02  0.13198005075E+02 -0.19396339733E+03  0.20779211753E+03  0.00000000000E+00 0.  1.
</event>
<event>
 7    1  0.2641580E-009  0.1262743E+03  0.7561462E-02  0.1233091E+00
         -3   -1    0    0    0  501 -0.00000000000E+00  0.00000000000E+00  0.98105219126E+02  0.98105219126E+02  0.00000000000E+00 0.  1.
          3   -1    0    0  501    0  0.00000000000E+00 -0.00000000000E+00 -0.24391904203E+03  0.24391904203E+03  0.00000000000E+00 0. -1.
         25    2    1    2    0    0  0.97651140480E+02 -0.70814931627E+01 -0.13120963371E+03  0.20603454885E+03  0.12509346329E+03 0.  0.
          5    1    3    3  502    0  0.84890567613E+02  0.46492457626E+02 -0.53416583530E+02  0.11062893329E+03  0.41800000000E+01 0. -1.
         -5    1    3    3    0  502  0.12760572867E+02 -0.53573950789E+02 -0.77793050178E+02  0.95405615552E+02  0.41800000000E+01 0. -1.
        -11    1    1    2    0    0 -0.90181750796E+02  0.51397538778E-01  0.26204379712E+02  0.93911768882E+02  0.00000000000E+00 0.  1.
         11    1    1    2    0    0 -0.74693896839E+01  0.70300956239E+01 -0.40808568905E+02  0.42077943424E+02  0.00000000000E+00 0. -1.
</event>
<event>
 7    1  0.3416786E-009  0.1044736E+03  0.7561462E-02  0.1271160E+00
         -2   -1    0    0    0  501 -0.00000000000E+00  0.00000000000E+00  0.28084779006E+02  0.28084779006E+02  0.00000000000E+00 0. -1.
          2   -1    0    0  501    0  0.00000000000E+00 -0.00000000000E+00 -0.54349439965E+03  0.54349439965E+03  0.00000000000E+00 0.  1.
         25    2    1    2    0    0  0.17073481043E+02  0.55968142679E+02 -0.26865234974E+03  0.30206856748E+03  0.12508955868E+03 0.  0.
          5    1    3    3  502    0  0.40084602087E+02 -0.25807297552E+02 -0.13899804316E+03  0.14700585136E+03  0.41800000000E+01 0. -1.
         -5    1    3    3    0  502 -0.23011121045E+02  0.81775440231E+02 -0.12965430658E+03  0.15506271612E+03  0.41800000000E+01 0. -1.
        -11    1    1    2    0    0  0.63803545544E+01 -0.51828788716E+02 -0.23873500114E+03  0.24437948570E+03  0.00000000000E+00 0.  1.
         11    1    1    2    0    0 -0.23453835597E+02 -0.41393539634E+01 -0.80222697719E+01  0.25131125477E+02  0.00000000000E+00 0. -1.
</event>
<event>
 7    1  0.2641580E-009  0.6188982E+02  0.7561462E-02  0.1390068E+00
         -1   -1    0    0    0  501 -0.00000000000E+00  0.00000000000E+00  0.12244200951E+03  0.12244200951E+03  0.00000000000E+00 0.  1.
          1   -1    0    0  501    0  0.00000000000E+00 -0.00000000000E+00 -0.16538688837E+03  0.16538688837E+03  0.00000000000E+00 0. -1.
         25    2    1    2    0    0  0.17222601940E+02  0.39206621577E+02 -0.10576412461E+03  0.16931512584E+03  0.12509110516E+03 0.  0.
          5    1    3    3  502    0  0.29036122774E+02  0.31388940790E+02 -0.13221482397E+03  0.13902012123E+03  0.41800000000E+01 0.  1.
         -5    1    3    3    0  502 -0.11813520834E+02  0.78176807868E+01  0.26450699363E+02  0.30295004607E+02  0.41800000000E+01 0.  1.
        -11    1    1    2    0    0  0.17898695091E+02 -0.11077073325E+02  0.69865876646E+02  0.72967839210E+02  0.00000000000E+00 0.  1.
         11    1    1    2    0    0 -0.35121297031E+02 -0.28129548252E+02 -0.70466308997E+01  0.45545932827E+02  0.00000000000E+00 0. -1.
</event>
<event>
 7    1  0.2641580E-009  0.1574903E+03  0.7561462E-02  0.1191560E+00
          1   -1    0    0  501    0  0.00000000000E+00  0.00000000000E+00  0.84342708534E+03  0.84342708534E+03  0.00000000000E+00 0. -1.
         -1   -1    0    0    0  501 -0.00000000000E+00 -0.00000000000E+00 -0.74512834268E+02  0.74512834268E+02  0.00000000000E+00 0.  1.
         25    2    1    2    0    0  0.24153221159E+02 -0.12810222544E+03  0.73237693954E+03  0.75432635755E+03  0.12505484343E+03 0.  0.
          5    1    3    3  502    0  0.40583912364E+02 -0.14757490170E+03  0.58499481338E+03  0.60469976818E+03  0.41800000000E+01 0. -1.
         -5    1    3    3    0  502 -0.16430691205E+02  0.19472676261E+02  0.14738212616E+03  0.14962658937E+03  0.41800000000E+01 0. -1.
        -11    1    1    2    0    0 -0.30288946256E+02  0.55815407132E+02 -0.25231266687E+02  0.68332984402E+02  0.00000000000E+00 0.  1.
         11    1    1    2    0    0  0.61357250970E+01  0.72286818310E+02  0.61768578221E+02  0.95280577660E+02  0.00000000000E+00 0. -1.
</event>
<event>
 7    1  0.2641580E-009  0.9242431E+02  0.7561462E-02  0.1297085E+00
         -1   -1    0    0    0  501 -0.00000000000E+00  0.00000000000E+00  0.52031978946E+02  0.52031978946E+02  0.00000000000E+00 0.  1.
          1   -1    0    0  501    0  0.00000000000E+00 -0.00000000000E+00 -0.27559810690E+03  0.27559810690E+03  0.00000000000E+00 0. -1.
         25    2    1    2    0    0 -0.19086958822E+02  0.40809077307E+02 -0.15102516905E+03  0.20120148440E+03  0.12507494893E+03 0.  0.
          5    1    3    3  502    0  0.80550531194E+00 -0.19611516132E+02  0.13881925461E+02  0.24401652779E+02  0.41800000000E+01 0.  1.
         -5    1    3    3    0  502 -0.19892464134E+02  0.60420593439E+02 -0.16490709451E+03  0.17679983162E+03  0.41800000000E+01 0.  1.
        -11    1    1    2    0    0 -0.79338891662E+01  0.26945026835E+02 -0.84597404741E+01  0.29335103159E+02  0.00000000000E+00 0. -1.
         11    1    1    2    0    0  0.27020847988E+02 -0.67754104142E+02 -0.64081218428E+02  0.97093498285E+02  0.00000000000E+00 0.  1.
</event>
<event>
 7    1  0.2641580E-009  0.1033071E+03  0.7561462E-02  0.1273491E+00
          1   -1    0    0  501    0  0.00000000000E+00  0.00000000000E+00  0.44733103808E+03  0.44733103808E+03  0.00000000000E+00 0. -1.
         -1   -1    0    0    0  501 -0.00000000000E+00 -0.00000000000E+00 -0.26972123930E+02  0.26972123930E+02  0.00000000000E+00 0.  1.
         25    2    1    2    0    0 -0.20058317442E+00  0.19590588436E+01  0.28604913148E+03  0.31221002374E+03  0.12508842935E+03 0.  0.
          5    1    3    3  502    0  0.57523288066E+02 -0.18457335684E+02  0.17707323898E+03  0.18714167433E+03  0.41800000000E+01 0. -1.
         -5    1    3    3    0  502 -0.57723871240E+02  0.20416394528E+02  0.10897589250E+03  0.12506834940E+03  0.41800000000E+01 0. -1.
        -11    1    1    2    0    0 -0.30349420326E+02  0.28438119631E+02  0.36999252937E+02  0.55666495131E+02  0.00000000000E+00 0.  1.
         11    1    1    2    0    0  0.30550003500E+02 -0.30397178475E+02  0.97310529738E+02  0.10642664314E+03  0.00000000000E+00 0. -1.
</event>
<event>
 7    1  0.2641580E-009  0.1054548E+03  0.7561462E-02  0.1269226E+00
         -1   -1    0    0    0  501 -0.00000000000E+00  0.00000000000E+00  0.85271861262E+02  0.85271861262E+02  0.00000000000E+00 0.  1.
          1   -1    0    0  501    0  0.00000000000E+00 -0.00000000000E+00 -0.30424674958E+03  0.30424674958E+03  0.00000000000E+00 0. -1.
         25    2    1    2    0    0 -0.34671735620E+02  0.58858174479E+02 -0.23504744953E+03  0.27487888272E+03  0.12507870594E+03 0.  0.
          5    1    3    3  502    0 -0.79516602012E+02  0.25613104089E+02 -0.16689904146E+03  0.18668605609E+03  0.41800000000E+01 0. -1.
         -5    1    3    3    0  502  0.44844866392E+02  0.33245070390E+02 -0.68148408071E+02  0.88192826633E+02  0.41800000000E+01 0. -1.
        -11    1    1    2    0    0  0.19203704527E+01 -0.21572300922E+02 -0.36438005794E+02  0.42388444840E+02  0.00000000000E+00 0. -1.
         11    1    1    2    0    0  0.32751365167E+02 -0.37285873557E+02  0.52510567013E+02  0.72251283277E+02  0.00000000000E+00 0.  1.
</event>
<event>
 7    1  0.2641580E-009  0.2772557E+03  0.7561462E-02  0.1097197E+00
         -2   -1    0    0    0  501 -0.00000000000E+00  0.00000000000E+00  0.44765345830E+03  0.44765345830E+03  0.00000000000E+00 0. -1.
          2   -1    0    0  501    0  0.00000000000E+00 -0.00000000000E+00 -0.22149144253E+03  0.22149144253E+03  0.00000000000E+00 0.  1.
         25    2    1    2    0    0  0.98252566722E+02  0.24846747609E+03 -0.18804244232E+02  0.29561832494E+03  0.12508773278E+03 0.  0.
          5    1    3    3  502    0  0.61027951984E+02  0.34827985352E+02  0.24321133726E+02  0.74474085646E+02  0.41800000000E+01 0. -1.
         -5    1    3    3    0  502  0.37224614738E+02  0.21363949074E+03 -0.43125377959E+02  0.22114423929E+03  0.41800000000E+01 0. -1.
        -11    1    1    2    0    0 -0.86335747895E+02 -0.21438945548E+03  0.15968839952E+03  0.28092184843E+03  0.00000000000E+00 0.  1.
         11    1    1    2    0    0 -0.11916818827E+02 -0.34078020613E+02  0.85277860484E+02  0.92604727463E+02  0.00000000000E+00 0. -1.
</event>
<event>
 7    1  0.2641580E-009  0.1301347E+03  0.7561462E-02  0.1227256E+00
         -1   -1    0    0    0  501 -0.00000000000E+00  0.00000000000E+00  0.12749985872E+03  0.12749985872E+03  0.00000000000E+00 0. -1.
          1   -1    0    0  501    0  0.00000000000E+00 -0.00000000000E+00 -0.14616479165E+03  0.14616479165E+03  0.00000000000E+00 0.  1.
         25    2    1    2    0    0  0.54382992047E+02 -0.61141135595E+02 -0.24838977443E+02  0.15151754968E+03  0.12507935391E+03 0.  0.
          5    1    3    3  502    0  0.47354758205E+02 -0.96849494411E+02 -0.11521481393E+01  0.10789391798E+03  0.41800000000E+01 0.  1.
         -5    1    3    3    0  502  0.70282338418E+01  0.35708358816E+02 -0.23686829303E+02  0.43623631700E+02  0.41800000000E+01 0.  1.
        -11    1    1    2    0    0  0.20889788170E+02  0.23980073034E+02 -0.15600241485E+02  0.35423081274E+02  0.00000000000E+00 0. -1.
         11    1    1    2    0    0 -0.75272780217E+02  0.37161062561E+02  0.21774285992E+02  0.86724019411E+02  0.00000000000E+00 0.  1.
</event>
<event>
 7    1  0.2641580E-009  0.8721652E+02  0.7561462E-02  0.1309736E+00
         -1   -1    0    0    0  501 -0.00000000000E+00  0.00000000000E+00  0.57871632778E+02  0.57871632778E+02  0.00000000000E+00 0.  1.
          1   -1    0    0  501    0  0.00000000000E+00 -0.00000000000E+00 -0.26491866448E+03  0.26491866448E+03  0.00000000000E+00 0. -1.
         25    2    1    2    0    0 -0.13981797496E+02 -0.70735073507E+01 -0.33050433747E+02  0.13033046933E+03  0.12509266524E+03 0.  0.
          5    1    3    3  502    0  0.38815785402E+02  0.18681470531E+02 -0.52747692661E+02  0.68230887570E+02  0.41800000000E+01 0. -1.
         -5    1    3    3    0  502 -0.52797582897E+02 -0.25754977881E+02  0.19697258915E+02  0.62099581756E+02  0.41800000000E+01 0. -1.
        -11    1    1    2    0    0  0.19177774973E+01  0.38525947707E+02 -0.45644714585E+02  0.59760911027E+02  0.00000000000E+00 0.  1.
         11    1    1    2    0    0  0.12064019998E+02 -0.31452440356E+02 -0.12835188337E+03  0.13269891690E+03  0.00000000000E+00 0. -1.
</event>
<event>
 7    1  0.2641580E-009  0.1071285E+03  0.7561462E-02  0.1265982E+00
          1   -1    0    0  501    0  0.00000000000E+00  0.00000000000E+00  0.33870089844E+03  0.33870089844E+03  0.00000000000E+00 0. -1.
         -1   -1    0    0    0  501 -0.00000000000E+00 -0.00000000000E+00 -0.40350189791E+02  0.40350189791E+02  0.00000000000E+00 0.  1.
         25    2    1    2    0    0 -0.60555244643E+01 -0.33125442084E+01  0.23802524303E+03  0.26898137870E+03  0.12508926189E+03 0.  0.
          5    1    3    3  502    0 -0.21615673098E+01 -0.62673726604E+02  0.15023419642E+03  0.16285101950E+03  0.41800000000E+01 0.  1.
         -5    1    3    3    0  502 -0.38939571544E+01  0.59361182396E+02  0.87791046619E+02  0.10613035920E+03  0.41800000000E+01 0.  1.
        -11    1    1    2    0    0 -0.36096147799E+02  0.25444398746E+02  0.24640051245E+02  0.50571547721E+02  0.00000000000E+00 0.  1.
         11    1    1    2    0    0  0.42151672263E+02 -0.22131854538E+02  0.35685414371E+02  0.59498161810E+02  0.00000000000E+00 0. -1.
</event>
<event>
 7    1  0.2641580E-009  0.1866357E+03  0.7561462E-02  0.1161531E+00
         -2   -1    0    0    0  501 -0.00000000000E+00  0.00000000000E+00  0.98483392640E+02  0.98483392640E+02  0.00000000000E+00 0. -1.
          2   -1    0    0  501    0  0.00000000000E+00 -0.00000000000E+00 -0.54062972512E+03  0.54062972512E+03  0.00000000000E+00 0.  1.
         25    2    1    2    0    0  0.15715951252E+02 -0.18095080272E+03 -0.10243865911E+03  0.24316948076E+03  0.12509010099E+03 0.  0.
          5    1    3    3  502    0  0.82686510807E+01 -0.28645450706E+00 -0.55558563605E+02  0.56326539364E+02  0.41800000000E+01 0. -1.
         -5    1    3    3    0  502  0.74473001713E+01 -0.18066434822E+03 -0.46880095500E+02  0.18684294140E+03  0.41800000000E+01 0. -1.
        -11    1    1    2    0    0 -0.13822826729E+02  0.42901889938E+02 -0.17654215007E+03  0.18220530577E+03  0.00000000000E+00 0.  1.
         11    1    1    2    0    0 -0.18931245231E+01  0.13804891278E+03 -0.16316552330E+03  0.21373833123E+03  0.00000000000E+00 0. -1.
</event>
<event>
 7    1  0.2641580E-009  0.1239534E+03  0.7561462E-02  0.1236714E+00
         -2   -1    0    0    0  501 -0.00000000000E+00  0.00000000000E+00  0.20579568297E+03  0.20579568297E+03  0.00000000000E+00 0.  1.
          2   -1    0    0  501    0  0.00000000000E+00 -0.00000000000E+00 -0.13316396479E+03  0.13316396479E+03  0.00000000000E+00 0. -1.
         25    2    1    2    0    0  0.22467088516E+02  0.11924645060E+03  0.11089174708E+02  0.17462892376E+03  0.12509118741E+03 0.  0.
          5    1    3    3  502    0  0.19692761929E+02  0.11496895799E+03  0.55844995569E+02  0.12939011595E+03  0.41800000000E+01 0. -1.
         -5    1    3    3    0  502  0.27743265869E+01  0.42774926104E+01 -0.44755820861E+02  0.45238807809E+02  0.41800000000E+01 0. -1.
        -11    1    1    2    0    0 -0.11049734149E+02 -0.10471998570E+02  0.52412093078E+02  0.54578263802E+02  0.00000000000E+00 0.  1.
         11    1    1    2    0    0 -0.11417354367E+02 -0.10877445203E+03  0.91304503921E+01  0.10975246020E+03  0.00000000000E+00 0. -1.
</event>
<event>
 7    1  0.2641580E-009  0.1037437E+03  0.7561462E-02  0.1272615E+00
         -1   -1    0    0    0  501 -0.00000000000E+00  0.00000000000E+00  0.27649428530E+02  0.27649428530E+02  0.00000000000E+00 0.  1.
          1   -1    0    0  501    0  0.00000000000E+00 -0.00000000000E+00 -0.83023233951E+03  0.83023233951E+03  0.00000000000E+00 0. -1.
         25    2    1    2    0    0 -0.92004710661E+02 -0.24468754606E+01 -0.58387656332E+03  0.60417697787E+03  0.12508847031E+03 0.  0.
          5    1    3    3  502    0 -0.82581455786E+02 -0.14001243564E+02 -0.58263820525E+03  0.58864291577E+03  0.41800000000E+01 0.  1.
         -5    1    3    3    0  502 -0.94232548749E+01  0.11554368104E+02 -0.12383580706E+01  0.15534062103E+02  0.41800000000E+01 0.  1.
        -11    1    1    2    0    0  0.51009532452E+02 -0.26951402028E+02 -0.46012539415E+02  0.73793659996E+02  0.00000000000E+00 0.  1.
         11    1    1    2    0    0  0.40995178209E+02  0.29398277489E+02 -0.17269380824E+03  0.17991113018E+03  0.00000000000E+00 0. -1.
</event>
<event>
 7    1  0.2641580E-009  0.1080859E+03  0.7561462E-02  0.1264156E+00
         -3   -1    0    0    0  501 -0.00000000000E+00  0.00000000000E+00  0.89839598327E+02  0.89839598327E+02  0.00000000000E+00 0.  1.
          3   -1    0    0  501    0  0.00000000000E+00 -0.00000000000E+00 -0.15181611214E+03  0.15181611214E+03  0.00000000000E+00 0. -1.
         25    2    1    2    0    0 -0.19588402275E+02  0.39905185240E+02 -0.34775635105E+02  0.13723462227E+03  0.12509143632E+03 0.  0.
          5    1    3    3  502    0  0.45563400330E+02  0.23479541789E+02  0.14932040928E+02  0.53551382601E+02  0.41800000000E+01 0.  1.
         -5    1    3    3    0  502 -0.65151802605E+02  0.16425643451E+02 -0.49707676033E+02  0.83683239672E+02  0.41800000000E+01 0.  1.
        -11    1    1    2    0    0  0.53131372713E+02 -0.13730352975E+02 -0.18790278809E+01  0.54908980185E+02  0.00000000000E+00 0.  1.
         11    1    1    2    0    0 -0.33542970438E+02 -0.26174832265E+02 -0.25321850823E+02  0.49512108004E+02  0.00000000000E+00 0. -1.
</event>
<event>
 7    1  0.2641580E-009  0.2185864E+03  0.7561462E-02  0.1134941E+00
         -1   -1    0    0    0  501 -0.00000000000E+00  0.00000000000E+00  0.21391487337E+02  0.21391487337E+02  0.00000000000E+00 0.  1.
          1   -1    0    0  501    0  0.00000000000E+00 -0.00000000000E+00 -0.27145374329E+04  0.27145374329E+04  0.00000000000E+00 0. -1.
         25    2    1    2    0    0  0.76281520651E+02 -0.18641537539E+03 -0.18166663579E+04  0.18320733557E+04  0.12508621817E+03 0.  0.
          5    1    3    3  502    0  0.90200391582E+02 -0.12609454114E+03 -0.15731563438E+04  0.15807828119E+04  0.41800000000E+01 0.  1.
         -5    1    3    3    0  502 -0.13918870930E+02 -0.60320834258E+02 -0.24351001415E+03  0.25129054380E+03  0.41800000000E+01 0.  1.
        -11    1    1    2    0    0 -0.96279314233E+02  0.14515009047E+03 -0.72207425760E+03  0.74278495448E+03  0.00000000000E+00 0.  1.
         11    1    1    2    0    0  0.19997793582E+02  0.41265284924E+02 -0.15440533002E+03  0.16107061007E+03  0.00000000000E+00 0. -1.
</event>
<event>
 7    1  0.2641580E-009  0.1626774E+03  0.7561462E-02  0.1185707E+00
         -2   -1    0    0    0  501 -0.00000000000E+00  0.00000000000E+00  0.21983847488E+03  0.21983847488E+03  0.00000000000E+00 0.  1.
          2   -1    0    0  501    0  0.00000000000E+00 -0.00000000000E+00 -0.13594063354E+03  0.13594063354E+03  0.00000000000E+00 0. -1.
         25    2    1    2    0    0  0.10698846987E+03  0.79890413991E+02  0.28030072004E+02  0.18510076066E+03  0.12509035026E+03 0.  0.
          5    1    3    3  502    0  0.51328120962E+02 -0.25034884205E+02 -0.14161172300E+02  0.58985868049E+02  0.41800000000E+01 0. -1.
         -5    1    3    3    0  502  0.55660348910E+02  0.10492529820E+03  0.42191244305E+02  0.12611489261E+03  0.41800000000E+01 0. -1.
        -11    1    1    2    0    0 -0.54604507970E+02 -0.80003615210E+02  0.39761845825E+01  0.96943492722E+02  0.00000000000E+00 0. -1.
         11    1    1    2    0    0 -0.52383961902E+02  0.11320121916E+00  0.51891584760E+02  0.73734855041E+02  0.00000000000E+00 0.  1.
</event>
<event>
 7    1  0.2760330E-009  0.1226795E+03  0.7561462E-02  0.1238741E+00
         -2   -1    0    0    0  501 -0.00000000000E+00  0.00000000000E+00  0.80898310039E+02  0.80898310039E+02  0.00000000000E+00 0.  1.
          2   -1    0    0  501    0  0.00000000000E+00 -0.00000000000E+00 -0.34270484161E+03  0.34270484161E+03  0.00000000000E+00 0. -1.
         25    2    1    2    0    0  0.25840800886E+02 -0.81830911086E+02 -0.21970547593E+02  0.15328359489E+03  0.12509640483E+03 0.  0.
          5    1    3    3  502    0  0.50476716574E+02 -0.10130436047E+03  0.24450056268E+01  0.11328690488E+03  0.41800000000E+01 0.  1.
         -5    1    3    3    0  502 -0.24635915688E+02  0.19473449379E+02 -0.24415553220E+02  0.39996690008E+02  0.41800000000E+01 0.  1.
        -11    1    1    2    0    0  0.15554596121E+02  0.32426283637E+02 -0.19834914869E+02  0.41071074722E+02  0.00000000000E+00 0.  1.
         11    1    1    2    0    0 -0.41395397006E+02  0.49404627449E+02 -0.22000106911E+03  0.22924848203E+03  0.00000000000E+00 0. -1.
</event>
<event>
 7    1  0.2641580E-009  0.1168162E+03  0.7561462E-02  0.1248444E+00
          2   -1    0    0  501    0  0.00000000000E+00  0.00000000000E+00  0.52028308433E+03  0.52028308433E+03  0.00000000000E+00 0. -1.
         -2   -1    0    0    0  501 -0.00000000000E+00 -0.00000000000E+00 -0.45462851345E+02  0.45462851345E+02  0.00000000000E+00 0.  1.
         25    2    1    2    0    0  0.31401549255E+02  0.10031283511E+03  0.30796430272E+03  0.34862131732E+03  0.12508432739E+03 0.  0.
          5    1    3    3  502    0  0.49671344609E+00 -0.11592453652E+02 -0.61009863463E+01  0.13759583581E+02  0.41800000000E+01 0. -1.
         -5    1    3    3    0  502  0.30904835809E+02  0.11190528876E+03  0.31406528907E+03  0.33486173374E+03  0.41800000000E+01 0. -1.
        -11    1    1    2    0    0 -0.47182852849E+01 -0.17457147823E+02 -0.95213851817E+01  0.20437000805E+02  0.00000000000E+00 0.  1.
         11    1    1    2    0    0 -0.26683263970E+02 -0.82855687287E+02  0.17637731545E+03  0.19668761755E+03  0.00000000000E+00 0. -1.
</event>
<event>
 7    1  0.2641580E-009  0.8227498E+02  0.7561462E-02  0.1322717E+00
         -1   -1    0    0    0  501 -0.00000000000E+00  0.00000000000E+00  0.17602303283E+02  0.17602303283E+02  0.00000000000E+00 0.  1.
          1   -1    0    0  501    0  0.00000000000E+00 -0.00000000000E+00 -0.99581222060E+03  0.99581222060E+03  0.00000000000E+00 0. -1.
         25    2    1    2    0    0  0.37422405726E+02  0.45319979520E+02 -0.71741846816E+03  0.73060961069E+03  0.12508720074E+03 0.  0.
          5    1    3    3  502    0  0.19472480006E+02  0.45861595406E+02 -0.90285514704E+02  0.10320566833E+03  0.41800000000E+01 0. -1.
         -5    1    3    3    0  502  0.17949925720E+02 -0.54161588634E+00 -0.62713295345E+03  0.62740394236E+03  0.41800000000E+01 0. -1.
        -11    1    1    2    0    0  0.23280523442E+02 -0.18557419107E+02 -0.28456563861E+02  0.41184179031E+02  0.00000000000E+00 0.  1.
         11    1    1    2    0    0 -0.60702929168E+02 -0.26762560413E+02 -0.23233488530E+03  0.24162073416E+03  0.00000000000E+00 0. -1.
</event>
<event>
 7    1  0.2641580E-009  0.1165653E+03  0.7561462E-02  0.1248873E+00
         -3   -1    0    0    0  501 -0.00000000000E+00  0.00000000000E+00  0.37508415108E+03  0.37508415108E+03  0.00000000000E+00 0.  1.
          3   -1    0    0  501    0  0.00000000000E+00 -0.00000000000E+00 -0.48686167835E+02  0.48686167835E+02  0.00000000000E+00 0. -1.
         25    2    1    2    0    0 -0.66248303097E+02  0.25295356048E+02  0.11962141403E+03  0.18704391183E+03  0.12508976599E+03 0.  0.
          5    1    3    3  502    0 -0.77660001109E+02 -0.31134859764E+02  0.86839378893E+02  0.12066070359E+03  0.41800000000E+01 0.  1.
         -5    1    3    3    0  502  0.11411698012E+02  0.56430215811E+02  0.32782035139E+02  0.66383208237E+02  0.41800000000E+01 0.  1.
        -11    1    1    2    0    0  0.22558023922E+02  0.18943384241E+02  0.14888633363E+03  0.15177238415E+03  0.00000000000E+00 0.  1.
         11    1    1    2    0    0  0.43690279175E+02 -0.44238740289E+02  0.57890235584E+02  0.84954022934E+02  0.00000000000E+00 0. -1.
</event>
<event>
 7    1  0.2641580E-009  0.1110764E+03  0.7561462E-02  0.1258589E+00
          1   -1    0    0  501    0  0.00000000000E+00  0.00000000000E+00  0.15725733891E+03  0.15725733891E+03  0.00000000000E+00 0. -1.
         -1   -1    0    0    0  501 -0.00000000000E+00 -0.00000000000E+00 -0.10248815557E+03  0.10248815557E+03  0.00000000000E+00 0.  1.
         25    2    1    2    0    0 -0.19018292174E+02  0.58834083110E+02  0.38798001196E+01  0.13959847292E+03  0.12509810558E+03 0.  0.
          5    1    3    3  502    0  0.25564827967E+02 -0.24737926877E+02 -0.21072196064E+02  0.41557614250E+02  0.41800000000E+01 0.  1.
         -5    1    3    3    0  502 -0.44583120141E+02  0.83572009988E+02  0.24951996184E+02  0.98040858668E+02  0.41800000000E+01 0.  1.
        -11    1    1    2    0    0  0.44195532619E+02 -0.43662893677E+02  0.87320057205E+00  0.62132566879E+02  0.00000000000E+00 0. -1.
         11    1    1    2    0    0 -0.25177240446E+02 -0.15171189433E+02  0.50016182654E+02  0.58014454686E+02  0.00000000000E+00 0.  1.
</event>
<event>
 7    1  0.2641580E-009  0.9720820E+02  0.7561462E-02  0.1286279E+00
         -1   -1    0    0    0  501 -0.00000000000E+00  0.00000000000E+00  0.50389559608E+02  0.50389559608E+02  0.00000000000E+00 0.  1.
          1   -1    0    0  501    0  0.00000000000E+00 -0.00000000000E+00 -0.23962085092E+03  0.23962085092E+03  0.00000000000E+00 0. -1.
         25    2    1    2    0    0  0.85544365099E+01  0.15875021737E+02 -0.12209784103E+03  0.17572972938E+03  0.12509140780E+03 0.  0.
          5    1    3    3  502    0 -0.13674092161E+02  0.65877573549E+02 -0.88976290899E+02  0.11162924453E+03  0.41800000000E+01 0.  1.
         -5    1    3    3    0  502  0.22228528671E+02 -0.50002551813E+02 -0.33121550128E+02  0.64100484847E+02  0.41800000000E+01 0.  1.
        -11    1    1    2    0    0 -0.34405106171E+02  0.97147769287E+01  0.23758117036E+01  0.35829215769E+02  0.00000000000E+00 0.  1.
         11    1    1    2    0    0  0.25850669661E+02 -0.25589798665E+02 -0.69509261984E+02  0.78451465373E+02  0.00000000000E+00 0. -1.
</event>
<event>
 7    1  0.2641580E-009  0.1820199E+03  0.7561462E-02  0.1165862E+00
          2   -1    0    0  501    0  0.00000000000E+00  0.00000000000E+00  0.45751198482E+03  0.45751198482E+03  0.00000000000E+00 0. -1.
         -2   -1    0    0    0  501 -0.00000000000E+00 -0.00000000000E+00 -0.10540423078E+03  0.10540423078E+03  0.00000000000E+00 0.  1.
         25    2    1    2    0    0 -0.11291520510E+03 -0.93013034181E+02  0.27097638503E+02  0.19438031725E+03  0.12509259631E+03 0.  0.
          5    1    3    3  502    0 -0.46996838789E+01 -0.81970248174E+02  0.23329784467E+02  0.85457356954E+02  0.41800000000E+01 0. -1.
         -5    1    3    3    0  502 -0.10821552122E+03 -0.11042786007E+02  0.37678540359E+01  0.10892296030E+03  0.41800000000E+01 0. -1.
        -11    1    1    2    0    0  0.94217710268E+02  0.18331654232E+02  0.16293052971E+03  0.18910151767E+03  0.00000000000E+00 0.  1.
         11    1    1    2    0    0  0.18697494833E+02  0.74681379949E+02  0.16207958584E+03  0.17943438068E+03  0.00000000000E+00 0. -1.
</event>
<event>
 7    1  0.2641580E-009  0.1375523E+03  0.7561462E-02  0.1216661E+00
         -4   -1    0    0    0  501 -0.00000000000E+00  0.00000000000E+00  0.12253879857E+04  0.12253879857E+04  0.00000000000E+00 0.  1.
          4   -1    0    0  501    0  0.00000000000E+00 -0.00000000000E+00 -0.25832754426E+02  0.25832754426E+02  0.00000000000E+00 0. -1.
         25    2    1    2    0    0  0.10025127148E+03  0.77041266869E+02  0.84112423649E+03  0.85972255522E+03  0.12508883445E+03 0.  0.
          5    1    3    3  502    0  0.45572980339E+02  0.67481818102E+02  0.73837951673E+03  0.74286773751E+03  0.41800000000E+01 0. -1.
         -5    1    3    3    0  502  0.54678291137E+02  0.95594487672E+01  0.10274471977E+03  0.11685481771E+03  0.41800000000E+01 0. -1.
        -11    1    1    2    0    0 -0.10156234862E+03 -0.54380561634E+02  0.34789437074E+03  0.36647325868E+03  0.00000000000E+00 0.  1.
         11    1    1    2    0    0  0.13110771395E+01 -0.22660705235E+02  0.10536624005E+02  0.25024926182E+02  0.00000000000E+00 0. -1.
</event>
<event>
 7    1  0.2641580E-009  0.1938929E+03  0.7561462E-02  0.1154996E+00
         -1   -1    0    0    0  501 -0.00000000000E+00  0.00000000000E+00  0.66587090787E+02  0.66587090787E+02  0.00000000000E+00 0.  1.
          1   -1    0    0  501    0  0.00000000000E+00 -0.00000000000E+00 -0.61944468641E+03  0.61944468641E+03  0.00000000000E+00 0. -1.
         25    2    1    2    0    0 -0.15868419684E+03 -0.52220347227E+02 -0.21995767908E+03  0.30321035666E+03  0.12508997085E+03 0.  0.
          5    1    3    3  502    0 -0.43726241755E+02 -0.74289723356E+02 -0.12760310925E+03  0.15404860631E+03  0.41800000000E+01 0.  1.
         -5    1    3    3    0  502 -0.11495795509E+03  0.22069376129E+02 -0.92354569829E+02  0.14916175035E+03  0.41800000000E+01 0.  1.
        -11    1    1    2    0    0  0.10431302033E+03  0.71717673611E+02 -0.26495654011E+03  0.29364366001E+03  0.00000000000E+00 0. -1.
         11    1    1    2    0    0  0.54371176510E+02 -0.19497326385E+02 -0.67943376433E+02  0.89177760526E+02  0.00000000000E+00 0.  1.
</event>
<event>
 7    1  0.2641580E-009  0.9521174E+02  0.7561462E-02  0.1290700E+00
          1   -1    0    0  501    0  0.00000000000E+00  0.00000000000E+00  0.45545631415E+02  0.45545631415E+02  0.00000000000E+00 0. -1.
         -1   -1    0    0    0  501 -0.00000000000E+00 -0.00000000000E+00 -0.29618445519E+03  0.29618445519E+03  0.00000000000E+00 0.  1.
         25    2    1    2    0    0  0.10188552965E+02 -0.35770166060E+02 -0.11129632566E+03  0.17151641427E+03  0.12509075452E+03 0.  0.
          5    1    3    3  502    0  0.47555135298E+02 -0.17206004207E+02  0.19232873975E+01  0.50780989635E+02  0.41800000000E+01 0. -1.
         -5    1    3    3    0  502 -0.37366582333E+02 -0.18564161853E+02 -0.11321961306E+03  0.12073542464E+03  0.41800000000E+01 0. -1.
        -11    1    1    2    0    0 -0.42518440643E+02 -0.80667183696E+01 -0.62937446222E+02  0.76380703564E+02  0.00000000000E+00 0.  1.
         11    1    1    2    0    0  0.32329887678E+02  0.43836884429E+02 -0.76405051893E+02  0.93832968772E+02  0.00000000000E+00 0. -1.
</event>
<event>
 7    1  0.2641580E-009  0.1322495E+03  0.7561462E-02  0.1224156E+00
          2   -1    0    0  501    0  0.00000000000E+00  0.00000000000E+00  0.70873119530E+02  0.70873119530E+02  0.00000000000E+00 0. -1.
         -2   -1    0    0    0  501 -0.00000000000E+00 -0.00000000000E+00 -0.35260415147E+03  0.35260415147E+03  0.00000000000E+00 0.  1.
         25    2    1    2    0    0 -0.11366150284E+03  0.15884275601E+02 -0.16960634507E+03  0.23996948120E+03  0.12509113550E+03 0.  0.
          5    1    3    3  502    0 -0.47518300302E+02 -0.22041951644E+02 -0.15307164644E+03  0.16184016140E+03  0.41800000000E+01 0. -1.
         -5    1    3    3    0  502 -0.66143202535E+02  0.37926227245E+02 -0.16534698629E+02  0.78129319806E+02  0.41800000000E+01 0. -1.
        -11    1    1    2    0    0 -0.68749723932E+01  0.10165492275E+02 -0.37292418939E+02  0.39259737505E+02  0.00000000000E+00 0.  1.
         11    1    1    2    0    0  0.12053647523E+03 -0.26049767876E+02 -0.74832267930E+02  0.14424805229E+03  0.00000000000E+00 0. -1.
</event>
<event>
 7    1  0.2641580E-009  0.8437214E+02  0.7561462E-02  0.1317083E+00
         -1   -1    0    0    0  501 -0.00000000000E+00  0.00000000000E+00  0.29960378132E+02  0.29960378132E+02  0.00000000000E+00 0.  1.
          1   -1    0    0  501    0  0.00000000000E+00 -0.00000000000E+00 -0.42287770057E+03  0.42287770057E+03  0.00000000000E+00 0. -1.
         25    2    1    2    0    0 -0.97447457468E+01 -0.19968651661E+02 -0.26731165746E+03  0.29596263231E+03  0.12507857687E+03 0.  0.
          5    1    3    3  502    0  0.14995818990E+01 -0.51706949262E+02 -0.25443151431E+03  0.25967041653E+03  0.41800000000E+01 0. -1.
         -5    1    3    3    0  502 -0.11244327646E+02  0.31738297601E+02 -0.12880143153E+02  0.36292215783E+02  0.41800000000E+01 0. -1.
        -11    1    1    2    0    0 -0.22380535883E+02 -0.21111996009E+02 -0.14236897860E+02  0.33901239248E+02  0.00000000000E+00 0.  1.
         11    1    1    2    0    0  0.32125281629E+02  0.41080647670E+02 -0.11136876712E+03  0.12297420715E+03  0.00000000000E+00 0. -1.
</event>
<event>
 7    1  0.2641580E-009  0.1617062E+03  0.7561462E-02  0.1186784E+00
          1   -1    0    0  501    0  0.00000000000E+00  0.00000000000E+00  0.75194587928E+02  0.75194587928E+02  0.00000000000E+00 0. -1.
         -1   -1    0    0    0  501 -0.00000000000E+00 -0.00000000000E+00 -0.45167280706E+03  0.45167280706E+03  0.00000000000E+00 0.  1.
         25    2    1    2    0    0 -0.12400948104E+03 -0.10890093625E+02 -0.82584697734E+02  0.19484479817E+03  0.12508923833E+03 0.  0.
          5    1    3    3  502    0 -0.14458663212E+03 -0.24870308187E+02 -0.84826873186E+02  0.16951960722E+03  0.41800000000E+01 0.  1.
         -5    1    3    3    0  502  0.20577151081E+02  0.13980214563E+02  0.22421754518E+01  0.25325190949E+02  0.41800000000E+01 0.  1.
        -11    1    1    2    0    0  0.55682956695E+02 -0.37988721476E+02 -0.16419747297E+03  0.17749519643E+03  0.00000000000E+00 0.  1.
         11    1    1    2    0    0  0.68326524342E+02  0.48878815101E+02 -0.12969604843E+03  0.15452740039E+03  0.00000000000E+00 0. -1.
</event>
<event>
 7    1  0.3989152E-009  0.1134365E+03  0.7561462E-02  0.1254335E+00
          1   -1    0    0  501    0  0.00000000000E+00  0.00000000000E+00  0.33031357047E+03  0.33031357047E+03  0.00000000000E+00 0. -1.
         -1   -1    0    0    0  501 -0.00000000000E+00 -0.00000000000E+00 -0.81325323037E+02  0.81325323037E+02  0.00000000000E+00 0.  1.
         25    2    1    2    0    0 -0.84739290842E+02  0.26338578379E+02  0.27151000267E+02  0.15575067617E+03  0.12508648284E+03 0.  0.
          5    1    3    3  502    0 -0.81273951771E+02  0.21290321238E+01 -0.35163244550E+02  0.88678713238E+02  0.41800000000E+01 0.  1.
         -5    1    3    3    0  502 -0.34653390716E+01  0.24209546255E+02  0.62314244817E+02  0.67071962934E+02  0.41800000000E+01 0.  1.
        -11    1    1    2    0    0  0.42520366955E+02 -0.55077324791E+02  0.85103453732E+02  0.10992766326E+03  0.00000000000E+00 0.  1.
         11    1    1    2    0    0  0.42218923887E+02  0.28738746412E+02  0.13673379343E+03  0.14596055408E+03  0.00000000000E+00 0. -1.
</event>
<event>
 7    1  0.2641580E-009  0.8997811E+02  0.7561462E-02  0.1302905E+00
          1   -1    0    0  501    0  0.00000000000E+00  0.00000000000E+00  0.14977438478E+03  0.14977438478E+03  0.00000000000E+00 0. -1.
         -1   -1    0    0    0  501 -0.00000000000E+00 -0.00000000000E+00 -0.19128371355E+03  0.19128371355E+03  0.00000000000E+00 0.  1.
         25    2    1    2    0    0  0.51687828679E+02  0.43218842729E+02 -0.13349343227E+03  0.19495583197E+03  0.12509108665E+03 0.  0.
          5    1    3    3  502    0 -0.38765040868E+01 -0.97317150542E+01  0.20186773807E+02  0.23123836156E+02  0.41800000000E+01 0.  1.
         -5    1    3    3    0  502  0.55564332766E+02  0.52950557783E+02 -0.15368020608E+03  0.17183199581E+03  0.41800000000E+01 0.  1.
        -11    1    1    2    0    0 -0.72657361547E+01 -0.46690562277E+02  0.39290811113E+01  0.47415579781E+02  0.00000000000E+00 0.  1.
         11    1    1    2    0    0 -0.44422092524E+02  0.34717195476E+01  0.88055022382E+02  0.98686686577E+02  0.00000000000E+00 0. -1.
</event>
<event>
 7    1  0.2641580E-009  0.1018187E+03  0.7561462E-02  0.1276517E+00
          3   -1    0    0  501    0  0.00000000000E+00  0.00000000000E+00  0.76073390024E+02  0.76073390024E+02  0.00000000000E+00 0. -1.
         -3   -1    0    0    0  501 -0.00000000000E+00 -0.00000000000E+00 -0.16610358867E+03  0.16610358867E+03  0.00000000000E+00 0.  1.
         25    2    1    2    0    0 -0.24055880374E+02 -0.49502488020E+01 -0.42077538541E+02  0.13424161436E+03  0.12508837449E+03 0.  0.
          5    1    3    3  502    0  0.11403736977E+02  0.55134622955E+02 -0.27696425969E+02  0.62884308670E+02  0.41800000000E+01 0. -1.
         -5    1    3    3    0  502 -0.35459617351E+02 -0.60084871757E+02 -0.14381112572E+02  0.71357305692E+02  0.41800000000E+01 0. -1.
        -11    1    1    2    0    0  0.18308575107E+02  0.38826868411E+02  0.66318911392E+01  0.43436293731E+02  0.00000000000E+00 0. -1.
         11    1    1    2    0    0  0.57473052670E+01 -0.33876619609E+02 -0.54584551247E+02  0.64499070604E+02  0.00000000000E+00 0.  1.
</event>
<event>
 7    1  0.2641580E-009  0.1270729E+03  0.7561462E-02  0.1231865E+00
          2   -1    0    0  501    0  0.00000000000E+00  0.00000000000E+00  0.21728068320E+03  0.21728068320E+03  0.00000000000E+00 0. -1.
         -2   -1    0    0    0  501 -0.00000000000E+00 -0.00000000000E+00 -0.13062240387E+03  0.13062240387E+03  0.00000000000E+00 0.  1.
         25    2    1    2    0    0 -0.44080963786E+02  0.10575673802E+03  0.10604907097E+03  0.20005383343E+03  0.12509001483E+03 0.  0.
          5    1    3    3  502    0  0.40210904069E+01  0.44851261708E+02  0.11330150809E+03  0.12199388911E+03  0.41800000000E+01 0. -1.
         -5    1    3    3    0  502 -0.48102054193E+02  0.60905476316E+02 -0.72524371220E+01  0.78059944319E+02  0.41800000000E+01 0. -1.
        -11    1    1    2    0    0  0.48929626031E+02 -0.34719695640E+02  0.23830090638E+02  0.64555702991E+02  0.00000000000E+00 0. -1.
         11    1    1    2    0    0 -0.48486622441E+01 -0.71037042383E+02 -0.43220882274E+02  0.83293550654E+02  0.00000000000E+00 0.  1.
</event>
<event>
 7    1  0.2641580E-009  0.8264137E+02  0.7561462E-02  0.1321718E+00
          1   -1    0    0  501    0  0.00000000000E+00  0.00000000000E+00  0.12565151740E+03  0.12565151740E+03  0.00000000000E+00 0. -1.
         -1   -1    0    0    0  501 -0.00000000000E+00 -0.00000000000E+00 -0.11390034932E+03  0.11390034932E+03  0.00000000000E+00 0.  1.
         25    2    1    2    0    0 -0.34590511013E+02  0.20509656583E+02 -0.18243798416E+02  0.13265767924E+03  0.12509226282E+03 0.  0.
          5    1    3    3  502    0 -0.42665885235E+02 -0.12557317226E+02  0.43294302153E+02  0.62208785375E+02  0.41800000000E+01 0.  1.
         -5    1    3    3    0  502  0.80753742220E+01  0.33066973809E+02 -0.61538100570E+02  0.70448893869E+02  0.41800000000E+01 0.  1.
        -11    1    1    2    0    0 -0.24617063035E+02 -0.51625240779E+01  0.37622650694E+02  0.45256107793E+02  0.00000000000E+00 0. -1.
         11    1    1    2    0    0  0.59207574049E+02 -0.15347132505E+02 -0.76276842042E+01  0.61638079684E+02  0.00000000000E+00 0.  1.
</event>
<event>
 7    1  0.2641580E-009  0.9810335E+02  0.7561462E-02  0.1284336E+00
         -2   -1    0    0    0  501 -0.00000000000E+00  0.00000000000E+00  0.71186115955E+02  0.71186115955E+02  0.00000000000E+00 0.  1.
          2   -1    0    0  501    0  0.00000000000E+00 -0.00000000000E+00 -0.28722571104E+03  0.28722571104E+03  0.00000000000E+00 0. -1.
         25    2    1    2    0    0  0.54694776027E+02 -0.44182763269E+02 -0.19088463191E+03  0.23880722882E+03  0.12509322420E+03 0.  0.
          5    1    3    3  502    0  0.83037833755E+02 -0.16421787271E+02 -0.65153767355E+02  0.10689921764E+03  0.41800000000E+01 0.  1.
         -5    1    3    3    0  502 -0.28343057728E+02 -0.27760975999E+02 -0.12573086456E+03  0.13190801118E+03  0.41800000000E+01 0.  1.
        -11    1    1    2    0    0 -0.38057424341E+02  0.22419882669E+02  0.33122534835E+02  0.55209790801E+02  0.00000000000E+00 0.  1.
         11    1    1    2    0    0 -0.16637351686E+02  0.21762880600E+02 -0.58277498002E+02  0.64394807372E+02  0.00000000000E+00 0. -1.
</event>
<event>
 7    1  0.2641580E-009  0.1143463E+03  0.7561462E-02  0.1252726E+00
          2   -1    0    0  501    0  0.00000000000E+00  0.00000000000E+00  0.91210360321E+03  0.91210360321E+03  0.00000000000E+00 0. -1.
         -2   -1    0    0    0  501 -0.00000000000E+00 -0.00000000000E+00 -0.29829777100E+02  0.29829777100E+02  0.00000000000E+00 0.  1.
         25    2    1    2    0    0 -0.57184512401E+02  0.87186795531E+02  0.27603276343E+03  0.32048752802E+03  0.12508622368E+03 0.  0.
          5    1    3    3  502    0 -0.34525568550E+02  0.78744906349E+02  0.64576408249E+02  0.10761208139E+03  0.41800000000E+01 0. -1.
         -5    1    3    3    0  502 -0.22658943851E+02  0.84418891818E+01  0.21145635518E+03  0.21287544662E+03  0.41800000000E+01 0. -1.
        -11    1    1    2    0    0  0.19313355078E+02  0.36503171709E+01  0.24359976854E+02  0.31300782293E+02  0.00000000000E+00 0.  1.
         11    1    1    2    0    0  0.37871157323E+02 -0.90837112702E+02  0.58188108583E+03  0.59014507000E+03  0.00000000000E+00 0. -1.
</event>
<event>
 7    1  0.2641580E-009  0.1410547E+03  0.7561462E-02  0.1211917E+00
         -2   -1    0    0    0  501 -0.00000000000E+00  0.00000000000E+00  0.24694171545E+02  0.24694171545E+02  0.00000000000E+00 0.  1.
          2   -1    0    0  501    0  0.00000000000E+00 -0.00000000000E+00 -0.91234822141E+03  0.91234822141E+03  0.00000000000E+00 0. -1.
         25    2    1    2    0    0  0.93543441612E+02 -0.32731859627E+02 -0.57411043895E+03  0.59587802329E+03  0.12508426127E+03 0.  0.
          5    1    3    3  502    0 -0.19101534432E+02 -0.29604706956E+02 -0.61404282376E+02  0.70917315134E+02  0.41800000000E+01 0.  1.
         -5    1    3    3    0  502  0.11264497604E+03 -0.31271526704E+01 -0.51270615658E+03  0.52496070815E+03  0.41800000000E+01 0.  1.
        -11    1    1    2    0    0  0.34407628501E+01  0.36640046465E+02 -0.10135617611E+03  0.10783045159E+03  0.00000000000E+00 0.  1.
         11    1    1    2    0    0 -0.96984204463E+02 -0.39081868387E+01 -0.21218743480E+03  0.23333391808E+03  0.00000000000E+00 0. -1.
</event>
<event>
 7    1  0.2641580E-009  0.1071784E+03  0.7561462E-02  0.1265886E+00
         -1   -1    0    0    0  501 -0.00000000000E+00  0.00000000000E+00  0.49094491886E+02  0.49094491886E+02  0.00000000000E+00 0.  1.
          1   -1    0    0  501    0  0.00000000000E+00 -0.00000000000E+00 -0.44986604736E+03  0.44986604736E+03  0.00000000000E+00 0. -1.
         25    2    1    2    0    0 -0.34636761292E+02 -0.29532578841E+02 -0.36759012338E+03  0.39094438947E+03  0.12507253258E+03 0.  0.
          5    1    3    3  502    0 -0.65937004888E+02 -0.45831727274E+02 -0.14740952899E+03  0.16791449454E+03  0.41800000000E+01 0.  1.
         -5    1    3    3    0  502  0.31300243596E+02  0.16299148432E+02 -0.22018059439E+03  0.22302989493E+03  0.41800000000E+01 0.  1.
        -11    1    1    2    0    0  0.45928509598E+02 -0.18168352720E+02 -0.32250256718E+02  0.58988101282E+02  0.00000000000E+00 0. -1.
         11    1    1    2    0    0 -0.11291748306E+02  0.47700931561E+02 -0.93117537802E+00  0.49028048495E+02  0.00000000000E+00 0.  1.
</event>
<event>
 7    1  0.2641580E-009  0.9525115E+02  0.7561462E-02  0.1290611E+00
         -1   -1    0    0    0  501 -0.00000000000E+00  0.00000000000E+00  0.90032729999E+02  0.90032729999E+02  0.00000000000E+00 0.  1.
          1   -1    0    0  501    0  0.00000000000E+00 -0.00000000000E+00 -0.15733666934E+03  0.15733666934E+03  0.00000000000E+00 0. -1.
         25    2    1    2    0    0 -0.24290767170E+02  0.12199406195E+02 -0.73875466010E+02  0.14779731733E+03  0.12509034995E+03 0.  0.
          5    1    3    3  502    0 -0.19257535136E+01  0.61837077042E+02 -0.84525114866E+01  0.62581546594E+02  0.41800000000E+01 0. -1.
         -5    1    3    3    0  502 -0.22365013656E+02 -0.49637670847E+02 -0.65422954523E+02  0.85215770732E+02  0.41800000000E+01 0. -1.
        -11    1    1    2    0    0 -0.21916403370E+02  0.81741370995E+01  0.34638806079E+02  0.41797035069E+02  0.00000000000E+00 0.  1.
         11    1    1    2    0    0  0.46207170540E+02 -0.20373543294E+02 -0.28067279406E+02  0.57775046940E+02  0.00000000000E+00 0. -1.
</event>
<event>
 7    1  0.4181078E-009  0.1396104E+03  0.7561462E-02  0.1213854E+00
          2   -1    0    0  501    0  0.00000000000E+00  0.00000000000E+00  0.70724318557E+02  0.70724318557E+02  0.00000000000E+00 0. -1.
         -2   -1    0    0    0  501 -0.00000000000E+00 -0.00000000000E+00 -0.51473541063E+03  0.51473541063E+03  0.00000000000E+00 0.  1.
         25    2    1    2    0    0  0.10987840266E+02  0.11138972721E+03 -0.40147377452E+03  0.43515206141E+03  0.12509085082E+03 0.  0.
          5    1    3    3  502    0  0.35230677840E+02 -0.14998818808E+02 -0.10841479679E+03  0.11505392557E+03  0.41800000000E+01 0.  1.
         -5    1    3    3    0  502 -0.24242837574E+02  0.12638854602E+03 -0.29305897774E+03  0.32009813584E+03  0.41800000000E+01 0.  1.
        -11    1    1    2    0    0 -0.83137845785E+01 -0.90793131117E+02  0.11990694365E+02  0.91958079707E+02  0.00000000000E+00 0. -1.
         11    1    1    2    0    0 -0.26740556875E+01 -0.20596596091E+02 -0.54528011919E+02  0.58349588072E+02  0.00000000000E+00 0.  1.
</event>
<event>
 7    1  0.2831286E-009  0.1403413E+03  0.7561462E-02  0.1212871E+00
         -1   -1    0    0    0  501 -0.00000000000E+00  0.00000000000E+00  0.40392599338E+02  0.40392599338E+02  0.00000000000E+00 0.  1.
          1   -1    0    0  501    0  0.00000000000E+00 -0.00000000000E+00 -0.58432623777E+03  0.58432623777E+03  0.00000000000E+00 0. -1.
         25    2    1    2    0    0 -0.62597217189E+01  0.10827771809E+03 -0.31447514732E+03  0.35539455079E+03  0.12508964823E+03 0.  0.
          5    1    3    3  502    0  0.24768230978E+02  0.11722821675E+03 -0.17472843038E+03  0.21190426341E+03  0.41800000000E+01 0.  1.
         -5    1    3    3    0  502 -0.31027952697E+02 -0.89504986628E+01 -0.13974671694E+03  0.14349028738E+03  0.41800000000E+01 0.  1.
        -11    1    1    2    0    0  0.37474117310E+02 -0.59996987755E+02 -0.68757240373E+02  0.98648396397E+02  0.00000000000E+00 0. -1.
         11    1    1    2    0    0 -0.31214395591E+02 -0.48280730334E+02 -0.16070125073E+03  0.17067588992E+03  0.00000000000E+00 0.  1.
</event>
<event>
 7    1  0.2641580E-009  0.1078543E+03  0.7561462E-02  0.1264596E+00
          2   -1    0    0  501    0  0.00000000000E+00  0.00000000000E+00  0.16045351271E+03  0.16045351271E+03  0.00000000000E+00 0. -1.
         -2   -1    0    0    0  501 -0.00000000000E+00 -0.00000000000E+00 -0.11534885787E+03  0.11534885787E+03  0.00000000000E+00 0.  1.
         25    2    1    2    0    0  0.20164006997E+02 -0.77958730514E+02  0.23676934341E+02  0.15063849762E+03  0.12508880407E+03 0.  0.
          5    1    3    3  502    0 -0.92791316729E+01 -0.59911293112E+02 -0.43673378460E+02  0.74835163614E+02  0.41800000000E+01 0.  1.
         -5    1    3    3    0  502  0.29443138670E+02 -0.18047437402E+02  0.67350312801E+02  0.75803334003E+02  0.41800000000E+01 0.  1.
        -11    1    1    2    0    0  0.31358208210E+02  0.55925439096E+02  0.25451503990E+02  0.68983846048E+02  0.00000000000E+00 0.  1.
         11    1    1    2    0    0 -0.51522215207E+02  0.22033291418E+02 -0.40237834990E+01  0.56180026915E+02  0.00000000000E+00 0. -1.
</event>
<event>
 7    1  0.2641580E-009  0.9304738E+02  0.7561462E-02  0.1295635E+00
         -2   -1    0    0    0  501 -0.00000000000E+00  0.00000000000E+00  0.41402746840E+02  0.41402746840E+02  0.00000000000E+00 0.  1.
          2   -1    0    0  501    0  0.00000000000E+00 -0.00000000000E+00 -0.42063204166E+03  0.42063204166E+03  0.00000000000E+00 0. -1.
         25    2    1    2    0    0  0.66625995080E+02 -0.34718262537E+02 -0.19955181887E+03  0.24720578580E+03  0.12508153798E+03 0.  0.
          5    1    3    3  502    0  0.37256658635E+01 -0.74199668458E+01  0.17351164449E+02  0.19684303438E+02  0.41800000000E+01 0. -1.
         -5    1    3    3    0  502  0.62900329217E+02 -0.27298295691E+02 -0.21690298332E+03  0.22752148236E+03  0.41800000000E+01 0. -1.
        -11    1    1    2    0    0 -0.84330568579E+02  0.31967447371E+02 -0.10681672197E+03  0.13979762008E+03  0.00000000000E+00 0.  1.
         11    1    1    2    0    0  0.17704573499E+02  0.27508151661E+01 -0.72860753983E+02  0.75031382620E+02  0.00000000000E+00 0. -1.
</event>
<event>
 7    1  0.2749093E-009  0.9686018E+02  0.7561462E-02  0.1287041E+00
         -1   -1    0    0    0  501 -0.00000000000E+00  0.00000000000E+00  0.49187316808E+02  0.49187316808E+02  0.00000000000E+00 0.  1.
          1   -1    0    0  501    0  0.00000000000E+00 -0.00000000000E+00 -0.33179326640E+03  0.33179326640E+03  0.00000000000E+00 0. -1.
         25    2    1    2    0    0 -0.63799912997E+02  0.19580309295E+01 -0.18950271942E+03  0.23586566998E+03  0.12508825215E+03 0.  0.
          5    1    3    3  502    0  0.35817392960E+01 -0.31973251415E+02 -0.64071840651E+00  0.32449970455E+02  0.41800000000E+01 0.  1.
         -5    1    3    3    0  502 -0.67381652293E+02  0.33931282345E+02 -0.18886200102E+03  0.20341569953E+03  0.41800000000E+01 0.  1.
        -11    1    1    2    0    0 -0.98104823193E+01 -0.68188478271E+01 -0.65133015521E+02  0.66219724856E+02  0.00000000000E+00 0. -1.
         11    1    1    2    0    0  0.73610395316E+02  0.48608168976E+01 -0.27970214643E+02  0.78895188362E+02  0.00000000000E+00 0.  1.
</event>
<event>
 7    1  0.2641580E-009  0.1064018E+03  0.7561462E-02  0.1267382E+00
         -2   -1    0    0    0  501 -0.00000000000E+00  0.00000000000E+00  0.60844860727E+02  0.60844860727E+02  0.00000000000E+00 0.  1.
          2   -1    0    0  501    0  0.00000000000E+00 -0.00000000000E+00 -0.25411482342E+03  0.25411482342E+03  0.00000000000E+00 0. -1.
         25    2    1    2    0    0  0.80944696681E+01 -0.34151479345E+02 -0.44682449226E+02  0.13739720166E+03  0.12509846432E+03 0.  0.
          5    1    3    3  502    0 -0.54476167201E+02  0.17832007002E+01 -0.48717353119E+01  0.54882044446E+02  0.41800000000E+01 0.  1.
         -5    1    3    3    0  502  0.62570636869E+02 -0.35934680045E+02 -0.39810713914E+02  0.82515157216E+02  0.41800000000E+01 0.  1.
        -11    1    1    2    0    0 -0.41932852035E+02  0.70782595622E+01 -0.32117726647E+02  0.53291783637E+02  0.00000000000E+00 0.  1.
         11    1    1    2    0    0  0.33838382367E+02  0.27073219783E+02 -0.11646978682E+03  0.12427069885E+03  0.00000000000E+00 0. -1.
</event>
<event>
 7    1  0.2641580E-009  0.1150685E+03  0.7561462E-02  0.1251462E+00
          2   -1    0    0  501    0  0.00000000000E+00  0.00000000000E+00  0.24272223068E+03  0.24272223068E+03  0.00000000000E+00 0. -1.
         -2   -1    0    0    0  501 -0.00000000000E+00 -0.00000000000E+00 -0.11751844585E+03  0.11751844585E+03  0.00000000000E+00 0.  1.
         25    2    1    2    0    0  0.23277296603E+02 -0.95177741007E+02  0.15314766799E+03  0.22068615898E+03  0.12509011806E+03 0.  0.
          5    1    3    3  502    0 -0.13939387743E+02 -0.54019149066E+02  0.15522654318E+03  0.16500038516E+03  0.41800000000E+01 0.  1.
         -5    1    3    3    0  502  0.37216684346E+02 -0.41158591941E+02 -0.20788751852E+01  0.55685773823E+02  0.41800000000E+01 0.  1.
        -11    1    1    2    0    0  0.18128122867E+02  0.42293692629E+01 -0.34719605182E+02  0.39395017286E+02  0.00000000000E+00 0.  1.
         11    1    1    2    0    0 -0.41405419469E+02  0.90948371744E+02  0.67757220191E+01  0.10015950026E+03  0.00000000000E+00 0. -1.
</event>
<event>
 7    1  0.2641580E-009  0.2859379E+03  0.7561462E-02  0.1092489E+00
         -1   -1    0    0    0  501 -0.00000000000E+00  0.00000000000E+00  0.17225944686E+03  0.17225944686E+03  0.00000000000E+00 0.  1.
          1   -1    0    0  501    0  0.00000000000E+00 -0.00000000000E+00 -0.50115423981E+03  0.50115423981E+03  0.00000000000E+00 0. -1.
         25    2    1    2    0    0  0.20029161215E+03  0.17839591374E+03 -0.22318881894E+03  0.37067757308E+03  0.12508709905E+03 0.  0.
          5    1    3    3  502    0  0.10174717634E+03  0.15860514165E+03 -0.10604466463E+03  0.21626609107E+03  0.41800000000E+01 0. -1.
         -5    1    3    3    0  502  0.98544435805E+02  0.19790772091E+02 -0.11714415430E+03  0.15441148201E+03  0.41800000000E+01 0. -1.
        -11    1    1    2    0    0 -0.14332720144E+03 -0.17433053520E+03 -0.93783922165E+02  0.24439567556E+03  0.00000000000E+00 0.  1.
         11    1    1    2    0    0 -0.56964410708E+02 -0.40653785371E+01 -0.11922051850E+02  0.58340438036E+02  0.00000000000E+00 0. -1.
</event>
<event>
 7    1  0.2641580E-009  0.1105435E+03  0.7561462E-02  0.1259567E+00
          1   -1    0    0  501    0  0.00000000000E+00  0.00000000000E+00  0.32928160076E+03  0.32928160076E+03  0.00000000000E+00 0. -1.
         -1   -1    0    0    0  501 -0.00000000000E+00 -0.00000000000E+00 -0.39307417782E+02  0.39307417782E+02  0.00000000000E+00 0.  1.
         25    2    1    2    0    0 -0.32126788212E+02  0.14009290711E+02  0.17997093608E+03  0.22195080921E+03  0.12507690885E+03 0.  0.
          5    1    3    3  502    0  0.33514770269E+02  0.41031920029E+02  0.11011888410E+03  0.12227223447E+03  0.41800000000E+01 0. -1.
         -5    1    3    3    0  502 -0.65641558481E+02 -0.27022629318E+02  0.69852051978E+02  0.99678574732E+02  0.41800000000E+01 0. -1.
        -11    1    1    2    0    0 -0.24401713734E+02  0.19396908992E+02  0.39021199682E+02  0.49943345265E+02  0.00000000000E+00 0. -1.
         11    1    1    2    0    0  0.56528501946E+02 -0.33406199703E+02  0.70982047216E+02  0.96694864072E+02  0.00000000000E+00 0.  1.
</event>
<event>
 7    1  0.2641580E-009  0.1081445E+03  0.7561462E-02  0.1264045E+00
          1   -1    0    0  501    0  0.00000000000E+00  0.00000000000E+00  0.52106276748E+02  0.52106276748E+02  0.00000000000E+00 0. -1.
         -1   -1    0    0    0  501 -0.00000000000E+00 -0.00000000000E+00 -0.41357926646E+03  0.41357926646E+03  0.00000000000E+00 0.  1.
         25    2    1    2    0    0 -0.59661102748E+00 -0.42707300027E+02 -0.54896569651E+02  0.14312829007E+03  0.12509118529E+03 0.  0.
          5    1    3    3  502    0  0.46722556384E+02 -0.51918743321E+02 -0.62894226062E+02  0.94083522761E+02  0.41800000000E+01 0.  1.
         -5    1    3    3    0  502 -0.47319167412E+02  0.92114432934E+01  0.79976564115E+01  0.49044767306E+02  0.41800000000E+01 0.  1.
        -11    1    1    2    0    0  0.43908434432E+02  0.28498372952E+02 -0.12881830237E+03  0.13904770010E+03  0.00000000000E+00 0. -1.
         11    1    1    2    0    0 -0.43311823404E+02  0.14208927075E+02 -0.17775811769E+03  0.18350955305E+03  0.00000000000E+00 0.  1.
</event>
<event>
 7    1  0.2641580E-009  0.1262456E+03  0.7561462E-02  0.1233135E+00
          3   -1    0    0  501    0  0.00000000000E+00  0.00000000000E+00  0.43642272383E+03  0.43642272383E+03  0.00000000000E+00 0. -1.
         -3   -1    0    0    0  501 -0.00000000000E+00 -0.00000000000E+00 -0.40522864995E+02  0.40522864995E+02  0.00000000000E+00 0.  1.
         25    2    1    2    0    0 -0.14888683375E+02 -0.75148857715E+02  0.24167464018E+03  0.28270705740E+03  0.12509046681E+03 0.  0.
          5    1    3    3  502    0  0.53670822992E+02 -0.46792754059E+02  0.10153162721E+03  0.12408167793E+03  0.41800000000E+01 0. -1.
         -5    1    3    3    0  502 -0.68559506367E+02 -0.28356103656E+02  0.14014301297E+03  0.15862537947E+03  0.41800000000E+01 0. -1.
        -11    1    1    2    0    0 -0.28460251760E+02  0.47700391976E+02  0.38310792859E+02  0.67476145225E+02  0.00000000000E+00 0.  1.
         11    1    1    2    0    0  0.43348935135E+02  0.27448465739E+02  0.11591442580E+03  0.12676238620E+03  0.00000000000E+00 0. -1.
</event>
<event>
 7    1  0.2641580E-009  0.1258240E+03  0.7561462E-02  0.1233787E+00
          2   -1    0    0  501    0  0.00000000000E+00  0.00000000000E+00  0.51369868845E+03  0.51369868845E+03  0.00000000000E+00 0. -1.
         -2   -1    0    0    0  501 -0.00000000000E+00 -0.00000000000E+00 -0.44934855786E+02  0.44934855786E+02  0.00000000000E+00 0.  1.
         25    2    1    2    0    0  0.70191931877E+02 -0.32672642232E+02  0.38769915654E+03  0.41467381590E+03  0.12509727719E+03 0.  0.
          5    1    3    3  502    0 -0.30838316688E+01 -0.63007417807E+02  0.22362918177E+03  0.23239390709E+03  0.41800000000E+01 0.  1.
         -5    1    3    3    0  502  0.73275763546E+02  0.30334775575E+02  0.16406997477E+03  0.18227990881E+03  0.41800000000E+01 0.  1.
        -11    1    1    2    0    0 -0.22787619751E+02  0.52801746502E+02  0.71196576945E+02  0.91521869607E+02  0.00000000000E+00 0.  1.
         11    1    1    2    0    0 -0.47404312126E+02 -0.20129104271E+02  0.98680991793E+01  0.52437858731E+02  0.00000000000E+00 0. -1.
</event>
<event>
 7    1  0.2641580E-009  0.1292640E+03  0.7561462E-02  0.1228552E+00
         -2   -1    0    0    0  501 -0.00000000000E+00  0.00000000000E+00  0.21148331348E+03  0.21148331348E+03  0.00000000000E+00 0.  1.
          2   -1    0    0  501    0  0.00000000000E+00 -0.00000000000E+00 -0.11116511561E+03  0.11116511561E+03  0.00000000000E+00 0. -1.
         25    2    1    2    0    0  0.80778287081E+02 -0.12231423222E+02 -0.21366797859E+02  0.15092724403E+03  0.12509098114E+03 0.  0.
          5    1    3    3  502    0  0.62470671162E+02  0.51715547357E+02 -0.91296229381E+00  0.81211997229E+02  0.41800000000E+01 0. -1.
         -5    1    3    3    0  502  0.18307615920E+02 -0.63946970579E+02 -0.20453835566E+02  0.69715246799E+02  0.41800000000E+01 0. -1.
        -11    1    1    2    0    0 -0.16784378723E+02 -0.29736180444E+02  0.74143432899E+02  0.81628453609E+02  0.00000000000E+00 0.  1.
         11    1    1    2    0    0 -0.63993908358E+02  0.41967603667E+02  0.47541562830E+02  0.90092731454E+02  0.00000000000E+00 0. -1.
</event>
<event>
 7    1  0.2641580E-009  0.1536081E+03  0.7561462E-02  0.1196108E+00
          2   -1    0    0  501    0  0.00000000000E+00  0.00000000000E+00  0.99454560409E+03  0.99454560409E+03  0.00000000000E+00 0. -1.
         -2   -1    0    0    0  501 -0.00000000000E+00 -0.00000000000E+00 -0.28779417519E+02  0.28779417519E+02  0.00000000000E+00 0.  1.
         25    2    1    2    0    0  0.10709204502E+03 -0.33214166781E+02  0.71008403924E+03  0.72968400634E+03  0.12509004496E+03 0.  0.
          5    1    3    3  502    0  0.10627602526E+03  0.21202276291E+02  0.54882994075E+03  0.55944249600E+03  0.41800000000E+01 0. -1.
         -5    1    3    3    0  502  0.81601975996E+00 -0.54416443073E+02  0.16125409849E+03  0.17024151034E+03  0.41800000000E+01 0. -1.
        -11    1    1    2    0    0 -0.12275688204E+03  0.21507955773E+02  0.21518109819E+03  0.24866593910E+03  0.00000000000E+00 0.  1.
         11    1    1    2    0    0  0.15664837017E+02  0.11706211008E+02  0.40501049143E+02  0.44975076171E+02  0.00000000000E+00 0. -1.
</event>
<event>
 7    1  0.2641580E-009  0.9901918E+02  0.7561462E-02  0.1282372E+00
          2   -1    0    0  501    0  0.00000000000E+00  0.00000000000E+00  0.80854242738E+02  0.80854242738E+02  0.00000000000E+00 0.  1.
         -2   -1    0    0    0  501 -0.00000000000E+00 -0.00000000000E+00 -0.28102473401E+03  0.28102473401E+03  0.00000000000E+00 0. -1.
         25    2    1    2    0    0  0.22960886873E+02 -0.67093255306E+02 -0.19970985973E+03  0.24608864946E+03  0.12508752171E+03 0.  0.
          5    1    3    3  502    0  0.56618643089E+01 -0.89579438791E+02 -0.71842261890E+02  0.11504484150E+03  0.41800000000E+01 0.  1.
         -5    1    3    3    0  502  0.17299022564E+02  0.22486183485E+02 -0.12786759784E+03  0.13104380797E+03  0.41800000000E+01 0.  1.
        -11    1    1    2    0    0 -0.27141506419E+02  0.24060476137E+02  0.41792402544E+02  0.55336902633E+02  0.00000000000E+00 0.  1.
         11    1    1    2    0    0  0.41806195459E+01  0.43032779169E+02 -0.42253034091E+02  0.60453424656E+02  0.00000000000E+00 0. -1.
</event>
<event>
 7    1  0.2641580E-009  0.1251374E+03  0.7561462E-02  0.1234855E+00
          2   -1    0    0  501    0  0.00000000000E+00  0.00000000000E+00  0.66972783067E+03  0.66972783067E+03  0.00000000000E+00 0.  1.
         -2   -1    0    0    0  501 -0.00000000000E+00 -0.00000000000E+00 -0.30151549491E+02  0.30151549491E+02  0.00000000000E+00 0. -1.
         25    2    1    2    0    0 -0.25562263793E+02  0.85653389587E+02  0.29592073481E+03  0.33347601284E+03  0.12508891785E+03 0.  0.
          5    1    3    3  502    0 -0.58573991110E+02  0.64796191461E+02  0.27583749771E+03  0.28936699260E+03  0.41800000000E+01 0. -1.
         -5    1    3    3    0  502  0.33011727317E+02  0.20857198126E+02  0.20083237103E+02  0.44109020241E+02  0.41800000000E+01 0. -1.
        -11    1    1    2    0    0  0.55581716701E+02 -0.70951243761E+02  0.28476112916E+03  0.29868429303E+03  0.00000000000E+00 0.  1.
         11    1    1    2    0    0 -0.30019452908E+02 -0.14702145825E+02  0.58894417207E+02  0.67719074291E+02  0.00000000000E+00 0. -1.
</event>
<event>
 7    1  0.2641580E-009  0.1176843E+03  0.7561462E-02  0.1246967E+00
          1   -1    0    0  501    0  0.00000000000E+00  0.00000000000E+00  0.20640814349E+03  0.20640814349E+03  0.00000000000E+00 0. -1.
         -1   -1    0    0    0  501 -0.00000000000E+00 -0.00000000000E+00 -0.94188479968E+02  0.94188479968E+02  0.00000000000E+00 0.  1.
         25    2    1    2    0    0  0.69894147981E+02  0.43013300555E+02  0.22216125847E+02  0.15124714084E+03  0.12508719126E+03 0.  0.
          5    1    3    3  502    0  0.13066670767E+02 -0.29019224720E+02 -0.31395519526E+02  0.44899936910E+02  0.41800000000E+01 0. -1.
         -5    1    3    3    0  502  0.56827477214E+02  0.72032525275E+02  0.53611645373E+02  0.10634720393E+03  0.41800000000E+01 0. -1.
        -11    1    1    2    0    0  0.15745018536E+02 -0.35434949632E+00 -0.28721578090E+01  0.16008762062E+02  0.00000000000E+00 0.  1.
         11    1    1    2    0    0 -0.85639166517E+02 -0.42658951059E+02  0.92875695487E+02  0.13334072056E+03  0.00000000000E+00 0. -1.
</event>
<event>
 7    1  0.2641580E-009  0.1031755E+03  0.7561462E-02  0.1273757E+00
         -1   -1    0    0    0  501 -0.00000000000E+00  0.00000000000E+00  0.40888003768E+02  0.40888003768E+02  0.00000000000E+00 0.  1.
          1   -1    0    0  501    0  0.00000000000E+00 -0.00000000000E+00 -0.34059688885E+03  0.34059688885E+03  0.00000000000E+00 0. -1.
         25    2    1    2    0    0 -0.40944210867E+02  0.29724158948E+02 -0.15887215721E+03  0.20844348609E+03  0.12509344718E+03 0.  0.
          5    1    3    3  502    0 -0.75839379642E+02  0.21752974141E+02 -0.49372302773E+02  0.93165981289E+02  0.41800000000E+01 0. -1.
         -5    1    3    3    0  502  0.34895168775E+02  0.79711848067E+01 -0.10949985444E+03  0.11527750480E+03  0.41800000000E+01 0. -1.
        -11    1    1    2    0    0  0.60180917563E+02 -0.37106473954E+02 -0.13368787262E+03  0.15123187671E+03  0.00000000000E+00 0. -1.
         11    1    1    2    0    0 -0.19236706696E+02  0.73823150060E+01 -0.71488552508E+01  0.21809529815E+02  0.00000000000E+00 0.  1.
</event>
<event>
 7    1  0.2641580E-009  0.1263352E+03  0.7561462E-02  0.1232997E+00
         -2   -1    0    0    0  501 -0.00000000000E+00  0.00000000000E+00  0.92556671406E+02  0.92556671406E+02  0.00000000000E+00 0.  1.
          2   -1    0    0  501    0  0.00000000000E+00 -0.00000000000E+00 -0.27504612396E+03  0.27504612396E+03  0.00000000000E+00 0. -1.
         25    2    1    2    0    0  0.11621376196E+03 -0.12106514935E+02 -0.96718007214E+02  0.19660769888E+03  0.12509199881E+03 0.  0.
          5    1    3    3  502    0  0.31592249000E+02 -0.33560466909E+02  0.20314332942E+02  0.50542256172E+02  0.41800000000E+01 0.  1.
         -5    1    3    3    0  502  0.84621512959E+02  0.21453951975E+02 -0.11703234016E+03  0.14606544271E+03  0.41800000000E+01 0.  1.
        -11    1    1    2    0    0 -0.23011225962E+02  0.11640364062E+02 -0.72376960100E+02  0.76833839870E+02  0.00000000000E+00 0.  1.
         11    1    1    2    0    0 -0.93202535997E+02  0.46615087291E+00 -0.13394485241E+02  0.94161256618E+02  0.00000000000E+00 0. -1.
</event>
<event>
 7    1  0.2745764E-009  0.7647641E+02  0.7561462E-02  0.1339359E+00
         -1   -1    0    0    0  501 -0.00000000000E+00  0.00000000000E+00  0.39556011173E+03  0.39556011173E+03  0.00000000000E+00 0.  1.
          1   -1    0    0  501    0  0.00000000000E+00 -0.00000000000E+00 -0.40090638288E+02  0.40090638288E+02  0.00000000000E+00 0. -1.
         25    2    1    2    0    0 -0.23990114754E+02 -0.13391390576E+02  0.29712963278E+03  0.32355881077E+03  0.12509768344E+03 0.  0.
          5    1    3    3  502    0 -0.53446921599E+02  0.22620562686E+02  0.67015837870E+02  0.88751665956E+02  0.41800000000E+01 0.  1.
         -5    1    3    3    0  502  0.29456806845E+02 -0.36011953262E+02  0.23011379491E+03  0.23480714482E+03  0.41800000000E+01 0.  1.
        -11    1    1    2    0    0  0.11897226593E+02  0.27206045937E+02  0.79033603078E+02  0.84427621971E+02  0.00000000000E+00 0.  1.
         11    1    1    2    0    0  0.12092888161E+02 -0.13814655361E+02 -0.20693762423E+02  0.27664317271E+02  0.00000000000E+00 0. -1.
</event>
<event>
 7    1  0.2641580E-009  0.1057291E+03  0.7561462E-02  0.1268690E+00
          2   -1    0    0  501    0  0.00000000000E+00  0.00000000000E+00  0.51320137298E+03  0.51320137298E+03  0.00000000000E+00 0. -1.
         -2   -1    0    0    0  501 -0.00000000000E+00 -0.00000000000E+00 -0.27643577682E+02  0.27643577682E+02  0.00000000000E+00 0.  1.
         25    2    1    2    0    0  0.58571707797E+01  0.44575493593E+02  0.22166535707E+03  0.25846323401E+03  0.12508569757E+03 0.  0.
          5    1    3    3  502    0  0.43300405290E+02  0.60876680896E+02  0.74141962426E+02  0.10533469688E+03  0.41800000000E+01 0. -1.
         -5    1    3    3    0  502 -0.37443234510E+02 -0.16301187302E+02  0.14752339464E+03  0.15312853713E+03  0.41800000000E+01 0. -1.
        -11    1    1    2    0    0 -0.16248107515E+02 -0.68023792410E+02  0.14810059896E+03  0.16378346908E+03  0.00000000000E+00 0.  1.
         11    1    1    2    0    0  0.10390936735E+02  0.23448298817E+02  0.11579183927E+03  0.11859824756E+03  0.00000000000E+00 0. -1.
</event>
<event>
 7    1  0.2641580E-009  0.8866269E+02  0.7561462E-02  0.1306123E+00
          2   -1    0    0  501    0  0.00000000000E+00  0.00000000000E+00  0.10938342598E+04  0.10938342598E+04  0.00000000000E+00 0. -1.
         -2   -1    0    0    0  501 -0.00000000000E+00 -0.00000000000E+00 -0.19717419805E+02  0.19717419805E+02  0.00000000000E+00 0.  1.
         25    2    1    2    0    0  0.11219856018E+02  0.35742816898E+02  0.92345417005E+03  0.93264098122E+03  0.12509261183E+03 0.  0.
          5    1    3    3  502    0  0.94782573449E+01 -0.29228733895E+02  0.68298482406E+02  0.75008741800E+02  0.41800000000E+01 0.  1.
         -5    1    3    3    0  502  0.17415986730E+01  0.64971550794E+02  0.85515568764E+03  0.85763223942E+03  0.41800000000E+01 0.  1.
        -11    1    1    2    0    0  0.26767330804E+02  0.29905686491E+01  0.10962646059E+03  0.11288664385E+03  0.00000000000E+00 0. -1.
         11    1    1    2    0    0 -0.37987186822E+02 -0.38733385548E+02  0.41036209388E+02  0.68024054565E+02  0.00000000000E+00 0.  1.
</event>
<event>
 7    1  0.2641580E-009  0.1319609E+03  0.7561462E-02  0.1224575E+00
          1   -1    0    0  501    0  0.00000000000E+00  0.00000000000E+00  0.32606911513E+03  0.32606911513E+03  0.00000000000E+00 0. -1.
         -1   -1    0    0    0  501 -0.00000000000E+00 -0.00000000000E+00 -0.87452966984E+02  0.87452966984E+02  0.00000000000E+00 0.  1.
         25    2    1    2    0    0  0.10961483137E+03 -0.47039069004E+02  0.67185744759E+02  0.18544384580E+03  0.12508960939E+03 0.  0.
          5    1    3    3  502    0  0.74432193136E+01  0.17507901511E+02 -0.26207155749E+02  0.32652956092E+02  0.41800000000E+01 0.  1.
         -5    1    3    3    0  502  0.10217161206E+03 -0.64546970515E+02  0.93392900508E+02  0.15279088971E+03  0.41800000000E+01 0.  1.
        -11    1    1    2    0    0 -0.42227216644E+02  0.16284535694E+01  0.45978575306E+01  0.42507999016E+02  0.00000000000E+00 0.  1.
         11    1    1    2    0    0 -0.67387614729E+02  0.45410615434E+02  0.16683254585E+03  0.18557023729E+03  0.00000000000E+00 0. -1.
</event>
<event>
 7    1  0.2641580E-009  0.1265873E+03  0.7561462E-02  0.1232609E+00
         -2   -1    0    0    0  501 -0.00000000000E+00  0.00000000000E+00  0.40661292101E+02  0.40661292101E+02  0.00000000000E+00 0.  1.
          2   -1    0    0  501    0  0.00000000000E+00 -0.00000000000E+00 -0.60523853988E+03  0.60523853988E+03  0.00000000000E+00 0. -1.
         25    2    1    2    0    0 -0.18440992950E+02 -0.95273068344E+02 -0.43127056802E+03  0.45941038469E+03  0.12508625404E+03 0.  0.
          5    1    3    3  502    0 -0.43075266612E+02  0.73366802386E+01 -0.20584460196E+03  0.21047274890E+03  0.41800000000E+01 0.  1.
         -5    1    3    3    0  502  0.24634273663E+02 -0.10260974858E+03 -0.22542596606E+03  0.24893763579E+03  0.41800000000E+01 0.  1.
        -11    1    1    2    0    0  0.29291599750E+02  0.60019994486E+02 -0.13386479190E+03  0.14960006706E+03  0.00000000000E+00 0. -1.
         11    1    1    2    0    0 -0.10850606800E+02  0.35253073858E+02  0.55811214193E+00  0.36889380227E+02  0.00000000000E+00 0.  1.
</event>
<event>
 7    1  0.2641580E-009  0.1558899E+03  0.7561462E-02  0.1193417E+00
          1   -1    0    0  501    0  0.00000000000E+00  0.00000000000E+00  0.17355061339E+04  0.17355061339E+04  0.00000000000E+00 0. -1.
         -1   -1    0    0    0  501 -0.00000000000E+00 -0.00000000000E+00 -0.16427650611E+02  0.16427650611E+02  0.00000000000E+00 0.  1.
         25    2    1    2    0    0 -0.12041483689E+03  0.29448426837E+02  0.10938406613E+04  0.11079266776E+04  0.12508871977E+03 0.  0.
          5    1    3    3  502    0  0.19779572328E+02 -0.31288668106E+01  0.47402361260E+02  0.51628263016E+02  0.41800000000E+01 0. -1.
         -5    1    3    3    0  502 -0.14019440922E+03  0.32577293648E+02  0.10464383001E+04  0.10562984146E+04  0.41800000000E+01 0. -1.
        -11    1    1    2    0    0  0.43209939331E+02 -0.51320813471E+02  0.19156807459E+03  0.20297598861E+03  0.00000000000E+00 0.  1.
         11    1    1    2    0    0  0.77204897562E+02  0.21872386633E+02  0.43366974737E+03  0.44103111827E+03  0.00000000000E+00 0. -1.
</event>
<event>
 7    1  0.2641580E-009  0.1197383E+03  0.7561462E-02  0.1243529E+00
          3   -1    0    0  501    0  0.00000000000E+00  0.00000000000E+00  0.71999136268E+02  0.71999136268E+02  0.00000000000E+00 0. -1.
         -3   -1    0    0    0  501 -0.00000000000E+00 -0.00000000000E+00 -0.32071942629E+03  0.32071942629E+03  0.00000000000E+00 0.  1.
         25    2    1    2    0    0 -0.85911321716E+02 -0.12069457392E+02 -0.21047794990E+03  0.25976101540E+03  0.12509352790E+03 0.  0.
          5    1    3    3  502    0 -0.11587730083E+03 -0.15106614471E+02 -0.19000415353E+03  0.22310268803E+03  0.41800000000E+01 0.  1.
         -5    1    3    3    0  502  0.29965979113E+02  0.30371570788E+01 -0.20473796375E+02  0.36658327367E+02  0.41800000000E+01 0.  1.
        -11    1    1    2    0    0  0.31960964434E+02 -0.10519167836E+02  0.28584709889E+02  0.44150218334E+02  0.00000000000E+00 0. -1.
         11    1    1    2    0    0  0.53950357282E+02  0.22588625227E+02 -0.66827050007E+02  0.88807328826E+02  0.00000000000E+00 0.  1.
</event>
<event>
 7    1  0.2641580E-009  0.1245146E+03  0.7561462E-02  0.1235830E+00
          2   -1    0    0  501    0  0.00000000000E+00  0.00000000000E+00  0.17496633315E+03  0.17496633315E+03  0.00000000000E+00 0.  1.
         -2   -1    0    0    0  501 -0.00000000000E+00 -0.00000000000E+00 -0.13052272285E+03  0.13052272285E+03  0.00000000000E+00 0. -1.
         25    2    1    2    0    0 -0.98844632160E+02 -0.77387069638E+01  0.48206359793E+02  0.16671773383E+03  0.12506318706E+03 0.  0.
          5    1    3    3  502    0 -0.91332999285E+02  0.87920330918E+01 -0.21693318342E+02  0.94377375811E+02  0.41800000000E+01 0.  1.
         -5    1    3    3    0  502 -0.75116328755E+01 -0.16530740056E+02  0.69899678135E+02  0.72340358021E+02  0.41800000000E+01 0.  1.
        -11    1    1    2    0    0  0.35970912387E+02 -0.44205149111E+02  0.18681404722E+01  0.57021852782E+02  0.00000000000E+00 0. -1.
         11    1    1    2    0    0  0.62873719774E+02  0.51943856075E+02 -0.56308899688E+01  0.81749469380E+02  0.00000000000E+00 0.  1.
</event>
<event>
 7    1  0.2641580E-009  0.8909661E+02  0.7561462E-02  0.1305054E+00
          2   -1    0    0  501    0  0.00000000000E+00  0.00000000000E+00  0.23634863637E+03  0.23634863637E+03  0.00000000000E+00 0.  1.
         -2   -1    0    0    0  501 -0.00000000000E+00 -0.00000000000E+00 -0.67505099661E+02  0.67505099661E+02  0.00000000000E+00 0. -1.
         25    2    1    2    0    0 -0.17517037196E+02  0.52524278731E+01  0.31645551482E+02  0.13032874945E+03  0.12509879062E+03 0.  0.
          5    1    3    3  502    0  0.51415703632E+02  0.15552890052E+02  0.51841697452E+00  0.53881426532E+02  0.41800000000E+01 0. -1.
         -5    1    3    3    0  502 -0.68932740828E+02 -0.10300462179E+02  0.31127134508E+02  0.76447322921E+02  0.41800000000E+01 0. -1.
        -11    1    1    2    0    0  0.20215906238E+02  0.20386442228E+02  0.14402264756E+03  0.14685643637E+03  0.00000000000E+00 0.  1.
         11    1    1    2    0    0 -0.26988690419E+01 -0.25638870101E+02 -0.68246623377E+01  0.26668550208E+02  0.00000000000E+00 0. -1.
</event>
<event>
 7    1  0.2641580E-009  0.1036764E+03  0.7561462E-02  0.1272750E+00
         -2   -1    0    0    0  501 -0.00000000000E+00  0.00000000000E+00  0.42694804483E+02  0.42694804483E+02  0.00000000000E+00 0.  1.
          2   -1    0    0  501    0  0.00000000000E+00 -0.00000000000E+00 -0.37403766419E+03  0.37403766419E+03  0.00000000000E+00 0. -1.
         25    2    1    2    0    0  0.18549478671E+02 -0.23734216437E+02 -0.27779939804E+03  0.30614960503E+03  0.12509068281E+03 0.  0.
          5    1    3    3  502    0 -0.37172957949E+02  0.31645068379E+02 -0.88604477908E+02  0.10124951882E+03  0.41800000000E+01 0. -1.
         -5    1    3    3    0  502  0.55722436620E+02 -0.55379284816E+02 -0.18919492013E+03  0.20490008622E+03  0.41800000000E+01 0. -1.
        -11    1    1    2    0    0  0.13589906126E+02 -0.20749716065E+02  0.98914441378E+01  0.26703500378E+02  0.00000000000E+00 0.  1.
         11    1    1    2    0    0 -0.32139384797E+02  0.44483932503E+02 -0.63434905813E+02  0.83879363264E+02  0.00000000000E+00 0. -1.
</event>
<event>
 7    1  0.2641580E-009  0.1087337E+03  0.7561462E-02  0.1262933E+00
         -3   -1    0    0    0  501 -0.00000000000E+00  0.00000000000E+00  0.15691274618E+03  0.15691274618E+03  0.00000000000E+00 0.  1.
          3   -1    0    0  501    0  0.00000000000E+00 -0.00000000000E+00 -0.90865496000E+02  0.90865496000E+02  0.00000000000E+00 0. -1.
         25    2    1    2    0    0 -0.19709376277E+02  0.40984345896E+02  0.13870263612E+02  0.13382238114E+03  0.12509144399E+03 0.  0.
          5    1    3    3  502    0  0.90875720347E+01 -0.39292163002E+02  0.25120677241E+02  0.47696738503E+02  0.41800000000E+01 0. -1.
         -5    1    3    3    0  502 -0.28796948311E+02  0.80276508898E+02 -0.11250413629E+02  0.86125642637E+02  0.41800000000E+01 0. -1.
        -11    1    1    2    0    0  0.46881642751E+02 -0.43873704228E+02  0.11927949596E+02  0.65307475309E+02  0.00000000000E+00 0. -1.
         11    1    1    2    0    0 -0.27172266475E+02  0.28893583313E+01  0.40249036975E+02  0.48648385733E+02  0.00000000000E+00 0.  1.
</event>
<event>
 7    1  0.2641580E-009  0.1493775E+03  0.7561462E-02  0.1201240E+00
          1   -1    0    0  501    0  0.00000000000E+00  0.00000000000E+00  0.46666172550E+02  0.46666172550E+02  0.00000000000E+00 0. -1.
         -1   -1    0    0    0  501 -0.00000000000E+00 -0.00000000000E+00 -0.50647578295E+03  0.50647578295E+03  0.00000000000E+00 0.  1.
         25    2    1    2    0    0 -0.59475689121E+02 -0.90653906763E+02 -0.23554194812E+03  0.28789330841E+03  0.12508820605E+03 0.  0.
          5    1    3    3  502    0  0.13146724240E+02 -0.91347544179E+02 -0.12168003868E+03  0.15277668146E+03  0.41800000000E+01 0. -1.
         -5    1    3    3    0  502 -0.72622413361E+02  0.69363741650E+00 -0.11386190944E+03  0.13511662695E+03  0.41800000000E+01 0. -1.
        -11    1    1    2    0    0  0.58063695988E+02  0.17761215264E+02 -0.14683764645E+03  0.15889665816E+03  0.00000000000E+00 0.  1.
         11    1    1    2    0    0  0.14119931334E+01  0.72892691499E+02 -0.77430015829E+02  0.10635198893E+03  0.00000000000E+00 0. -1.
</event>
<event>
 7    1  0.2641580E-009  0.9827663E+02  0.7561462E-02  0.1283962E+00
         -2   -1    0    0    0  501 -0.00000000000E+00  0.00000000000E+00  0.11385672543E+03  0.11385672543E+03  0.00000000000E+00 0.  1.
          2   -1    0    0  501    0  0.00000000000E+00 -0.00000000000E+00 -0.12331619511E+03  0.12331619511E+03  0.00000000000E+00 0. -1.
         25    2    1    2    0    0 -0.18105480055E+02 -0.43018010937E+02 -0.13107649773E+02  0.13415311175E+03  0.12508752631E+03 0.  0.
          5    1    3    3  502    0  0.33784332627E+01 -0.75323953064E+02  0.25063510095E+02  0.79566096138E+02  0.41800000000E+01 0. -1.
         -5    1    3    3    0  502 -0.21483913317E+02  0.32305942126E+02 -0.38171159867E+02  0.54587015615E+02  0.41800000000E+01 0. -1.
        -11    1    1    2    0    0 -0.13131527668E+02 -0.12617595870E+02  0.29097727651E+02  0.34326644155E+02  0.00000000000E+00 0.  1.
         11    1    1    2    0    0  0.31237007723E+02  0.55635606808E+02 -0.25449547552E+02  0.68693164631E+02  0.00000000000E+00 0. -1.
</event>
<event>
 7    1  0.2641580E-009  0.1333402E+03  0.7561462E-02  0.1222582E+00
         -2   -1    0    0    0  501 -0.00000000000E+00  0.00000000000E+00  0.10109582986E+03  0.10109582986E+03  0.00000000000E+00 0.  1.
          2   -1    0    0  501    0  0.00000000000E+00 -0.00000000000E+00 -0.29198837467E+03  0.29198837467E+03  0.00000000000E+00 0. -1.
         25    2    1    2    0    0 -0.92829922115E+02  0.44326443934E+02 -0.19590624705E+03  0.25418486217E+03  0.12509379860E+03 0.  0.
          5    1    3    3  502    0 -0.11721456117E+03  0.32522317646E+02 -0.11015985062E+03  0.16416339295E+03  0.41800000000E+01 0. -1.
         -5    1    3    3    0  502  0.24384639056E+02  0.11804126288E+02 -0.85746396432E+02  0.90021469219E+02  0.41800000000E+01 0. -1.
        -11    1    1    2    0    0  0.88982621153E+02 -0.17794530315E+02 -0.29297091285E+02  0.95356550557E+02  0.00000000000E+00 0. -1.
         11    1    1    2    0    0  0.38473009621E+01 -0.26531913618E+02  0.34310793535E+02  0.43542791803E+02  0.00000000000E+00 0.  1.
</event>
<event>
 7    1  0.2641580E-009  0.1172807E+03  0.7561462E-02  0.1247652E+00
         -2   -1    0    0    0  501 -0.00000000000E+00  0.00000000000E+00  0.49320843164E+02  0.49320843164E+02  0.00000000000E+00 0.  1.
          2   -1    0    0  501    0  0.00000000000E+00 -0.00000000000E+00 -0.48138328295E+03  0.48138328295E+03  0.00000000000E+00 0. -1.
         25    2    1    2    0    0 -0.96377704255E+02 -0.19173090074E+02 -0.15224459892E+03  0.22018582352E+03  0.12508840761E+03 0.  0.
          5    1    3    3  502    0 -0.87379013064E+02 -0.20764130868E+02 -0.17420331312E+03  0.19603700609E+03  0.41800000000E+01 0. -1.
         -5    1    3    3    0  502 -0.89986911914E+01  0.15910407941E+01  0.21958714200E+02  0.24148817430E+02  0.41800000000E+01 0. -1.
        -11    1    1    2    0    0  0.10349753423E+03 -0.10554948985E+02 -0.21396031751E+03  0.23791209303E+03  0.00000000000E+00 0. -1.
         11    1    1    2    0    0 -0.71198299710E+01  0.29728039059E+02 -0.65857523354E+02  0.72606209565E+02  0.00000000000E+00 0.  1.
</event>
<event>
 7    1  0.2641580E-009  0.9090000E+02  0.7561462E-02  0.1300687E+00
          2   -1    0    0  501    0  0.00000000000E+00  0.00000000000E+00  0.49126165077E+02  0.49126165077E+02  0.00000000000E+00 0.  1.
         -2   -1    0    0    0  501 -0.00000000000E+00 -0.00000000000E+00 -0.34454274632E+03  0.34454274632E+03  0.00000000000E+00 0. -1.
         25    2    1    2    0    0  0.49652488225E+02  0.40712514455E+02 -0.21569301789E+03  0.25747634182E+03  0.12509080785E+03 0.  0.
          5    1    3    3  502    0  0.61658208564E+02  0.45956986646E+02 -0.22697738684E+03  0.23968726675E+03  0.41800000000E+01 0.  1.
         -5    1    3    3    0  502 -0.12005720339E+02 -0.52444721917E+01  0.11284368945E+02  0.17789075072E+02  0.41800000000E+01 0.  1.
        -11    1    1    2    0    0  0.15882409807E+02 -0.83429257143E+01  0.99410143997E+01  0.20510463623E+02  0.00000000000E+00 0.  1.
         11    1    1    2    0    0 -0.65534898032E+02 -0.32369588740E+02 -0.89664577750E+02  0.11568210596E+03  0.00000000000E+00 0. -1.
</event>
<event>
 7    1  0.2641580E-009  0.1050682E+03  0.7561462E-02  0.1269985E+00
         -1   -1    0    0    0  501 -0.00000000000E+00  0.00000000000E+00  0.74301874106E+02  0.74301874106E+02  0.00000000000E+00 0.  1.
          1   -1    0    0  501    0  0.00000000000E+00 -0.00000000000E+00 -0.24772623804E+03  0.24772623804E+03  0.00000000000E+00 0. -1.
         25    2    1    2    0    0 -0.26596779495E+02  0.54001012879E+02 -0.13588702066E+03  0.19425916373E+03  0.12509133558E+03 0.  0.
          5    1    3    3  502    0 -0.65583491994E+02  0.10029884809E+02 -0.11290262087E+03  0.13102010231E+03  0.41800000000E+01 0. -1.
         -5    1    3    3    0  502  0.38986712499E+02  0.43971128070E+02 -0.22984399795E+02  0.63239061419E+02  0.41800000000E+01 0. -1.
        -11    1    1    2    0    0  0.85166545603E+01 -0.63672928002E+02 -0.66383862264E+02  0.92377444943E+02  0.00000000000E+00 0. -1.
         11    1    1    2    0    0  0.18080124934E+02  0.96719151225E+01  0.28846518993E+02  0.35391503469E+02  0.00000000000E+00 0.  1.
</event>
<event>
 7    1  0.2641580E-009  0.9711828E+02  0.7561462E-02  0.1286475E+00
          2   -1    0    0  501    0  0.00000000000E+00  0.00000000000E+00  0.47576010904E+03  0.47576010904E+03  0.00000000000E+00 0. -1.
         -2   -1    0    0    0  501 -0.00000000000E+00 -0.00000000000E+00 -0.26074871750E+02  0.26074871750E+02  0.00000000000E+00 0.  1.
         25    2    1    2    0    0  0.19301805506E+02  0.45951929793E+01  0.29128139695E+03  0.31762628105E+03  0.12509167321E+03 0.  0.
          5    1    3    3  502    0  0.88485649596E+01 -0.47109853569E+02  0.23694279006E+03  0.24177881125E+03  0.41800000000E+01 0.  1.
         -5    1    3    3    0  502  0.10453240546E+02  0.51705046548E+02  0.54338606889E+02  0.75847469800E+02  0.41800000000E+01 0.  1.
        -11    1    1    2    0    0 -0.17458869385E+02 -0.47321002200E+02  0.73494017029E+02  0.89137309296E+02  0.00000000000E+00 0.  1.
         11    1    1    2    0    0 -0.18429361207E+01  0.42725809221E+02  0.84909823303E+02  0.95071390442E+02  0.00000000000E+00 0. -1.
</event>
<event>
 7    1  0.2641580E-009  0.1177337E+03  0.7561462E-02  0.1246883E+00
         -2   -1    0    0    0  501 -0.00000000000E+00  0.00000000000E+00  0.34734248844E+02  0.34734248844E+02  0.00000000000E+00 0. -1.
          2   -1    0    0  501    0  0.00000000000E+00 -0.00000000000E+00 -0.45014394613E+03  0.45014394613E+03  0.00000000000E+00 0.  1.
         25    2    1    2    0    0 -0.24504805177E+02 -0.59424317380E+02 -0.27506543904E+03  0.30891333764E+03  0.12503887173E+03 0.  0.
          5    1    3    3  502    0  0.34009179459E+02 -0.72702691498E+02 -0.16224537430E+03  0.18106170086E+03  0.41800000000E+01 0.  1.
         -5    1    3    3    0  502 -0.58513984636E+02  0.13278374118E+02 -0.11282006475E+03  0.12785163678E+03  0.41800000000E+01 0.  1.
        -11    1    1    2    0    0  0.49054984999E+02  0.44401832513E+02 -0.55463767925E+02  0.86337383770E+02  0.00000000000E+00 0.  1.
         11    1    1    2    0    0 -0.24550179822E+02  0.15022484867E+02 -0.84880490315E+02  0.89627473561E+02  0.00000000000E+00 0. -1.
</event>
<event>
 7    1  0.2641580E-009  0.5274070E+02  0.7561462E-02  0.1431096E+00
          2   -1    0    0  501    0  0.00000000000E+00  0.00000000000E+00  0.10451166972E+03  0.10451166972E+03  0.00000000000E+00 0. -1.
         -2   -1    0    0    0  501 -0.00000000000E+00 -0.00000000000E+00 -0.12113234851E+03  0.12113234851E+03  0.00000000000E+00 0.  1.
         25    2    1    2    0    0  0.21197496775E+02  0.15979900550E+02 -0.24183386818E+02  0.13011948706E+03  0.12506619697E+03 0.  0.
          5    1    3    3  502    0 -0.62090056390E+01 -0.12672668938E+02 -0.68758245272E+02  0.70315837348E+02  0.41800000000E+01 0. -1.
         -5    1    3    3    0  502  0.27406502414E+02  0.28652569488E+02  0.44574858454E+02  0.59803649714E+02  0.41800000000E+01 0. -1.
        -11    1    1    2    0    0  0.22881931692E+01  0.13222666722E+02 -0.35788139006E+02  0.38221272045E+02  0.00000000000E+00 0.  1.
         11    1    1    2    0    0 -0.23485689945E+02 -0.29202567272E+02  0.43350847034E+02  0.57303259122E+02  0.00000000000E+00 0. -1.
</event>
<event>
 7    1  0.2641580E-009  0.9994166E+02  0.7561462E-02  0.1280419E+00
         -2   -1    0    0    0  501 -0.00000000000E+00  0.00000000000E+00  0.10430964127E+03  0.10430964127E+03  0.00000000000E+00 0.  1.
          2   -1    0    0  501    0  0.00000000000E+00 -0.00000000000E+00 -0.17342368682E+03  0.17342368682E+03  0.00000000000E+00 0. -1.
         25    2    1    2    0    0 -0.72072365331E+02  0.32119819665E+02 -0.30389914321E+02  0.15098315418E+03  0.12508500028E+03 0.  0.
          5    1    3    3  502    0  0.11967190322E+01  0.78669934365E+01 -0.65483413899E+02  0.66097440329E+02  0.41800000000E+01 0.  1.
         -5    1    3    3    0  502 -0.73269084363E+02  0.24252826229E+02  0.35093499578E+02  0.84885713852E+02  0.41800000000E+01 0.  1.
        -11    1    1    2    0    0  0.38738496403E+02 -0.59136755107E+02 -0.27358510650E+01  0.70748228170E+02  0.00000000000E+00 0.  1.
         11    1    1    2    0    0  0.33333868928E+02  0.27016935442E+02 -0.35988280164E+02  0.56001945748E+02  0.00000000000E+00 0. -1.
</event>
<event>
 7    1  0.2641580E-009  0.7488785E+02  0.7561462E-02  0.1344219E+00
          2   -1    0    0  501    0  0.00000000000E+00  0.00000000000E+00  0.29734310028E+04  0.29734310028E+04  0.00000000000E+00 0. -1.
         -2   -1    0    0    0  501 -0.00000000000E+00 -0.00000000000E+00 -0.23130297420E+02  0.23130297420E+02  0.00000000000E+00 0.  1.
         25    2    1    2    0    0 -0.19460833478E+02 -0.36584816010E+01  0.28713214332E+04  0.28741131838E+04  0.12509081445E+03 0.  0.
          5    1    3    3  502    0 -0.51146899399E+02  0.52791387902E+01  0.26315873262E+04  0.26320929319E+04  0.41800000000E+01 0.  1.
         -5    1    3    3    0  502  0.31686065921E+02 -0.89376203912E+01  0.23973410701E+03  0.24202025183E+03  0.41800000000E+01 0.  1.
        -11    1    1    2    0    0 -0.13669643700E+02 -0.20046139991E+02 -0.86930402125E+01  0.25773549146E+02  0.00000000000E+00 0.  1.
         11    1    1    2    0    0  0.33130477178E+02  0.23704621592E+02  0.87672312414E+02  0.96674567322E+02  0.00000000000E+00 0. -1.
</event>
<event>
 7    1  0.2641580E-009  0.1227536E+03  0.7561462E-02  0.1238622E+00
         -2   -1    0    0    0  501 -0.00000000000E+00  0.00000000000E+00  0.31386087074E+02  0.31386087074E+02  0.00000000000E+00 0. -1.
          2   -1    0    0  501    0  0.00000000000E+00 -0.00000000000E+00 -0.77460247168E+03  0.77460247168E+03  0.00000000000E+00 0.  1.
         25    2    1    2    0    0  0.56471989119E+02  0.94470779258E+02 -0.35042455996E+03  0.38801861116E+03  0.12508899512E+03 0.  0.
          5    1    3    3  502    0  0.49078613347E+02  0.80850483886E+02 -0.35797329604E+03  0.37028079090E+03  0.41800000000E+01 0. -1.
         -5    1    3    3    0  502  0.73933757719E+01  0.13620295372E+02  0.75487360797E+01  0.17737820265E+02  0.41800000000E+01 0. -1.
        -11    1    1    2    0    0 -0.61288792820E+02 -0.10591314231E+03 -0.38325130650E+03  0.40231265674E+03  0.00000000000E+00 0.  1.
         11    1    1    2    0    0  0.48168037009E+01  0.11442363056E+02 -0.95405181470E+01  0.15657290849E+02  0.00000000000E+00 0. -1.
</event>
<event>
 7    1  0.2641580E-009  0.7954025E+02  0.7561462E-02  0.1330361E+00
          2   -1    0    0  501    0  0.00000000000E+00  0.00000000000E+00  0.75321731010E+03  0.75321731010E+03  0.00000000000E+00 0. -1.
         -2   -1    0    0    0  501 -0.00000000000E+00 -0.00000000000E+00 -0.19769712308E+02  0.19769712308E+02  0.00000000000E+00 0.  1.
         25    2    1    2    0    0  0.49378138744E+02  0.13825386948E+02  0.50379084598E+03  0.52161252764E+03  0.12508025660E+03 0.  0.
          5    1    3    3  502    0 -0.47959487279E+00 -0.89550650599E+01 -0.41326596819E+01  0.10722615237E+02  0.41800000000E+01 0.  1.
         -5    1    3    3    0  502  0.49857733617E+02  0.22780452007E+02  0.50792350566E+03  0.51088991241E+03  0.41800000000E+01 0.  1.
        -11    1    1    2    0    0 -0.52730338286E+02  0.22788965648E+02  0.88506179645E+02  0.10551383495E+03  0.00000000000E+00 0.  1.
         11    1    1    2    0    0  0.33521995421E+01 -0.36614352596E+02  0.14115057217E+03  0.14586065982E+03  0.00000000000E+00 0. -1.
</event>
<event>
 6    1  0.3057092E-009  0.1251640E+03  0.7561462E-02  0.1234813E+00
          1   -1    0    0  501    0  0.00000000000E+00  0.00000000000E+00  0.15917716871E+04  0.15917716871E+04  0.00000000000E+00 0. -1.
         -1   -1    0    0    0  501 -0.00000000000E+00 -0.00000000000E+00 -0.11312877480E+02  0.11312877480E+02  0.00000000000E+00 0.  1.
          5    1    1    2  502    0  0.29020736720E+02 -0.18833275261E+01  0.90500155827E+02  0.95149885376E+02  0.41800000000E+01 0.  1.
         -5    1    1    2    0  502 -0.10307739688E+03 -0.90702347426E+01  0.92858928968E+03  0.93434616723E+03  0.41800000000E+01 0.  1.
        -11    1    1    2    0    0  0.32251749073E+02 -0.40061999080E+02  0.26890365090E+03  0.27377785257E+03  0.00000000000E+00 0.  1.
         11    1    1    2    0    0  0.41804911084E+02  0.51015561349E+02  0.29246571325E+03  0.29981065945E+03  0.00000000000E+00 0. -1.
</event>
<event>
 7    1  0.2641580E-009  0.9031376E+02  0.7561462E-02  0.1302094E+00
         -1   -1    0    0    0  501 -0.00000000000E+00  0.00000000000E+00  0.10447290300E+03  0.10447290300E+03  0.00000000000E+00 0.  1.
          1   -1    0    0  501    0  0.00000000000E+00 -0.00000000000E+00 -0.22646494542E+03  0.22646494542E+03  0.00000000000E+00 0. -1.
         25    2    1    2    0    0  0.23087277729E+02  0.21635789849E+00  0.48593358118E+02  0.13616460267E+03  0.12508563212E+03 0.  0.
          5    1    3    3  502    0  0.30854939850E+02  0.47510464651E+02 -0.12738282570E+02  0.58215185367E+02  0.41800000000E+01 0. -1.
         -5    1    3    3    0  502 -0.77676621204E+01 -0.47294106753E+02  0.61331640689E+02  0.77949417303E+02  0.41800000000E+01 0. -1.
        -11    1    1    2    0    0 -0.33742492157E+02  0.29076947319E+02 -0.15220036360E+03  0.15858428461E+03  0.00000000000E+00 0. -1.
         11    1    1    2    0    0  0.10655214428E+02 -0.29293305218E+02 -0.18385036934E+02  0.36188961137E+02  0.00000000000E+00 0.  1.
</event>
<event>
 7    1  0.2641580E-009  0.1246648E+03  0.7561462E-02  0.1235594E+00
          1   -1    0    0  501    0  0.00000000000E+00  0.00000000000E+00  0.80866356232E+03  0.80866356232E+03  0.00000000000E+00 0. -1.
         -1   -1    0    0    0  501 -0.00000000000E+00 -0.00000000000E+00 -0.20135917110E+02  0.20135917110E+02  0.00000000000E+00 0.  1.
         25    2    1    2    0    0 -0.52012322498E+02 -0.40829700845E+02  0.47625490895E+03  0.49682768406E+03  0.12508662271E+03 0.  0.
          5    1    3    3  502    0 -0.34417246516E+02 -0.83769471172E+02  0.36739820330E+03  0.37841879359E+03  0.41800000000E+01 0. -1.
         -5    1    3    3    0  502 -0.17595075982E+02  0.42939770327E+02  0.10885670566E+03  0.11840889047E+03  0.41800000000E+01 0. -1.
        -11    1    1    2    0    0  0.66471992775E+02  0.58982943841E+02  0.26031987160E+03  0.27507080732E+03  0.00000000000E+00 0.  1.
         11    1    1    2    0    0 -0.14459670277E+02 -0.18153242996E+02  0.51952864654E+02  0.56900988054E+02  0.00000000000E+00 0. -1.
</event>
<event>
 7    1  0.2641580E-009  0.9109581E+02  0.7561462E-02  0.1300220E+00
          2   -1    0    0  501    0  0.00000000000E+00  0.00000000000E+00  0.12024790427E+03  0.12024790427E+03  0.00000000000E+00 0. -1.
         -2   -1    0    0    0  501 -0.00000000000E+00 -0.00000000000E+00 -0.10214834799E+03  0.10214834799E+03  0.00000000000E+00 0.  1.
         25    2    1    2    0    0  0.13161770804E+02  0.47090911405E+01  0.26587305414E+02  0.12864628925E+03  0.12509026812E+03 0.  0.
          5    1    3    3  502    0 -0.45629749326E+02  0.20447515894E+02  0.42325697805E+02  0.65643827010E+02  0.41800000000E+01 0.  1.
         -5    1    3    3    0  502  0.58791520129E+02 -0.15738424754E+02 -0.15738392391E+02  0.63002462237E+02  0.41800000000E+01 0.  1.
        -11    1    1    2    0    0 -0.41487388165E+02  0.31731102762E+01  0.25506844584E+02  0.48804417077E+02  0.00000000000E+00 0. -1.
         11    1    1    2    0    0  0.28325617361E+02 -0.78822014166E+01 -0.33994593709E+02  0.44945545936E+02  0.00000000000E+00 0.  1.
</event>
<event>
 7    1  0.2890582E-009  0.1023571E+03  0.7561462E-02  0.1275416E+00
          1   -1    0    0  501    0  0.00000000000E+00  0.00000000000E+00  0.19140272295E+03  0.19140272295E+03  0.00000000000E+00 0. -1.
         -1   -1    0    0    0  501 -0.00000000000E+00 -0.00000000000E+00 -0.73927107013E+02  0.73927107013E+02  0.00000000000E+00 0.  1.
         25    2    1    2    0    0 -0.28371192575E+02 -0.48752361185E+01  0.11072467131E+03  0.16951791990E+03  0.12509068644E+03 0.  0.
          5    1    3    3  502    0  0.65798560880E+01  0.46710876825E+02  0.62047012716E+01  0.47761608408E+02  0.41800000000E+01 0.  1.
         -5    1    3    3    0  502 -0.34951048663E+02 -0.51586112943E+02  0.10451997004E+03  0.12175631149E+03  0.41800000000E+01 0.  1.
        -11    1    1    2    0    0  0.16881406333E+02 -0.42724703674E+02 -0.23813806987E+01  0.46000577799E+02  0.00000000000E+00 0.  1.
         11    1    1    2    0    0  0.11489786242E+02  0.47599939793E+02  0.91323253280E+01  0.49811332266E+02  0.00000000000E+00 0. -1.
</event>
<event>
 7    1  0.2641580E-009  0.7887319E+02  0.7561462E-02  0.1332280E+00
          3   -1    0    0  501    0  0.00000000000E+00  0.00000000000E+00  0.17135943830E+03  0.17135943830E+03  0.00000000000E+00 0. -1.
         -3   -1    0    0    0  501 -0.00000000000E+00 -0.00000000000E+00 -0.73713793298E+02  0.73713793298E+02  0.00000000000E+00 0.  1.
         25    2    1    2    0    0 -0.45150346495E+01  0.19863832484E+01  0.25888929812E+02  0.12782270139E+03  0.12507627691E+03 0.  0.
          5    1    3    3  502    0  0.13804046561E+01  0.32966501821E+02 -0.41570980072E+02  0.53238280809E+02  0.41800000000E+01 0.  1.
         -5    1    3    3    0  502 -0.58954393056E+01 -0.30980118572E+02  0.67459909885E+02  0.74584420578E+02  0.41800000000E+01 0.  1.
        -11    1    1    2    0    0 -0.25554839202E+02  0.36049883839E+02  0.36206997638E+02  0.57127844431E+02  0.00000000000E+00 0.  1.
         11    1    1    2    0    0  0.30069873852E+02 -0.38036267088E+02  0.35549717556E+02  0.60122685782E+02  0.00000000000E+00 0. -1.
</event>
<event>
 7    1  0.2641580E-009  0.1386204E+03  0.7561462E-02  0.1215197E+00
         -1   -1    0    0    0  501 -0.00000000000E+00  0.00000000000E+00  0.85389966274E+02  0.85389966274E+02  0.00000000000E+00 0.  1.
          1   -1    0    0  501    0  0.00000000000E+00 -0.00000000000E+00 -0.25325180368E+03  0.25325180368E+03  0.00000000000E+00 0. -1.
         25    2    1    2    0    0  0.82110703202E+02 -0.36677322081E+02 -0.12592702484E+03  0.19897929431E+03  0.12509096868E+03 0.  0.
          5    1    3    3  502    0  0.16846425098E+02 -0.75238119115E+02 -0.52586717360E+02  0.93420617902E+02  0.41800000000E+01 0. -1.
         -5    1    3    3    0  502  0.65264278104E+02  0.38560797034E+02 -0.73340307481E+02  0.10555867641E+03  0.41800000000E+01 0. -1.
        -11    1    1    2    0    0 -0.50293360920E+02  0.64534421664E+02 -0.51002136990E+02  0.96412300614E+02  0.00000000000E+00 0. -1.
         11    1    1    2    0    0 -0.31817342283E+02 -0.27857099583E+02  0.90673244285E+01  0.43250175022E+02  0.00000000000E+00 0.  1.
</event>
<event>
 7    1  0.2641580E-009  0.9265611E+02  0.7561462E-02  0.1296544E+00
          3   -1    0    0  501    0  0.00000000000E+00  0.00000000000E+00  0.47708420477E+02  0.47708420477E+02  0.00000000000E+00 0. -1.
         -3   -1    0    0    0  501 -0.00000000000E+00 -0.00000000000E+00 -0.32984021054E+03  0.32984021054E+03  0.00000000000E+00 0.  1.
         25    2    1    2    0    0  0.27502632694E+02 -0.57817672145E+02 -0.13534130628E+03  0.19509962521E+03  0.12508923437E+03 0.  0.
          5    1    3    3  502    0  0.12471934165E+01 -0.48881539200E+02 -0.15385513924E+03  0.16149252812E+03  0.41800000000E+01 0. -1.
         -5    1    3    3    0  502  0.26255439278E+02 -0.89361329451E+01  0.18513832967E+02  0.33607097090E+02  0.41800000000E+01 0. -1.
        -11    1    1    2    0    0  0.96432755342E+01  0.68784911378E+02 -0.89373670821E+02  0.11319014901E+03  0.00000000000E+00 0. -1.
         11    1    1    2    0    0 -0.37145908229E+02 -0.10967239234E+02 -0.57416812970E+02  0.69258856807E+02  0.00000000000E+00 0.  1.
</event>
<event>
 7    1  0.2820605E-009  0.8721516E+02  0.7561462E-02  0.1309739E+00
         -3   -1    0    0    0  501 -0.00000000000E+00  0.00000000000E+00  0.19256656285E+03  0.19256656285E+03  0.00000000000E+00 0. -1.
          3   -1    0    0  501    0  0.00000000000E+00 -0.00000000000E+00 -0.10443293541E+03  0.10443293541E+03  0.00000000000E+00 0.  1.
         25    2    1    2    0    0  0.94721704468E+01 -0.80887451081E+02  0.90418827517E+02  0.17451494987E+03  0.12508957432E+03 0.  0.
          5    1    3    3  502    0  0.17702458862E+02 -0.34032570922E+02  0.11464563598E+03  0.12096564464E+03  0.41800000000E+01 0.  1.
         -5    1    3    3    0  502 -0.82302884149E+01 -0.46854880159E+02 -0.24226808466E+02  0.53549305229E+02  0.41800000000E+01 0.  1.
        -11    1    1    2    0    0 -0.22109346340E+02  0.47718086623E+02 -0.43386428630E+02  0.68177864265E+02  0.00000000000E+00 0.  1.
         11    1    1    2    0    0  0.12637175893E+02  0.33169364458E+02  0.41101228548E+02  0.54306684131E+02  0.00000000000E+00 0. -1.
</event>
<event>
 7    1  0.2641580E-009  0.1239989E+03  0.7561462E-02  0.1236642E+00
          2   -1    0    0  501    0  0.00000000000E+00  0.00000000000E+00  0.85925574451E+03  0.85925574451E+03  0.00000000000E+00 0. -1.
         -2   -1    0    0    0  501 -0.00000000000E+00 -0.00000000000E+00 -0.34583127440E+02  0.34583127440E+02  0.00000000000E+00 0.  1.
         25    2    1    2    0    0 -0.95830062566E+02 -0.39256045056E+02  0.64014167924E+03  0.66041838616E+03  0.12508651934E+03 0.  0.
          5    1    3    3  502    0 -0.10896888338E+03 -0.47378638487E+02  0.34631740766E+03  0.36615867076E+03  0.41800000000E+01 0.  1.
         -5    1    3    3    0  502  0.13138820814E+02  0.81225934308E+01  0.29382427158E+03  0.29425971540E+03  0.41800000000E+01 0.  1.
        -11    1    1    2    0    0  0.40199630122E+02 -0.69324504397E+01  0.65534432553E+01  0.41316059221E+02  0.00000000000E+00 0.  1.
         11    1    1    2    0    0  0.55630432444E+02  0.46188495496E+02  0.17797749458E+03  0.19210442657E+03  0.00000000000E+00 0. -1.
</event>
<event>
 7    1  0.2641580E-009  0.1615869E+03  0.7561462E-02  0.1186917E+00
         -1   -1    0    0    0  501 -0.00000000000E+00  0.00000000000E+00  0.73626456705E+02  0.73626456705E+02  0.00000000000E+00 0.  1.
          1   -1    0    0  501    0  0.00000000000E+00 -0.00000000000E+00 -0.50059480154E+03  0.50059480154E+03  0.00000000000E+00 0. -1.
         25    2    1    2    0    0  0.96886643081E+02  0.84717705883E+02 -0.36001349845E+03  0.40227043225E+03  0.12509064831E+03 0.  0.
          5    1    3    3  502    0 -0.15241106090E+02 -0.95303796318E+01 -0.11736956902E+03  0.11881164750E+03  0.41800000000E+01 0.  1.
         -5    1    3    3    0  502  0.11212774917E+03  0.94248085515E+02 -0.24264392943E+03  0.28345878474E+03  0.41800000000E+01 0.  1.
        -11    1    1    2    0    0 -0.10920936155E+03 -0.47707762419E+02 -0.46703966829E+02  0.12799990532E+03  0.00000000000E+00 0. -1.
         11    1    1    2    0    0  0.12322718467E+02 -0.37009943464E+02 -0.20250879555E+02  0.43950920677E+02  0.00000000000E+00 0.  1.
</event>
<event>
 7    1  0.2641580E-009  0.1222394E+03  0.7561462E-02  0.1239448E+00
          3   -1    0    0  501    0  0.00000000000E+00  0.00000000000E+00  0.76274016656E+02  0.76274016656E+02  0.00000000000E+00 0. -1.
         -3   -1    0    0    0  501 -0.00000000000E+00 -0.00000000000E+00 -0.27536357789E+03  0.27536357789E+03  0.00000000000E+00 0.  1.
         25    2    1    2    0    0  0.42400905802E+02  0.76991317254E+02 -0.15064350915E+03  0.21463068626E+03  0.12508942757E+03 0.  0.
          5    1    3    3  502    0  0.78808970044E+02  0.48450222433E+02 -0.53488915962E+02  0.10694304252E+03  0.41800000000E+01 0.  1.
         -5    1    3    3    0  502 -0.36408064242E+02  0.28541094821E+02 -0.97154593193E+02  0.10768764374E+03  0.41800000000E+01 0.  1.
        -11    1    1    2    0    0 -0.15531961046E+01 -0.61834981725E+02  0.11485805035E+02  0.62911851828E+02  0.00000000000E+00 0. -1.
         11    1    1    2    0    0 -0.40847709698E+02 -0.15156335529E+02 -0.59931857113E+02  0.74095056456E+02  0.00000000000E+00 0.  1.
</event>
<event>
 7    1  0.2641580E-009  0.6977573E+02  0.7561462E-02  0.1360857E+00
          1   -1    0    0  501    0  0.00000000000E+00  0.00000000000E+00  0.30568505491E+02  0.30568505491E+02  0.00000000000E+00 0. -1.
         -1   -1    0    0    0  501 -0.00000000000E+00 -0.00000000000E+00 -0.48461345617E+03  0.48461345617E+03  0.00000000000E+00 0.  1.
         25    2    1    2    0    0 -0.39423845618E+02 -0.27521434242E+02 -0.30099894477E+03  0.32948360956E+03  0.12508962895E+03 0.  0.
          5    1    3    3  502    0  0.13596435842E+02  0.12713675767E+02  0.20459506873E+01  0.19187468132E+02  0.41800000000E+01 0. -1.
         -5    1    3    3    0  502 -0.53020281459E+02 -0.40235110008E+02 -0.30304489546E+03  0.31029614143E+03  0.41800000000E+01 0. -1.
        -11    1    1    2    0    0  0.11626946126E+02 -0.34886613152E+01  0.11040988567E+02  0.16409145698E+02  0.00000000000E+00 0. -1.
         11    1    1    2    0    0  0.27796899492E+02  0.31010095557E+02 -0.16408699448E+03  0.16928920640E+03  0.00000000000E+00 0.  1.
</event>
<event>
 7    1  0.2641580E-009  0.1130337E+03  0.7561462E-02  0.1255053E+00
          1   -1    0    0  501    0  0.00000000000E+00  0.00000000000E+00  0.15683504810E+03  0.15683504810E+03  0.00000000000E+00 0. -1.
         -1   -1    0    0    0  501 -0.00000000000E+00 -0.00000000000E+00 -0.87746693189E+02  0.87746693189E+02  0.00000000000E+00 0.  1.
         25    2    1    2    0    0  0.23546319026E+02  0.38860635268E+02  0.31128010070E+02  0.13667825560E+03  0.12508962559E+03 0.  0.
          5    1    3    3  502    0 -0.30716528445E+02  0.62690748640E+02  0.72802505298E+00  0.69940242387E+02  0.41800000000E+01 0.  1.
         -5    1    3    3    0  502  0.54262847470E+02 -0.23830113372E+02  0.30399985017E+02  0.66738013215E+02  0.41800000000E+01 0.  1.
        -11    1    1    2    0    0  0.83426629952E+01 -0.58615739876E+02  0.38072208096E+02  0.70391036477E+02  0.00000000000E+00 0. -1.
         11    1    1    2    0    0 -0.31888982021E+02  0.19755104608E+02 -0.11186325371E+00  0.37512449210E+02  0.00000000000E+00 0.  1.
</event>
<event>
 7    1  0.2641580E-009  0.1325962E+03  0.7561462E-02  0.1223654E+00
         -3   -1    0    0    0  501 -0.00000000000E+00  0.00000000000E+00  0.61725325637E+02  0.61725325637E+02  0.00000000000E+00 0.  1.
          3   -1    0    0  501    0  0.00000000000E+00 -0.00000000000E+00 -0.39099304056E+03  0.39099304056E+03  0.00000000000E+00 0. -1.
         25    2    1    2    0    0 -0.10151934106E+03 -0.25048956367E+01 -0.11297326793E+03  0.19677724442E+03  0.12508346630E+03 0.  0.
          5    1    3    3  502    0 -0.92111964398E+02 -0.31853947668E+02 -0.21137321833E+02  0.99817567299E+02  0.41800000000E+01 0.  1.
         -5    1    3    3    0  502 -0.94073766654E+01  0.29349052031E+02 -0.91835946099E+02  0.96959677117E+02  0.41800000000E+01 0.  1.
        -11    1    1    2    0    0  0.77155866809E+02 -0.40477760000E+02 -0.14595692804E+03  0.16998500428E+03  0.00000000000E+00 0.  1.
         11    1    1    2    0    0  0.24363474254E+02  0.42982655637E+02 -0.70337518959E+02  0.85956117505E+02  0.00000000000E+00 0. -1.
</event>
<event>
 7    1  0.2641580E-009  0.1386894E+03  0.7561462E-02  0.1215103E+00
         -1   -1    0    0    0  501 -0.00000000000E+00  0.00000000000E+00  0.13087185473E+03  0.13087185473E+03  0.00000000000E+00 0.  1.
          1   -1    0    0  501    0  0.00000000000E+00 -0.00000000000E+00 -0.21408708672E+03  0.21408708672E+03  0.00000000000E+00 0. -1.
         25    2    1    2    0    0 -0.56135920709E+02  0.78343590425E+02 -0.12989547499E+03  0.20447338644E+03  0.12509025376E+03 0.  0.
          5    1    3    3  502    0  0.11894490991E+02  0.88009531912E+02 -0.68566683845E+02  0.11227652986E+03  0.41800000000E+01 0.  1.
         -5    1    3    3    0  502 -0.68030411700E+02 -0.96659414869E+01 -0.61328791146E+02  0.92196856586E+02  0.41800000000E+01 0.  1.
        -11    1    1    2    0    0  0.28577055813E+02  0.74389996522E+01  0.40568741143E+02  0.50177779870E+02  0.00000000000E+00 0.  1.
         11    1    1    2    0    0  0.27558864896E+02 -0.85782590077E+02  0.61115018653E+01  0.90307775135E+02  0.00000000000E+00 0. -1.
</event>
<event>
 7    1  0.2641580E-009  0.1942032E+03  0.7561462E-02  0.1154724E+00
          2   -1    0    0  501    0  0.00000000000E+00  0.00000000000E+00  0.48793542947E+03  0.48793542947E+03  0.00000000000E+00 0. -1.
         -2   -1    0    0    0  501 -0.00000000000E+00 -0.00000000000E+00 -0.80592575813E+02  0.80592575813E+02  0.00000000000E+00 0.  1.
         25    2    1    2    0    0 -0.89914589550E+02 -0.13582572036E+03  0.17049781281E+03  0.26692663532E+03  0.12508822786E+03 0.  0.
          5    1    3    3  502    0 -0.97630543758E+02 -0.38128951170E+02  0.67736903789E+02  0.12486512935E+03  0.41800000000E+01 0. -1.
         -5    1    3    3    0  502  0.77159542075E+01 -0.97696769186E+02  0.10276090902E+03  0.14206150598E+03  0.41800000000E+01 0. -1.
        -11    1    1    2    0    0  0.10804333009E+03  0.11441783240E+03  0.18700424893E+03  0.24440824590E+03  0.00000000000E+00 0.  1.
         11    1    1    2    0    0 -0.18128740535E+02  0.21407887956E+02  0.49840791922E+02  0.57193124058E+02  0.00000000000E+00 0. -1.
</event>
<event>
 7    1  0.2641580E-009  0.1445439E+03  0.7561462E-02  0.1207342E+00
         -2   -1    0    0    0  501 -0.00000000000E+00  0.00000000000E+00  0.69570731075E+02  0.69570731075E+02  0.00000000000E+00 0.  1.
          2   -1    0    0  501    0  0.00000000000E+00 -0.00000000000E+00 -0.32759781488E+03  0.32759781488E+03  0.00000000000E+00 0. -1.
         25    2    1    2    0    0  0.96932955371E+02 -0.21756653708E+02 -0.18247865638E+03  0.24251746612E+03  0.12508761537E+03 0.  0.
          5    1    3    3  502    0 -0.97342741463E+01  0.32687013480E+02 -0.17355958335E+02  0.38495436523E+02  0.41800000000E+01 0. -1.
         -5    1    3    3    0  502  0.10666722952E+03 -0.54443667188E+02 -0.16512269804E+03  0.20402202959E+03  0.41800000000E+01 0. -1.
        -11    1    1    2    0    0 -0.28307514044E+02 -0.35582189856E+02 -0.23556398018E+02  0.51208509780E+02  0.00000000000E+00 0. -1.
         11    1    1    2    0    0 -0.68625441327E+02  0.57338843564E+02 -0.51992029410E+02  0.10344257006E+03  0.00000000000E+00 0.  1.
</event>
<event>
 7    1  0.2641580E-009  0.1315944E+03  0.7561462E-02  0.1225109E+00
         -2   -1    0    0    0  501 -0.00000000000E+00  0.00000000000E+00  0.73499800572E+02  0.73499800572E+02  0.00000000000E+00 0.  1.
          2   -1    0    0  501    0  0.00000000000E+00 -0.00000000000E+00 -0.24731565978E+03  0.24731565978E+03  0.00000000000E+00 0. -1.
         25    2    1    2    0    0  0.41197310130E+02  0.66323761141E+02 -0.98490808200E+02  0.17732503716E+03  0.12509064653E+03 0.  0.
          5    1    3    3  502    0 -0.38285626718E+02  0.48654510250E+02 -0.62925589554E+02  0.88375068891E+02  0.41800000000E+01 0.  1.
         -5    1    3    3    0  502  0.79482936848E+02  0.17669250891E+02 -0.35565218646E+02  0.88949968265E+02  0.41800000000E+01 0.  1.
        -11    1    1    2    0    0  0.67997641792E+01  0.19841457624E+02 -0.25408468835E+02  0.32947086701E+02  0.00000000000E+00 0. -1.
         11    1    1    2    0    0 -0.47997074309E+02 -0.86165218765E+02 -0.49916582169E+02  0.11054333649E+03  0.00000000000E+00 0.  1.
</event>
<event>
 7    1  0.2641580E-009  0.1801686E+03  0.7561462E-02  0.1167640E+00
          1   -1    0    0  501    0  0.00000000000E+00  0.00000000000E+00  0.37316685793E+03  0.37316685793E+03  0.00000000000E+00 0. -1.
         -1   -1    0    0    0  501 -0.00000000000E+00 -0.00000000000E+00 -0.10777467235E+03  0.10777467235E+03  0.00000000000E+00 0.  1.
         25    2    1    2    0    0  0.13990339979E+03  0.87471477636E+02  0.11122381030E+03  0.23503636596E+03  0.12508851536E+03 0.  0.
          5    1    3    3  502    0  0.21681852153E+01  0.24468700723E+02 -0.22028892995E+02  0.33259026877E+02  0.41800000000E+01 0.  1.
         -5    1    3    3    0  502  0.13773521457E+03  0.63002776914E+02  0.13325270330E+03  0.20177733908E+03  0.41800000000E+01 0.  1.
        -11    1    1    2    0    0 -0.11078807982E+03 -0.22985846779E+02  0.59859795997E+02  0.12800602704E+03  0.00000000000E+00 0. -1.
         11    1    1    2    0    0 -0.29115319964E+02 -0.64485630858E+02  0.94308579282E+02  0.11789913727E+03  0.00000000000E+00 0.  1.
</event>
<event>
 7    1  0.2641580E-009  0.8974572E+02  0.7561462E-02  0.1303469E+00
         -2   -1    0    0    0  501 -0.00000000000E+00  0.00000000000E+00  0.19620915546E+02  0.19620915546E+02  0.00000000000E+00 0. -1.
          2   -1    0    0  501    0  0.00000000000E+00 -0.00000000000E+00 -0.75050865964E+03  0.75050865964E+03  0.00000000000E+00 0.  1.
         25    2    1    2    0    0  0.22273353756E+02 -0.17880384082E+02 -0.53728764988E+03  0.55239591985E+03  0.12508966035E+03 0.  0.
          5    1    3    3  502    0 -0.26670536459E+02 -0.44283596411E+02 -0.11150275513E+03  0.12297435191E+03  0.41800000000E+01 0.  1.
         -5    1    3    3    0  502  0.48943890214E+02  0.26403212329E+02 -0.42578489475E+03  0.42942156794E+03  0.41800000000E+01 0.  1.
        -11    1    1    2    0    0 -0.56126134461E+00 -0.24359605626E+02 -0.72429275665E+01  0.25419783640E+02  0.00000000000E+00 0. -1.
         11    1    1    2    0    0 -0.21712092411E+02  0.42239989708E+02 -0.18635716665E+03  0.19231387170E+03  0.00000000000E+00 0.  1.
</event>
<event>
 7    1  0.2641580E-009  0.8028225E+02  0.7561462E-02  0.1328252E+00
          1   -1    0    0  501    0  0.00000000000E+00  0.00000000000E+00  0.35646106747E+03  0.35646106747E+03  0.00000000000E+00 0. -1.
         -1   -1    0    0    0  501 -0.00000000000E+00 -0.00000000000E+00 -0.10250606717E+03  0.10250606717E+03  0.00000000000E+00 0.  1.
         25    2    1    2    0    0  0.57103544768E+01 -0.12540968910E+02  0.32313935723E+03  0.34678501348E+03  0.12510362639E+03 0.  0.
          5    1    3    3  502    0 -0.34418422610E+02  0.40470645552E+02  0.92882514358E+02  0.10708470871E+03  0.41800000000E+01 0.  1.
         -5    1    3    3    0  502  0.40128777087E+02 -0.53011614461E+02  0.23025684287E+03  0.23970030477E+03  0.41800000000E+01 0.  1.
        -11    1    1    2    0    0 -0.85708983938E+01 -0.12661859075E+02 -0.82243751835E+02  0.83652959843E+02  0.00000000000E+00 0.  1.
         11    1    1    2    0    0  0.28605439170E+01  0.25202827985E+02  0.13059394903E+02  0.28529161312E+02  0.00000000000E+00 0. -1.
</event>
<event>
 7    1  0.2641580E-009  0.2077261E+03  0.7561462E-02  0.1143379E+00
          3   -1    0    0  501    0  0.00000000000E+00  0.00000000000E+00  0.18336046199E+03  0.18336046199E+03  0.00000000000E+00 0. -1.
         -3   -1    0    0    0  501 -0.00000000000E+00 -0.00000000000E+00 -0.29421480362E+03  0.29421480362E+03  0.00000000000E+00 0.  1.
         25    2    1    2    0    0  0.76253037505E+02 -0.17519882304E+03  0.19766783342E+02  0.22923039481E+03  0.12508674933E+03 0.  0.
          5    1    3    3  502    0  0.98038544651E+02 -0.12430637866E+03  0.49922347924E+02  0.16605223646E+03  0.41800000000E+01 0. -1.
         -5    1    3    3    0  502 -0.21785507146E+02 -0.50892444385E+02 -0.30155564582E+02  0.63178158349E+02  0.41800000000E+01 0. -1.
        -11    1    1    2    0    0 -0.84620469760E+01  0.99854787140E+02 -0.10208386180E+03  0.14305138794E+03  0.00000000000E+00 0.  1.
         11    1    1    2    0    0 -0.67790990529E+02  0.75344035901E+02 -0.28537263179E+02  0.10529348286E+03  0.00000000000E+00 0. -1.
</event>
<event>
 7    1  0.2641580E-009  0.1388094E+03  0.7561462E-02  0.1214940E+00
          1   -1    0    0  501    0  0.00000000000E+00  0.00000000000E+00  0.46605933640E+03  0.46605933640E+03  0.00000000000E+00 0. -1.
         -1   -1    0    0    0  501 -0.00000000000E+00 -0.00000000000E+00 -0.51900392980E+02  0.51900392980E+02  0.00000000000E+00 0.  1.
         25    2    1    2    0    0  0.60614760320E+01 -0.93478999654E+02  0.12262523186E+03  0.19864457284E+03  0.12509058303E+03 0.  0.
          5    1    3    3  502    0  0.58130496919E+02 -0.83996404014E+02  0.70083504730E+02  0.12395047638E+03  0.41800000000E+01 0.  1.
         -5    1    3    3    0  502 -0.52069020887E+02 -0.94825956397E+01  0.52541727128E+02  0.74694096459E+02  0.41800000000E+01 0.  1.
        -11    1    1    2    0    0 -0.38245360245E+02  0.77362182780E+02  0.14786770462E+03  0.17120885775E+03  0.00000000000E+00 0.  1.
         11    1    1    2    0    0  0.32183884213E+02  0.16116816874E+02  0.14366600695E+03  0.14810629879E+03  0.00000000000E+00 0. -1.
</event>
<event>
 7    1  0.2641580E-009  0.1417161E+03  0.7561462E-02  0.1211038E+00
         -1   -1    0    0    0  501 -0.00000000000E+00  0.00000000000E+00  0.26638532097E+02  0.26638532097E+02  0.00000000000E+00 0.  1.
          1   -1    0    0  501    0  0.00000000000E+00 -0.00000000000E+00 -0.85109198898E+03  0.85109198898E+03  0.00000000000E+00 0. -1.
         25    2    1    2    0    0 -0.81169677590E+02  0.55133104765E+02 -0.35182088507E+03  0.38607506294E+03  0.12509133963E+03 0.  0.
          5    1    3    3  502    0 -0.35786658821E+02 -0.33104759544E+02 -0.57771858107E+02  0.75707793807E+02  0.41800000000E+01 0.  1.
         -5    1    3    3    0  502 -0.45383018769E+02  0.88237864309E+02 -0.29404902696E+03  0.31036726913E+03  0.41800000000E+01 0.  1.
        -11    1    1    2    0    0  0.98705017289E+02 -0.61771278314E+02 -0.39615479404E+03  0.41291281416E+03  0.00000000000E+00 0. -1.
         11    1    1    2    0    0 -0.17535339699E+02  0.66381735494E+01 -0.76477777781E+02  0.78742643979E+02  0.00000000000E+00 0.  1.
</event>
<event>
 7    1  0.2641580E-009  0.1108589E+03  0.7561462E-02  0.1258988E+00
          1   -1    0    0  501    0  0.00000000000E+00  0.00000000000E+00  0.10759813470E+03  0.10759813470E+03  0.00000000000E+00 0. -1.
         -1   -1    0    0    0  501 -0.00000000000E+00 -0.00000000000E+00 -0.22558658121E+03  0.22558658121E+03  0.00000000000E+00 0.  1.
         25    2    1    2    0    0  0.68068601172E+02  0.52659726706E+02  0.12281978407E+02  0.15233100875E+03  0.12508999940E+03 0.  0.
          5    1    3    3  502    0  0.86336801970E+02  0.89123796675E+01  0.41696648684E+02  0.96382346918E+02  0.41800000000E+01 0.  1.
         -5    1    3    3    0  502 -0.18268200799E+02  0.43747347038E+02 -0.29414670277E+02  0.55948661832E+02  0.41800000000E+01 0.  1.
        -11    1    1    2    0    0 -0.73450889373E+01 -0.12268722301E+02  0.13486255296E+02  0.19655812379E+02  0.00000000000E+00 0. -1.
         11    1    1    2    0    0 -0.60723512234E+02 -0.40391004405E+02 -0.14375668021E+03  0.16119789478E+03  0.00000000000E+00 0.  1.
</event>
<event>
 7    1  0.2641580E-009  0.1346322E+03  0.7561462E-02  0.1220740E+00
         -2   -1    0    0    0  501 -0.00000000000E+00  0.00000000000E+00  0.36237586516E+03  0.36237586516E+03  0.00000000000E+00 0.  1.
          2   -1    0    0  501    0  0.00000000000E+00 -0.00000000000E+00 -0.44643867248E+03  0.44643867248E+03  0.00000000000E+00 0. -1.
         25    2    1    2    0    0 -0.40405980573E+02 -0.11719072576E+03 -0.41083411887E+03  0.44699238484E+03  0.12510479370E+03 0.  0.
          5    1    3    3  502    0 -0.46917749390E+01  0.16704778843E+01 -0.21504040025E+03  0.21513867478E+03  0.41800000000E+01 0. -1.
         -5    1    3    3    0  502 -0.35714205634E+02 -0.11886120364E+03 -0.19579371862E+03  0.23185371006E+03  0.41800000000E+01 0. -1.
        -11    1    1    2    0    0  0.54803484493E+02  0.10903814736E+03  0.32237816342E+03  0.34470337936E+03  0.00000000000E+00 0.  1.
         11    1    1    2    0    0 -0.14397503920E+02  0.81525784030E+01  0.43931481335E+01  0.17118773445E+02  0.00000000000E+00 0. -1.
</event>
<event>
 7    1  0.2641580E-009  0.2163021E+03  0.7561462E-02  0.1136670E+00
          1   -1    0    0  501    0  0.00000000000E+00  0.00000000000E+00  0.44037638714E+03  0.44037638714E+03  0.00000000000E+00 0. -1.
         -1   -1    0    0    0  501 -0.00000000000E+00 -0.00000000000E+00 -0.11655371699E+03  0.11655371699E+03  0.00000000000E+00 0.  1.
         25    2    1    2    0    0 -0.16608753377E+03  0.94431735611E+02  0.99285852529E+02  0.24901272575E+03  0.12508891041E+03 0.  0.
          5    1    3    3  502    0 -0.17664615036E+03  0.55112436177E+02  0.94464434235E+02  0.20780338013E+03  0.41800000000E+01 0. -1.
         -5    1    3    3    0  502  0.10558616586E+02  0.39319299433E+02  0.48214182941E+01  0.41209345621E+02  0.41800000000E+01 0. -1.
        -11    1    1    2    0    0  0.15356521844E+03 -0.10829158354E+03  0.21872019035E+03  0.28835371516E+03  0.00000000000E+00 0. -1.
         11    1    1    2    0    0  0.12522315335E+02  0.13859847927E+02  0.58166272669E+01  0.19563663222E+02  0.00000000000E+00 0.  1.
</event>
<event>
 7    1  0.2641580E-009  0.1700647E+03  0.7561462E-02  0.1177780E+00
          1   -1    0    0  501    0  0.00000000000E+00  0.00000000000E+00  0.41337975821E+02  0.41337975821E+02  0.00000000000E+00 0. -1.
         -1   -1    0    0    0  501 -0.00000000000E+00 -0.00000000000E+00 -0.10144955410E+04  0.10144955410E+04  0.00000000000E+00 0.  1.
         25    2    1    2    0    0  0.20289267789E+02 -0.15368059351E+03 -0.70737271698E+03  0.73488308692E+03  0.12509041330E+03 0.  0.
          5    1    3    3  502    0 -0.61328505185E+01 -0.15351481967E+03 -0.67779618088E+03  0.69500327116E+03  0.41800000000E+01 0.  1.
         -5    1    3    3    0  502  0.26422118307E+02 -0.16577383798E+00 -0.29576536102E+02  0.39879815754E+02  0.41800000000E+01 0.  1.
        -11    1    1    2    0    0  0.94944794423E+01  0.74223767518E+02 -0.52509274262E+02  0.91414094581E+02  0.00000000000E+00 0. -1.
         11    1    1    2    0    0 -0.29783747231E+02  0.79456825995E+02 -0.21327557398E+03  0.22953633536E+03  0.00000000000E+00 0.  1.
</event>
<event>
 7    1  0.2641580E-009  0.4201236E+03  0.7561462E-02  0.1037026E+00
          2   -1    0    0  501    0  0.00000000000E+00  0.00000000000E+00  0.93938118541E+03  0.93938118541E+03  0.00000000000E+00 0. -1.
         -2   -1    0    0    0  501 -0.00000000000E+00 -0.00000000000E+00 -0.20289732087E+03  0.20289732087E+03  0.00000000000E+00 0.  1.
         25    2    1    2    0    0 -0.14495835379E+03 -0.38283058365E+03  0.23426456379E+03  0.48796777164E+03  0.12514184033E+03 0.  0.
          5    1    3    3  502    0 -0.19430506459E+02  0.21065948374E+01  0.25529305370E+02  0.32422217009E+02  0.41800000000E+01 0. -1.
         -5    1    3    3    0  502 -0.12552784733E+03 -0.38493717849E+03  0.20873525842E+03  0.45554555463E+03  0.41800000000E+01 0. -1.
        -11    1    1    2    0    0  0.13984989948E+03  0.28575064782E+03  0.42066189703E+03  0.52741621015E+03  0.00000000000E+00 0. -1.
         11    1    1    2    0    0  0.51084543136E+01  0.97079935830E+02  0.81557403716E+02  0.12689452450E+03  0.00000000000E+00 0.  1.
</event>
<event>
 7    1  0.2641580E-009  0.1446646E+03  0.7561462E-02  0.1207187E+00
         -1   -1    0    0    0  501 -0.00000000000E+00  0.00000000000E+00  0.25192221068E+02  0.25192221068E+02  0.00000000000E+00 0.  1.
          1   -1    0    0  501    0  0.00000000000E+00 -0.00000000000E+00 -0.87025486135E+03  0.87025486135E+03  0.00000000000E+00 0. -1.
         25    2    1    2    0    0 -0.26713043867E+02 -0.91928190355E+02 -0.36898411676E+03  0.40119732702E+03  0.12508252435E+03 0.  0.
          5    1    3    3  502    0 -0.71638516420E+02 -0.85993050014E+02 -0.26141816516E+03  0.28440079318E+03  0.41800000000E+01 0.  1.
         -5    1    3    3    0  502  0.44925472554E+02 -0.59351403407E+01 -0.10756595160E+03  0.11679653385E+03  0.41800000000E+01 0.  1.
        -11    1    1    2    0    0  0.59162841935E+02  0.74011265824E+02 -0.31388955295E+03  0.32787888128E+03  0.00000000000E+00 0. -1.
         11    1    1    2    0    0 -0.32449798068E+02  0.17916924530E+02 -0.16218897058E+03  0.16637087412E+03  0.00000000000E+00 0.  1.
</event>
<event>
 7    1  0.2641580E-009  0.1077217E+03  0.7561462E-02  0.1264848E+00
         -2   -1    0    0    0  501 -0.00000000000E+00  0.00000000000E+00  0.14871063336E+03  0.14871063336E+03  0.00000000000E+00 0. -1.
          2   -1    0    0  501    0  0.00000000000E+00 -0.00000000000E+00 -0.16057510768E+03  0.16057510768E+03  0.00000000000E+00 0.  1.
         25    2    1    2    0    0  0.73912352578E+02  0.47837959613E+02  0.58352621774E+02  0.16371522388E+03  0.12508453070E+03 0.  0.
          5    1    3    3  502    0  0.72700566752E+02  0.30921664047E+02  0.94694344873E+02  0.12339373187E+03  0.41800000000E+01 0.  1.
         -5    1    3    3    0  502  0.12117858257E+01  0.16916295566E+02 -0.36341723099E+02  0.40321492016E+02  0.41800000000E+01 0.  1.
        -11    1    1    2    0    0 -0.89662716736E+02 -0.50473650481E+02 -0.76700382392E+02  0.12833526727E+03  0.00000000000E+00 0.  1.
         11    1    1    2    0    0  0.15750364158E+02  0.26356908685E+01  0.64832863045E+01  0.17235249890E+02  0.00000000000E+00 0. -1.
</event>
<event>
 7    1  0.2641580E-009  0.1507240E+03  0.7561462E-02  0.1199586E+00
          1   -1    0    0  501    0  0.00000000000E+00  0.00000000000E+00  0.11412970238E+03  0.11412970238E+03  0.00000000000E+00 0. -1.
         -1   -1    0    0    0  501 -0.00000000000E+00 -0.00000000000E+00 -0.26196947928E+03  0.26196947928E+03  0.00000000000E+00 0.  1.
         25    2    1    2    0    0  0.10041385127E+03 -0.60717406066E+02 -0.14815780966E+03  0.22663305908E+03  0.12506902886E+03 0.  0.
          5    1    3    3  502    0 -0.99115385490E+01 -0.44712578881E+02 -0.89427373586E+02  0.10055933996E+03  0.41800000000E+01 0. -1.
         -5    1    3    3    0  502  0.11032538982E+03 -0.16004827184E+02 -0.58730436073E+02  0.12607371912E+03  0.41800000000E+01 0. -1.
        -11    1    1    2    0    0 -0.46273013764E+02  0.74802653237E+02  0.19924947621E+02  0.90186652404E+02  0.00000000000E+00 0. -1.
         11    1    1    2    0    0 -0.54140837503E+02 -0.14085247171E+02 -0.19606914864E+02  0.59279470172E+02  0.00000000000E+00 0.  1.
</event>
<event>
 7    1  0.2641580E-009  0.1189691E+03  0.7561462E-02  0.1244807E+00
          2   -1    0    0  501    0  0.00000000000E+00  0.00000000000E+00  0.16313578851E+03  0.16313578851E+03  0.00000000000E+00 0. -1.
         -2   -1    0    0    0  501 -0.00000000000E+00 -0.00000000000E+00 -0.90285612216E+02  0.90285612216E+02  0.00000000000E+00 0.  1.
         25    2    1    2    0    0  0.50674122192E+02  0.14524383126E+02  0.57653206226E+02  0.14748108285E+03  0.12509177929E+03 0.  0.
          5    1    3    3  502    0 -0.40541218870E+02  0.13575876477E+02  0.85506730408E+01  0.43800470991E+02  0.41800000000E+01 0. -1.
         -5    1    3    3    0  502  0.91215341062E+02  0.94850664892E+00  0.49102533186E+02  0.10368061186E+03  0.41800000000E+01 0. -1.
        -11    1    1    2    0    0 -0.62546125748E+02  0.21182520549E+02  0.17262851649E+02  0.68254839169E+02  0.00000000000E+00 0.  1.
         11    1    1    2    0    0  0.11872003556E+02 -0.35706903675E+02 -0.20658815862E+01  0.37685478704E+02  0.00000000000E+00 0. -1.
</event>
<event>
 7    1  0.2641580E-009  0.1354079E+03  0.7561462E-02  0.1219645E+00
          2   -1    0    0  501    0  0.00000000000E+00  0.00000000000E+00  0.45288480033E+03  0.45288480033E+03  0.00000000000E+00 0. -1.
         -2   -1    0    0    0  501 -0.00000000000E+00 -0.00000000000E+00 -0.68113084968E+02  0.68113084968E+02  0.00000000000E+00 0.  1.
         25    2    1    2    0    0 -0.90619037614E+02 -0.97752587787E+02  0.29525260709E+03  0.34725915199E+03  0.12508972079E+03 0.  0.
          5    1    3    3  502    0 -0.77450382021E+02 -0.96016303902E+02  0.30581294776E+03  0.32978284326E+03  0.41800000000E+01 0. -1.
         -5    1    3    3    0  502 -0.13168655593E+02 -0.17362838850E+01 -0.10560340667E+02  0.17476308731E+02  0.41800000000E+01 0. -1.
        -11    1    1    2    0    0  0.51887248818E+02  0.51101085854E+02  0.86436727550E+02  0.11302617146E+03  0.00000000000E+00 0. -1.
         11    1    1    2    0    0  0.38731788796E+02  0.46651501933E+02  0.30823807255E+01  0.60712561854E+02  0.00000000000E+00 0.  1.
</event>
<event>
 7    1  0.2641580E-009  0.8095812E+02  0.7561462E-02  0.1326354E+00
          2   -1    0    0  501    0  0.00000000000E+00  0.00000000000E+00  0.50688742215E+03  0.50688742215E+03  0.00000000000E+00 0. -1.
         -2   -1    0    0    0  501 -0.00000000000E+00 -0.00000000000E+00 -0.25324401392E+02  0.25324401392E+02  0.00000000000E+00 0.  1.
         25    2    1    2    0    0  0.31498168971E+02  0.25545431065E+01  0.29312916658E+03  0.32027330892E+03  0.12510644973E+03 0.  0.
          5    1    3    3  502    0 -0.17246987628E+02  0.12951538204E+01 -0.47371285079E+01  0.18413277605E+02  0.41800000000E+01 0.  1.
         -5    1    3    3    0  502  0.48745156598E+02  0.12593892860E+01  0.29786629509E+03  0.30186003131E+03  0.41800000000E+01 0.  1.
        -11    1    1    2    0    0 -0.61129513347E+02  0.11798859678E+02  0.14167481283E+03  0.15475071270E+03  0.00000000000E+00 0. -1.
         11    1    1    2    0    0  0.29631344376E+02 -0.14353402785E+02  0.46759041338E+02  0.57187801915E+02  0.00000000000E+00 0.  1.
</event>
<event>
 7    1  0.2641580E-009  0.1329448E+03  0.7561462E-02  0.1223150E+00
          2   -1    0    0  501    0  0.00000000000E+00  0.00000000000E+00  0.27995185983E+03  0.27995185983E+03  0.00000000000E+00 0. -1.
         -2   -1    0    0    0  501 -0.00000000000E+00 -0.00000000000E+00 -0.78251601171E+02  0.78251601171E+02  0.00000000000E+00 0.  1.
         25    2    1    2    0    0  0.93592598208E+02  0.19988777935E+02  0.16182727991E+03  0.22582183631E+03  0.12509319544E+03 0.  0.
          5    1    3    3  502    0  0.51943894899E+02  0.72285547127E+02  0.77269688468E+02  0.11794679180E+03  0.41800000000E+01 0. -1.
         -5    1    3    3    0  502  0.41648703309E+02 -0.52296769192E+02  0.84557591445E+02  0.10787504450E+03  0.41800000000E+01 0. -1.
        -11    1    1    2    0    0 -0.71515897496E+02  0.10361574825E+02  0.56110603236E+02  0.91489265070E+02  0.00000000000E+00 0. -1.
         11    1    1    2    0    0 -0.22076700711E+02 -0.30350352760E+02 -0.16237624488E+02  0.40892359628E+02  0.00000000000E+00 0.  1.
</event>
<event>
 7    1  0.2641580E-009  0.1047682E+03  0.7561462E-02  0.1270577E+00
         -2   -1    0    0    0  501 -0.00000000000E+00  0.00000000000E+00  0.45303930437E+02  0.45303930437E+02  0.00000000000E+00 0.  1.
          2   -1    0    0  501    0  0.00000000000E+00 -0.00000000000E+00 -0.53841780238E+03  0.53841780238E+03  0.00000000000E+00 0. -1.
         25    2    1    2    0    0 -0.44311152737E+02 -0.90573142712E+01 -0.76934466700E+02  0.15369307176E+03  0.12512847374E+03 0.  0.
          5    1    3    3  502    0 -0.17661271968E+02 -0.57498826085E+02 -0.18090287852E+01  0.60322305276E+02  0.41800000000E+01 0. -1.
         -5    1    3    3    0  502 -0.26649880769E+02  0.48441511813E+02 -0.75125437915E+02  0.93370766484E+02  0.41800000000E+01 0. -1.
        -11    1    1    2    0    0 -0.14456673166E+02  0.28448238765E+02 -0.55007756731E+02  0.63593639528E+02  0.00000000000E+00 0.  1.
         11    1    1    2    0    0  0.58767825903E+02 -0.19390924494E+02 -0.36117164852E+03  0.36643502153E+03  0.00000000000E+00 0. -1.
</event>
<event>
 7    1  0.2641580E-009  0.6995155E+02  0.7561462E-02  0.1360258E+00
         -2   -1    0    0    0  501 -0.00000000000E+00  0.00000000000E+00  0.37881469809E+02  0.37881469809E+02  0.00000000000E+00 0.  1.
          2   -1    0    0  501    0  0.00000000000E+00 -0.00000000000E+00 -0.35632072715E+03  0.35632072715E+03  0.00000000000E+00 0. -1.
         25    2    1    2    0    0  0.26162094368E+02  0.22703492495E+02 -0.15135705836E+03  0.19939111161E+03  0.12509177639E+03 0.  0.
          5    1    3    3  502    0 -0.28589497178E+02  0.19611749395E+02 -0.13860211516E+03  0.14293354676E+03  0.41800000000E+01 0. -1.
         -5    1    3    3    0  502  0.54751591545E+02  0.30917430998E+01 -0.12754943198E+02  0.56457564844E+02  0.41800000000E+01 0. -1.
        -11    1    1    2    0    0 -0.28166880746E+02 -0.99578917596E+00 -0.17043938952E+03  0.17275401664E+03  0.00000000000E+00 0. -1.
         11    1    1    2    0    0  0.20047863782E+01 -0.21707703319E+02  0.33571905340E+01  0.22057068710E+02  0.00000000000E+00 0.  1.
</event>
<event>
 7    1  0.2641580E-009  0.1475189E+03  0.7561462E-02  0.1203555E+00
          1   -1    0    0  501    0  0.00000000000E+00  0.00000000000E+00  0.16338503322E+03  0.16338503322E+03  0.00000000000E+00 0. -1.
         -1   -1    0    0    0  501 -0.00000000000E+00 -0.00000000000E+00 -0.18792506720E+03  0.18792506720E+03  0.00000000000E+00 0.  1.
         25    2    1    2    0    0 -0.65073682527E+02 -0.81483433037E+02 -0.10232083318E+03  0.19233073095E+03  0.12508966044E+03 0.  0.
          5    1    3    3  502    0  0.11927093077E+02 -0.78201834210E+02 -0.24971640563E+02  0.83059241842E+02  0.41800000000E+01 0. -1.
         -5    1    3    3    0  502 -0.77000775603E+02 -0.32815988271E+01 -0.77349192614E+02  0.10927148911E+03  0.41800000000E+01 0. -1.
        -11    1    1    2    0    0  0.96254326191E+01  0.82618705616E+02  0.45504374625E+02  0.94811115281E+02  0.00000000000E+00 0.  1.
         11    1    1    2    0    0  0.55448249908E+02 -0.11352725788E+01  0.32276424570E+02  0.64168254181E+02  0.00000000000E+00 0. -1.
</event>
<event>
 7    1  0.2641580E-009  0.1526423E+03  0.7561462E-02  0.1197263E+00
         -2   -1    0    0    0  501 -0.00000000000E+00  0.00000000000E+00  0.61184401087E+02  0.61184401087E+02  0.00000000000E+00 0. -1.
          2   -1    0    0  501    0  0.00000000000E+00 -0.00000000000E+00 -0.59381351285E+03  0.59381351285E+03  0.00000000000E+00 0.  1.
         25    2    1    2    0    0 -0.81537726944E+02 -0.12449003939E+03 -0.36389647114E+03  0.41256712196E+03  0.12507924523E+03 0.  0.
          5    1    3    3  502    0 -0.73406208770E+02 -0.12712828294E+03 -0.19862088731E+03  0.24701781532E+03  0.41800000000E+01 0.  1.
         -5    1    3    3    0  502 -0.81315181749E+01  0.26382435528E+01 -0.16527558383E+03  0.16554930664E+03  0.41800000000E+01 0.  1.
        -11    1    1    2    0    0  0.53331599080E+02  0.85925781984E+02 -0.46728604958E+02  0.11140494599E+03  0.00000000000E+00 0. -1.
         11    1    1    2    0    0  0.28206127865E+02  0.38564257408E+02 -0.12200403567E+03  0.13102584599E+03  0.00000000000E+00 0.  1.
</event>
<event>
 7    1  0.2641580E-009  0.5820563E+02  0.7561462E-02  0.1405520E+00
         -1   -1    0    0    0  501 -0.00000000000E+00  0.00000000000E+00  0.73567756957E+02  0.73567756957E+02  0.00000000000E+00 0.  1.
          1   -1    0    0  501    0  0.00000000000E+00 -0.00000000000E+00 -0.16618434232E+03  0.16618434232E+03  0.00000000000E+00 0. -1.
         25    2    1    2    0    0  0.26079280250E+02 -0.21665093722E+02 -0.60648547479E+02  0.14309018542E+03  0.12508816774E+03 0.  0.
          5    1    3    3  502    0  0.50156320207E+01  0.14460435051E+00  0.38641575116E+02  0.39189554762E+02  0.41800000000E+01 0.  1.
         -5    1    3    3    0  502  0.21063648229E+02 -0.21809698072E+02 -0.99290122596E+02  0.10390063066E+03  0.41800000000E+01 0.  1.
        -11    1    1    2    0    0 -0.50416457163E+02  0.71091168067E+01  0.37526757111E+01  0.51053317910E+02  0.00000000000E+00 0.  1.
         11    1    1    2    0    0  0.24337176914E+02  0.14555976915E+02 -0.35720713593E+02  0.45608595941E+02  0.00000000000E+00 0. -1.
</event>
<event>
 7    1  0.2641580E-009  0.2824585E+03  0.7561462E-02  0.1094354E+00
         -1   -1    0    0    0  501 -0.00000000000E+00  0.00000000000E+00  0.12956510793E+04  0.12956510793E+04  0.00000000000E+00 0.  1.
          1   -1    0    0  501    0  0.00000000000E+00 -0.00000000000E+00 -0.75004467705E+02  0.75004467705E+02  0.00000000000E+00 0. -1.
         25    2    1    2    0    0  0.24682911522E+03 -0.10649264555E+03  0.87186488486E+03  0.92089673603E+03  0.12504849179E+03 0.  0.
          5    1    3    3  502    0  0.20038040477E+03 -0.45247708693E+02  0.74207483829E+03  0.76999493491E+03  0.41800000000E+01 0.  1.
         -5    1    3    3    0  502  0.46448710453E+02 -0.61244936858E+02  0.12979004656E+03  0.15090180112E+03  0.41800000000E+01 0.  1.
        -11    1    1    2    0    0 -0.22040846268E+03  0.59075793516E+02  0.26242757779E+03  0.34776151798E+03  0.00000000000E+00 0. -1.
         11    1    1    2    0    0 -0.26420652540E+02  0.47416852035E+02  0.86354148906E+02  0.10199729296E+03  0.00000000000E+00 0.  1.
</event>
<event>
 7    1  0.2641580E-009  0.9375184E+02  0.7561462E-02  0.1294012E+00
         -1   -1    0    0    0  501 -0.00000000000E+00  0.00000000000E+00  0.50587885348E+02  0.50587885348E+02  0.00000000000E+00 0.  1.
          1   -1    0    0  501    0  0.00000000000E+00 -0.00000000000E+00 -0.30966897116E+03  0.30966897116E+03  0.00000000000E+00 0. -1.
         25    2    1    2    0    0  0.32429936919E+02  0.17194634725E+02 -0.67902214880E+02  0.14698836083E+03  0.12509001224E+03 0.  0.
          5    1    3    3  502    0 -0.31334797285E+02  0.13834773746E+02 -0.75047634513E+02  0.82600788928E+02  0.41800000000E+01 0.  1.
         -5    1    3    3    0  502  0.63764734203E+02  0.33598609785E+01  0.71454196330E+01  0.64387571903E+02  0.41800000000E+01 0.  1.
        -11    1    1    2    0    0  0.74109110754E+01  0.27880155894E+02 -0.99633460113E+02  0.10372584572E+03  0.00000000000E+00 0. -1.
         11    1    1    2    0    0 -0.39840847994E+02 -0.45074790619E+02 -0.91545410823E+02  0.10954264996E+03  0.00000000000E+00 0.  1.
</event>
<event>
 7    1  0.2641580E-009  0.9971990E+02  0.7561462E-02  0.1280886E+00
         -1   -1    0    0    0  501 -0.00000000000E+00  0.00000000000E+00  0.43888927310E+03  0.43888927310E+03  0.00000000000E+00 0.  1.
          1   -1    0    0  501    0  0.00000000000E+00 -0.00000000000E+00 -0.46465876231E+02  0.46465876231E+02  0.00000000000E+00 0. -1.
         25    2    1    2    0    0 -0.66190513671E+02  0.18978754244E+02  0.32313565415E+03  0.35327948083E+03  0.12509341862E+03 0.  0.
          5    1    3    3  502    0 -0.68837253484E+02  0.57105517825E+02  0.14023637425E+03  0.16638305411E+03  0.41800000000E+01 0. -1.
         -5    1    3    3    0  502  0.26467398126E+01 -0.38126763581E+02  0.18289927990E+03  0.18689642672E+03  0.41800000000E+01 0. -1.
        -11    1    1    2    0    0  0.43609609772E+02 -0.28439902831E+01  0.88239782302E+02  0.98469007946E+02  0.00000000000E+00 0.  1.
         11    1    1    2    0    0  0.22580903899E+02 -0.16134763961E+02 -0.18952039584E+02  0.33606660551E+02  0.00000000000E+00 0. -1.
</event>
<event>
 7    1  0.2641580E-009  0.7432154E+02  0.7561462E-02  0.1345985E+00
         -2   -1    0    0    0  501 -0.00000000000E+00  0.00000000000E+00  0.13838265336E+03  0.13838265336E+03  0.00000000000E+00 0.  1.
          2   -1    0    0  501    0  0.00000000000E+00 -0.00000000000E+00 -0.13575947849E+03  0.13575947849E+03  0.00000000000E+00 0. -1.
         25    2    1    2    0    0 -0.16063494590E+01 -0.27378096763E+02 -0.76389467030E+02  0.14915461383E+03  0.12513835389E+03 0.  0.
          5    1    3    3  502    0  0.20835484229E+01 -0.53135310359E+02  0.13880295470E+02  0.55116579931E+02  0.41800000000E+01 0. -1.
         -5    1    3    3    0  502 -0.36898978819E+01  0.25757213596E+02 -0.90269762501E+02  0.94038033904E+02  0.41800000000E+01 0. -1.
        -11    1    1    2    0    0  0.10826158583E+02 -0.18889431917E+02  0.74475506478E+02  0.77592637621E+02  0.00000000000E+00 0.  1.
         11    1    1    2    0    0 -0.92198091242E+01  0.46267528680E+02  0.45371354194E+01  0.47394880401E+02  0.00000000000E+00 0. -1.
</event>
<event>
 7    1  0.2641580E-009  0.1028577E+03  0.7561462E-02  0.1274399E+00
         -2   -1    0    0    0  501 -0.00000000000E+00  0.00000000000E+00  0.40995342726E+02  0.40995342726E+02  0.00000000000E+00 0. -1.
          2   -1    0    0  501    0  0.00000000000E+00 -0.00000000000E+00 -0.41269214739E+03  0.41269214739E+03  0.00000000000E+00 0.  1.
         25    2    1    2    0    0  0.51649444369E+02  0.25601346653E+01 -0.22858620020E+03  0.26565622241E+03  0.12508940080E+03 0.  0.
          5    1    3    3  502    0  0.60370962135E+02 -0.42218661645E+02 -0.19602377748E+03  0.20945133611E+03  0.41800000000E+01 0. -1.
         -5    1    3    3    0  502 -0.87215177659E+01  0.44778796310E+02 -0.32562422714E+02  0.56204886302E+02  0.41800000000E+01 0. -1.
        -11    1    1    2    0    0  0.41799384645E+01 -0.25440097433E+02 -0.12108764232E+03  0.12380180760E+03  0.00000000000E+00 0.  1.
         11    1    1    2    0    0 -0.55829382833E+02  0.22879962768E+02 -0.22022962155E+02  0.64229460109E+02  0.00000000000E+00 0. -1.
</event>
<event>
 7    1  0.2641580E-009  0.1102550E+03  0.7561462E-02  0.1260098E+00
          2   -1    0    0  501    0  0.00000000000E+00  0.00000000000E+00  0.38521757248E+02  0.38521757248E+02  0.00000000000E+00 0. -1.
         -2   -1    0    0    0  501 -0.00000000000E+00 -0.00000000000E+00 -0.34885026393E+03  0.34885026393E+03  0.00000000000E+00 0.  1.
         25    2    1    2    0    0 -0.34902199147E+02  0.10413727383E+00 -0.14796704078E+03  0.19687377691E+03  0.12508742753E+03 0.  0.
          5    1    3    3  502    0 -0.12746357057E+02  0.59144768933E+02 -0.10221259673E+03  0.11885058115E+03  0.41800000000E+01 0. -1.
         -5    1    3    3    0  502 -0.22155842089E+02 -0.59040631659E+02 -0.45754444049E+02  0.78023195754E+02  0.41800000000E+01 0. -1.
        -11    1    1    2    0    0 -0.30778889661E+02  0.28922775187E+01 -0.31996474698E+02  0.44491344226E+02  0.00000000000E+00 0.  1.
         11    1    1    2    0    0  0.65681088807E+02 -0.29964147925E+01 -0.13036499121E+03  0.14600690005E+03  0.00000000000E+00 0. -1.
</event>
<event>
 7    1  0.2641580E-009  0.1458241E+03  0.7561462E-02  0.1205700E+00
         -3   -1    0    0    0  501 -0.00000000000E+00  0.00000000000E+00  0.40041382549E+02  0.40041382549E+02  0.00000000000E+00 0.  1.
          3   -1    0    0  501    0  0.00000000000E+00 -0.00000000000E+00 -0.60640872528E+03  0.60640872528E+03  0.00000000000E+00 0. -1.
         25    2    1    2    0    0 -0.87499294154E+02  0.53866922196E+02 -0.32686773376E+03  0.36475802696E+03  0.12509249007E+03 0.  0.
          5    1    3    3  502    0  0.27642971322E+02  0.83204149350E+01 -0.12116109180E+03  0.12462281386E+03  0.41800000000E+01 0.  1.
         -5    1    3    3    0  502 -0.11514226548E+03  0.45546507261E+02 -0.20570664196E+03  0.24013521310E+03  0.41800000000E+01 0.  1.
        -11    1    1    2    0    0  0.60372380519E+01  0.24689169395E+02 -0.93927678848E+02  0.97305766440E+02  0.00000000000E+00 0. -1.
         11    1    1    2    0    0  0.81462056102E+02 -0.78556091591E+02 -0.14557193012E+03  0.18438631443E+03  0.00000000000E+00 0.  1.
</event>
<event>
 7    1  0.2641580E-009  0.2135476E+03  0.7561462E-02  0.1138787E+00
          2   -1    0    0  501    0  0.00000000000E+00  0.00000000000E+00  0.66436802371E+03  0.66436802371E+03  0.00000000000E+00 0. -1.
         -2   -1    0    0    0  501 -0.00000000000E+00 -0.00000000000E+00 -0.73667419451E+02  0.73667419451E+02  0.00000000000E+00 0.  1.
         25    2    1    2    0    0  0.16816994797E+03  0.88370770065E+02  0.25585819606E+03  0.34234737417E+03  0.12509110164E+03 0.  0.
          5    1    3    3  502    0  0.17478767136E+03  0.10247432188E+03  0.25563166790E+03  0.32621578554E+03  0.41800000000E+01 0.  1.
         -5    1    3    3    0  502 -0.66177233909E+01 -0.14103551812E+02  0.22652815631E+00  0.16131588626E+02  0.41800000000E+01 0. -1.
        -11    1    1    2    0    0 -0.17556144737E+03 -0.70895335821E+02  0.28311817510E+03  0.34059341085E+03  0.00000000000E+00 0.  1.
         11    1    1    2    0    0  0.73914994084E+01 -0.17475434245E+02  0.51724233097E+02  0.55094658136E+02  0.00000000000E+00 0. -1.
</event>
<event>
 7    1  0.2641580E-009  0.1848916E+03  0.7561462E-02  0.1163151E+00
         -2   -1    0    0    0  501 -0.00000000000E+00  0.00000000000E+00  0.38632774962E+02  0.38632774962E+02  0.00000000000E+00 0.  1.
          2   -1    0    0  501    0  0.00000000000E+00 -0.00000000000E+00 -0.90074456759E+03  0.90074456759E+03  0.00000000000E+00 0. -1.
         25    2    1    2    0    0  0.63950577151E+02 -0.13915176475E+03 -0.42015935027E+03  0.46436344309E+03  0.12508652088E+03 0.  0.
          5    1    3    3  502    0  0.61796773053E+02 -0.16142692824E+03 -0.38971611542E+03  0.42634917302E+03  0.41800000000E+01 0. -1.
         -5    1    3    3    0  502  0.21538040980E+01  0.22275163487E+02 -0.30443234853E+02  0.38014270068E+02  0.41800000000E+01 0. -1.
        -11    1    1    2    0    0 -0.46441025344E+02  0.14755725955E+03 -0.39277055171E+03  0.42213578381E+03  0.00000000000E+00 0.  1.
         11    1    1    2    0    0 -0.17509551807E+02 -0.84054948011E+01 -0.49181890640E+02  0.52878115646E+02  0.00000000000E+00 0. -1.
</event>
<event>
 7    1  0.2641580E-009  0.2399117E+03  0.7561462E-02  0.1119852E+00
         -2   -1    0    0    0  501 -0.00000000000E+00  0.00000000000E+00  0.82427347947E+02  0.82427347947E+02  0.00000000000E+00 0.  1.
          2   -1    0    0  501    0  0.00000000000E+00 -0.00000000000E+00 -0.85306692921E+03  0.85306692921E+03  0.00000000000E+00 0. -1.
         25    2    1    2    0    0  0.32529626470E+02  0.22252187753E+03 -0.24507876732E+03  0.35536662331E+03  0.12509065589E+03 0.  0.
          5    1    3    3  502    0  0.24334075300E+00  0.19451067449E+03 -0.13389825520E+03  0.23617933197E+03  0.41800000000E+01 0. -1.
         -5    1    3    3    0  502  0.32286285717E+02  0.28011203046E+02 -0.11118051212E+03  0.11918729134E+03  0.41800000000E+01 0. -1.
        -11    1    1    2    0    0 -0.43603273518E+02 -0.39107916395E+02 -0.89836700613E+02  0.10724414839E+03  0.00000000000E+00 0.  1.
         11    1    1    2    0    0  0.11073647049E+02 -0.18341396114E+03 -0.43572411333E+03  0.47288350546E+03  0.00000000000E+00 0. -1.
</event>
<event>
 7    1  0.2641580E-009  0.1480050E+03  0.7561462E-02  0.1202946E+00
         -2   -1    0    0    0  501 -0.00000000000E+00  0.00000000000E+00  0.57972423097E+02  0.57972423097E+02  0.00000000000E+00 0.  1.
          2   -1    0    0  501    0  0.00000000000E+00 -0.00000000000E+00 -0.50311911498E+03  0.50311911498E+03  0.00000000000E+00 0. -1.
         25    2    1    2    0    0  0.12654867741E+03 -0.36644179485E+02 -0.21198596011E+03  0.27918226478E+03  0.12508927228E+03 0.  0.
          5    1    3    3  502    0 -0.79726097504E+01 -0.13105601306E+02  0.98089925745E+01  0.18681756533E+02  0.41800000000E+01 0. -1.
         -5    1    3    3    0  502  0.13452128716E+03 -0.23538578179E+02 -0.22179495268E+03  0.26050050825E+03  0.41800000000E+01 0. -1.
        -11    1    1    2    0    0 -0.81465166825E+02 -0.56549798902E+01 -0.18914505331E+03  0.20602039558E+03  0.00000000000E+00 0. -1.
         11    1    1    2    0    0 -0.45083510584E+02  0.42299159375E+02 -0.44015678466E+02  0.75888877718E+02  0.00000000000E+00 0.  1.
</event>
<event>
 7    1  0.2641580E-009  0.9080802E+02  0.7561462E-02  0.1300907E+00
          2   -1    0    0  501    0  0.00000000000E+00  0.00000000000E+00  0.13234477611E+04  0.13234477611E+04  0.00000000000E+00 0.  1.
         -2   -1    0    0    0  501 -0.00000000000E+00 -0.00000000000E+00 -0.96556907034E+01  0.96556907034E+01  0.00000000000E+00 0. -1.
         25    2    1    2    0    0 -0.28818210607E+02  0.11800164671E+02  0.77069246494E+03  0.78139823961E+03  0.12508637101E+03 0.  0.
          5    1    3    3  502    0 -0.19558539686E+02 -0.33105627377E+02  0.66486909394E+03  0.66599317078E+03  0.41800000000E+01 0. -1.
         -5    1    3    3    0  502 -0.92596709218E+01  0.44905792048E+02  0.10582337099E+03  0.11540506884E+03  0.41800000000E+01 0. -1.
        -11    1    1    2    0    0 -0.33627586753E+02 -0.62700280512E+01  0.17654465117E+03  0.17982808929E+03  0.00000000000E+00 0. -1.
         11    1    1    2    0    0  0.62445797360E+02 -0.55301366202E+01  0.36655495432E+03  0.37187712293E+03  0.00000000000E+00 0.  1.
</event>
<event>
 7    1  0.2641580E-009  0.5661662E+02  0.7561462E-02  0.1412605E+00
          1   -1    0    0  501    0  0.00000000000E+00  0.00000000000E+00  0.29807054409E+03  0.29807054409E+03  0.00000000000E+00 0. -1.
         -1   -1    0    0    0  501 -0.00000000000E+00 -0.00000000000E+00 -0.12916435039E+03  0.12916435039E+03  0.00000000000E+00 0.  1.
         25    2    1    2    0    0  0.30526909355E+02  0.18661715930E+02 -0.89329730599E+02  0.15782156519E+03  0.12509074240E+03 0.  0.
          5    1    3    3  502    0  0.18329112407E+02 -0.11772168061E+01  0.30407389606E+02  0.35769036102E+02  0.41800000000E+01 0. -1.
         -5    1    3    3    0  502  0.12197796948E+02  0.19838932736E+02 -0.11973712020E+03  0.12205252909E+03  0.41800000000E+01 0. -1.
        -11    1    1    2    0    0 -0.21025501836E+01  0.21461608840E+02  0.37419759174E+02  0.43188653000E+02  0.00000000000E+00 0.  1.
         11    1    1    2    0    0 -0.28424359172E+02 -0.40123324770E+02  0.22081616512E+03  0.22622467629E+03  0.00000000000E+00 0. -1.
</event>
<event>
 7    1  0.2641580E-009  0.1029319E+03  0.7561462E-02  0.1274249E+00
          2   -1    0    0  501    0  0.00000000000E+00  0.00000000000E+00  0.22470652858E+03  0.22470652858E+03  0.00000000000E+00 0. -1.
         -2   -1    0    0    0  501 -0.00000000000E+00 -0.00000000000E+00 -0.59649804326E+02  0.59649804326E+02  0.00000000000E+00 0.  1.
         25    2    1    2    0    0  0.17869928442E+02  0.27093749829E+02  0.67144935901E+02  0.14563587666E+03  0.12509180841E+03 0.  0.
          5    1    3    3  502    0 -0.35847942844E+02 -0.15680864166E+02  0.65989352671E+02  0.76831188805E+02  0.41800000000E+01 0.  1.
         -5    1    3    3    0  502  0.53717871286E+02  0.42774613995E+02  0.11555832298E+01  0.68804687852E+02  0.41800000000E+01 0.  1.
        -11    1    1    2    0    0  0.36690413533E+02  0.24701165878E+00  0.43996708250E+02  0.57288374011E+02  0.00000000000E+00 0. -1.
         11    1    1    2    0    0 -0.54560341975E+02 -0.27340761487E+02  0.53915080105E+02  0.81432082240E+02  0.00000000000E+00 0.  1.
</event>
<event>
 7    1  0.2811548E-009  0.8616267E+02  0.7561462E-02  0.1312420E+00
         -2   -1    0    0    0  501 -0.00000000000E+00  0.00000000000E+00  0.19165632544E+02  0.19165632544E+02  0.00000000000E+00 0.  1.
          2   -1    0    0  501    0  0.00000000000E+00 -0.00000000000E+00 -0.75961129276E+03  0.75961129276E+03  0.00000000000E+00 0. -1.
         25    2    1    2    0    0 -0.11184863701E+02 -0.39030002177E+02 -0.30522467249E+03  0.33235088067E+03  0.12508623002E+03 0.  0.
          5    1    3    3  502    0  0.13465561716E+02  0.15761099919E+02 -0.24919950644E+03  0.25009518195E+03  0.41800000000E+01 0. -1.
         -5    1    3    3    0  502 -0.24650425416E+02 -0.54791102095E+02 -0.56025166051E+02  0.82255698727E+02  0.41800000000E+01 0. -1.
        -11    1    1    2    0    0  0.18546005698E+02  0.63106545470E+02 -0.38111368675E+03  0.38674802215E+03  0.00000000000E+00 0. -1.
         11    1    1    2    0    0 -0.73611419975E+01 -0.24076543293E+02 -0.54107300978E+02  0.59678022484E+02  0.00000000000E+00 0.  1.
</event>
<event>
 7    1  0.2641580E-009  0.7316339E+02  0.7561462E-02  0.1349655E+00
          1   -1    0    0  501    0  0.00000000000E+00  0.00000000000E+00  0.58352509309E+02  0.58352509309E+02  0.00000000000E+00 0. -1.
         -1   -1    0    0    0  501 -0.00000000000E+00 -0.00000000000E+00 -0.28998993962E+03  0.28998993962E+03  0.00000000000E+00 0.  1.
         25    2    1    2    0    0 -0.18308142790E+02  0.34279104296E+02 -0.44276957806E+02  0.13827274267E+03  0.12509459337E+03 0.  0.
          5    1    3    3  502    0 -0.42508390050E+02  0.33077082815E+01  0.31250162387E+02  0.53027815417E+02  0.41800000000E+01 0. -1.
         -5    1    3    3    0  502  0.24200247260E+02  0.30971396015E+02 -0.75527120192E+02  0.85244927257E+02  0.41800000000E+01 0. -1.
        -11    1    1    2    0    0  0.25389520854E+02  0.34035513245E+01 -0.82665641433E+01  0.26917429550E+02  0.00000000000E+00 0. -1.
         11    1    1    2    0    0 -0.70813780644E+01 -0.37682655620E+02 -0.17909390836E+03  0.18315227671E+03  0.00000000000E+00 0.  1.
</event>
<event>
 7    1  0.2641580E-009  0.1122300E+03  0.7561462E-02  0.1256495E+00
          2   -1    0    0  501    0  0.00000000000E+00  0.00000000000E+00  0.30447208821E+02  0.30447208821E+02  0.00000000000E+00 0. -1.
         -2   -1    0    0    0  501 -0.00000000000E+00 -0.00000000000E+00 -0.67304112571E+03  0.67304112571E+03  0.00000000000E+00 0.  1.
         25    2    1    2    0    0 -0.60437229201E+02 -0.58506889752E+02 -0.25026781745E+03  0.29216118094E+03  0.12509380630E+03 0.  0.
          5    1    3    3  502    0 -0.55090213661E+02 -0.75717507311E+02 -0.87116142237E+02  0.12796392926E+03  0.41800000000E+01 0.  1.
         -5    1    3    3    0  502 -0.53470155401E+01  0.17210617559E+02 -0.16315167522E+03  0.16419725168E+03  0.41800000000E+01 0.  1.
        -11    1    1    2    0    0 -0.57376656643E+01  0.44140580975E+02 -0.78160731744E+02  0.89946715798E+02  0.00000000000E+00 0.  1.
         11    1    1    2    0    0  0.66174894866E+02  0.14366308777E+02 -0.31416536769E+03  0.32138043779E+03  0.00000000000E+00 0. -1.
</event>
<event>
 7    1  0.2641580E-009  0.9984899E+02  0.7561462E-02  0.1280614E+00
         -1   -1    0    0    0  501 -0.00000000000E+00  0.00000000000E+00  0.25268287527E+02  0.25268287527E+02  0.00000000000E+00 0.  1.
          1   -1    0    0  501    0  0.00000000000E+00 -0.00000000000E+00 -0.53016938231E+03  0.53016938231E+03  0.00000000000E+00 0. -1.
         25    2    1    2    0    0 -0.31714879738E+02 -0.26643676943E+02 -0.28036126872E+03  0.30978190621E+03  0.12508664716E+03 0.  0.
          5    1    3    3  502    0 -0.69348448728E+02 -0.19325762182E+02 -0.88874568994E+02  0.11445022428E+03  0.41800000000E+01 0.  1.
         -5    1    3    3    0  502  0.37633568990E+02 -0.73179147618E+01 -0.19148669973E+03  0.19533168193E+03  0.41800000000E+01 0.  1.
        -11    1    1    2    0    0 -0.20124576504E+02  0.31041769390E+02 -0.42587800806E+02  0.56411973940E+02  0.00000000000E+00 0.  1.
         11    1    1    2    0    0  0.51839456241E+02 -0.43980924469E+01 -0.18195202526E+03  0.18924378969E+03  0.00000000000E+00 0. -1.
</event>
<event>
 7    1  0.2641580E-009  0.1422926E+03  0.7561462E-02  0.1210277E+00
          1   -1    0    0  501    0  0.00000000000E+00  0.00000000000E+00  0.26253157362E+03  0.26253157362E+03  0.00000000000E+00 0. -1.
         -1   -1    0    0    0  501 -0.00000000000E+00 -0.00000000000E+00 -0.10223851354E+03  0.10223851354E+03  0.00000000000E+00 0.  1.
         25    2    1    2    0    0 -0.94022106829E+02 -0.74978854742E+01  0.17301100547E+03  0.23340412872E+03  0.12509318299E+03 0.  0.
          5    1    3    3  502    0 -0.63599137412E+02 -0.65045207259E+02  0.92809726143E+02  0.13002633169E+03  0.41800000000E+01 0. -1.
         -5    1    3    3    0  502 -0.30422969417E+02  0.57547321784E+02  0.80201279331E+02  0.10337779703E+03  0.41800000000E+01 0. -1.
        -11    1    1    2    0    0  0.10975571421E+03  0.15146148131E+02 -0.19693482697E+02  0.11253246583E+03  0.00000000000E+00 0.  1.
         11    1    1    2    0    0 -0.15733607384E+02 -0.76482626571E+01  0.69755372974E+01  0.18833492601E+02  0.00000000000E+00 0. -1.
</event>
<event>
 7    1  0.2641580E-009  0.2869930E+03  0.7561462E-02  0.1091930E+00
         -2   -1    0    0    0  501 -0.00000000000E+00  0.00000000000E+00  0.78980066988E+02  0.78980066988E+02  0.00000000000E+00 0.  1.
          2   -1    0    0  501    0  0.00000000000E+00 -0.00000000000E+00 -0.11445361445E+04  0.11445361445E+04  0.00000000000E+00 0. -1.
         25    2    1    2    0    0  0.90763511552E+02 -0.25025968039E+03 -0.36637774688E+03  0.46983974990E+03  0.12509522182E+03 0.  0.
          5    1    3    3  502    0  0.84924650539E+02 -0.64305454428E+02 -0.11158599139E+03  0.15432528507E+03  0.41800000000E+01 0.  1.
         -5    1    3    3    0  502  0.58388610127E+01 -0.18595422596E+03 -0.25479175549E+03  0.31551446483E+03  0.41800000000E+01 0.  1.
        -11    1    1    2    0    0 -0.90513387618E+02  0.11651078201E+03 -0.35675190148E+03  0.38605615508E+03  0.00000000000E+00 0. -1.
         11    1    1    2    0    0 -0.25012393341E+00  0.13374889838E+03 -0.34242642919E+03  0.36762030655E+03  0.00000000000E+00 0.  1.
</event>
<event>
 7    1  0.2641580E-009  0.8343526E+02  0.7561462E-02  0.1319576E+00
          1   -1    0    0  501    0  0.00000000000E+00  0.00000000000E+00  0.22397779032E+03  0.22397779032E+03  0.00000000000E+00 0. -1.
         -1   -1    0    0    0  501 -0.00000000000E+00 -0.00000000000E+00 -0.50184975195E+02  0.50184975195E+02  0.00000000000E+00 0.  1.
         25    2    1    2    0    0  0.70425193037E+01 -0.17549897707E+01  0.92235811675E+02  0.15559147820E+03  0.12509430869E+03 0.  0.
          5    1    3    3  502    0  0.46528301630E+02  0.23801928452E+02  0.94766776257E+02  0.10830341145E+03  0.41800000000E+01 0.  1.
         -5    1    3    3    0  502 -0.39485782326E+02 -0.25556918223E+02 -0.25309645822E+01  0.47288066747E+02  0.41800000000E+01 0.  1.
        -11    1    1    2    0    0 -0.31292405686E+02  0.19767131612E+02  0.63884882078E+01  0.37560177414E+02  0.00000000000E+00 0.  1.
         11    1    1    2    0    0  0.24249886382E+02 -0.18012141841E+02  0.75168515242E+02  0.81011109898E+02  0.00000000000E+00 0. -1.
</event>
<event>
 7    1  0.2754857E-009  0.9849712E+02  0.7561462E-02  0.1283488E+00
          2   -1    0    0  501    0  0.00000000000E+00  0.00000000000E+00  0.42267675130E+03  0.42267675130E+03  0.00000000000E+00 0.  1.
         -2   -1    0    0    0  501 -0.00000000000E+00 -0.00000000000E+00 -0.52020951528E+02  0.52020951528E+02  0.00000000000E+00 0. -1.
         25    2    1    2    0    0  0.45423492915E+02 -0.86445903990E+02  0.16114496625E+03  0.22616721977E+03  0.12509085949E+03 0.  0.
          5    1    3    3  502    0  0.39444043835E+02 -0.73122840851E+02  0.21800370854E+02  0.85997157032E+02  0.41800000000E+01 0.  1.
         -5    1    3    3    0  502  0.59794490798E+01 -0.13323063139E+02  0.13934459540E+03  0.14017006274E+03  0.41800000000E+01 0.  1.
        -11    1    1    2    0    0 -0.19822830289E+02  0.52363683992E+02  0.28999478583E+02  0.63054498332E+02  0.00000000000E+00 0. -1.
         11    1    1    2    0    0 -0.25600662626E+02  0.34082219999E+02  0.18051135494E+03  0.18547598472E+03  0.00000000000E+00 0.  1.
</event>
<event>
 7    1  0.2641580E-009  0.8341006E+02  0.7561462E-02  0.1319644E+00
         -1   -1    0    0    0  501 -0.00000000000E+00  0.00000000000E+00  0.16585886301E+03  0.16585886301E+03  0.00000000000E+00 0.  1.
          1   -1    0    0  501    0  0.00000000000E+00 -0.00000000000E+00 -0.91227830736E+02  0.91227830736E+02  0.00000000000E+00 0. -1.
         25    2    1    2    0    0  0.14506755386E+02  0.15539320181E+02  0.62076573506E+02  0.14124912066E+03  0.12508355882E+03 0.  0.
          5    1    3    3  502    0 -0.20798672826E+02  0.50861364777E+02  0.71481802270E+02  0.90258427163E+02  0.41800000000E+01 0.  1.
         -5    1    3    3    0  502  0.35305428213E+02 -0.35322044595E+02 -0.94052287631E+01  0.50990693501E+02  0.41800000000E+01 0.  1.
        -11    1    1    2    0    0 -0.22419532870E+02 -0.34446452859E+02  0.55024980567E+02  0.68679997489E+02  0.00000000000E+00 0.  1.
         11    1    1    2    0    0  0.79127774836E+01  0.18907132678E+02 -0.42470521801E+02  0.47157575592E+02  0.00000000000E+00 0. -1.
</event>
<event>
 7    1  0.2641580E-009  0.8860332E+02  0.7561462E-02  0.1306270E+00
          1   -1    0    0  501    0  0.00000000000E+00  0.00000000000E+00  0.16739115946E+03  0.16739115946E+03  0.00000000000E+00 0. -1.
         -1   -1    0    0    0  501 -0.00000000000E+00 -0.00000000000E+00 -0.94987295667E+02  0.94987295667E+02  0.00000000000E+00 0.  1.
         25    2    1    2    0    0 -0.48945854407E+02  0.12740951042E+02 -0.44455205345E+01  0.13499952260E+03  0.12508828863E+03 0.  0.
          5    1    3    3  502    0  0.11719460690E+02  0.24338927658E+02  0.47091016158E+02  0.54449658963E+02  0.41800000000E+01 0.  1.
         -5    1    3    3    0  502 -0.60665315097E+02 -0.11597976616E+02 -0.51536536692E+02  0.80549863635E+02  0.41800000000E+01 0.  1.
        -11    1    1    2    0    0  0.67616595533E+02 -0.51532120805E+01  0.25903653072E+02  0.72591726999E+02  0.00000000000E+00 0.  1.
         11    1    1    2    0    0 -0.18670741125E+02 -0.75877389615E+01  0.50945731259E+02  0.54787205534E+02  0.00000000000E+00 0. -1.
</event>
<event>
 7    1  0.2641580E-009  0.9904582E+02  0.7561462E-02  0.1282315E+00
         -2   -1    0    0    0  501 -0.00000000000E+00  0.00000000000E+00  0.12595657801E+03  0.12595657801E+03  0.00000000000E+00 0.  1.
          2   -1    0    0  501    0  0.00000000000E+00 -0.00000000000E+00 -0.33169798667E+03  0.33169798667E+03  0.00000000000E+00 0. -1.
         25    2    1    2    0    0 -0.23296549934E+02  0.91320948553E+02  0.55241206941E+02  0.16607578823E+03  0.12508929454E+03 0.  0.
          5    1    3    3  502    0 -0.16734707163E+02  0.75056847693E+02 -0.27208135193E+02  0.81678245758E+02  0.41800000000E+01 0. -1.
         -5    1    3    3    0  502 -0.65618427710E+01  0.16264100860E+02  0.82449342135E+02  0.84397542475E+02  0.41800000000E+01 0. -1.
        -11    1    1    2    0    0  0.26745876280E+02 -0.24911924834E+02 -0.20155987073E+02  0.41739785718E+02  0.00000000000E+00 0.  1.
         11    1    1    2    0    0 -0.34493263465E+01 -0.66409023720E+02 -0.24082662852E+03  0.24983899073E+03  0.00000000000E+00 0. -1.
</event>
<event>
 7    1  0.2641580E-009  0.9735952E+02  0.7561462E-02  0.1285949E+00
          1   -1    0    0  501    0  0.00000000000E+00  0.00000000000E+00  0.16309888085E+03  0.16309888085E+03  0.00000000000E+00 0. -1.
         -1   -1    0    0    0  501 -0.00000000000E+00 -0.00000000000E+00 -0.78939247036E+02  0.78939247036E+02  0.00000000000E+00 0.  1.
         25    2    1    2    0    0 -0.27850010530E+02  0.37143469454E+01  0.36405002117E+02  0.13331539931E+03  0.12513293753E+03 0.  0.
          5    1    3    3  502    0 -0.64407532644E+02  0.38907216115E+02  0.33042070158E+02  0.82288228365E+02  0.41800000000E+01 0. -1.
         -5    1    3    3    0  502  0.36557522114E+02 -0.35192869170E+02  0.33629319586E+01  0.51027170947E+02  0.41800000000E+01 0. -1.
        -11    1    1    2    0    0 -0.19737160016E+02 -0.64765236391E+01  0.56555606258E+02  0.60249792059E+02  0.00000000000E+00 0. -1.
         11    1    1    2    0    0  0.47587170546E+02  0.27621766937E+01 -0.88009745646E+01  0.48472936510E+02  0.00000000000E+00 0.  1.
</event>
<event>
 7    1  0.2641580E-009  0.1133263E+03  0.7561462E-02  0.1254531E+00
          1   -1    0    0  501    0  0.00000000000E+00  0.00000000000E+00  0.41240792810E+03  0.41240792810E+03  0.00000000000E+00 0. -1.
         -1   -1    0    0    0  501 -0.00000000000E+00 -0.00000000000E+00 -0.50437895600E+02  0.50437895600E+02  0.00000000000E+00 0.  1.
         25    2    1    2    0    0  0.89329460069E+01  0.62012893869E+02  0.30278426992E+03  0.33354119661E+03  0.12508404852E+03 0.  0.
          5    1    3    3  502    0  0.28185362611E+02 -0.14999070569E+02  0.16024138218E+02  0.35967098703E+02  0.41800000000E+01 0.  1.
         -5    1    3    3    0  502 -0.19252416604E+02  0.77011964439E+02  0.28676013171E+03  0.29757409791E+03  0.41800000000E+01 0.  1.
        -11    1    1    2    0    0 -0.49844166089E+02 -0.13780335455E+02  0.27136006714E+02  0.58401210594E+02  0.00000000000E+00 0.  1.
         11    1    1    2    0    0  0.40911220083E+02 -0.48232558414E+02  0.32049755866E+02  0.70903416497E+02  0.00000000000E+00 0. -1.
</event>
<event>
 6    1  0.2641580E-009  0.2269402E+03  0.7561462E-02  0.1128812E+00
          1   -1    0    0  501    0  0.00000000000E+00  0.00000000000E+00  0.11993668701E+04  0.11993668701E+04  0.00000000000E+00 0. -1.
         -1   -1    0    0    0  501 -0.00000000000E+00 -0.00000000000E+00 -0.50733749796E+02  0.50733749796E+02  0.00000000000E+00 0.  1.
          5    1    1    2  502    0 -0.15291427248E+03  0.15392292615E+03  0.67554534771E+03  0.70954494652E+03  0.41800000000E+01 0.  1.
         -5    1    1    2    0  502 -0.67093033130E+01 -0.38093091696E+01 -0.26057110068E+01  0.91535630847E+01  0.41800000000E+01 0.  1.
        -11    1    1    2    0    0  0.73800337019E+01 -0.38812491713E+02  0.14933342309E+03  0.15447118069E+03  0.00000000000E+00 0. -1.
         11    1    1    2    0    0  0.15224354209E+03 -0.11130112527E+03  0.32636006048E+03  0.37693092958E+03  0.00000000000E+00 0.  1.
</event>
<event>
 7    1  0.2641580E-009  0.1350042E+03  0.7561462E-02  0.1220214E+00
         -2   -1    0    0    0  501 -0.00000000000E+00  0.00000000000E+00  0.63282562626E+02  0.63282562626E+02  0.00000000000E+00 0.  1.
          2   -1    0    0  501    0  0.00000000000E+00 -0.00000000000E+00 -0.42653784635E+03  0.42653784635E+03  0.00000000000E+00 0. -1.
         25    2    1    2    0    0 -0.23483391487E+02  0.10121154489E+03 -0.29087547624E+03  0.33324300284E+03  0.12508840781E+03 0.  0.
          5    1    3    3  502    0 -0.45219980465E+02  0.11971087291E+03 -0.26576167769E+03  0.29499539226E+03  0.41800000000E+01 0.  1.
         -5    1    3    3    0  502  0.21736588978E+02 -0.18499328017E+02 -0.25113798549E+02  0.38247610580E+02  0.41800000000E+01 0.  1.
        -11    1    1    2    0    0 -0.10106250931E+02 -0.51133734271E+01 -0.51407105766E+02  0.52640036274E+02  0.00000000000E+00 0. -1.
         11    1    1    2    0    0  0.33589642418E+02 -0.96098171465E+02 -0.20972701720E+02  0.10393736986E+03  0.00000000000E+00 0.  1.
</event>
<event>
 7    1  0.2641580E-009  0.1578037E+03  0.7561462E-02  0.1191199E+00
          1   -1    0    0  501    0  0.00000000000E+00  0.00000000000E+00  0.52875303236E+02  0.52875303236E+02  0.00000000000E+00 0. -1.
         -1   -1    0    0    0  501 -0.00000000000E+00 -0.00000000000E+00 -0.56782070907E+03  0.56782070907E+03  0.00000000000E+00 0.  1.
         25    2    1    2    0    0 -0.51604865524E+02 -0.12414638324E+03 -0.30224587961E+03  0.35365958879E+03  0.12508855418E+03 0.  0.
          5    1    3    3  502    0  0.28397664492E+02 -0.38313176766E+02 -0.17093691249E+03  0.17751402005E+03  0.41800000000E+01 0. -1.
         -5    1    3    3    0  502 -0.80002530016E+02 -0.85833206477E+02 -0.13130896712E+03  0.17614556875E+03  0.41800000000E+01 0. -1.
        -11    1    1    2    0    0 -0.47630464476E+01  0.76126108151E+02 -0.15642448028E+03  0.17403013815E+03  0.00000000000E+00 0.  1.
         11    1    1    2    0    0  0.56367911971E+02  0.48020275092E+02 -0.56275045939E+02  0.93006285354E+02  0.00000000000E+00 0. -1.
</event>
<event>
 7    1  0.2641580E-009  0.1350675E+03  0.7561462E-02  0.1220124E+00
          2   -1    0    0  501    0  0.00000000000E+00  0.00000000000E+00  0.65677698174E+03  0.65677698174E+03  0.00000000000E+00 0. -1.
         -2   -1    0    0    0  501 -0.00000000000E+00 -0.00000000000E+00 -0.29514598771E+02  0.29514598771E+02  0.00000000000E+00 0.  1.
         25    2    1    2    0    0 -0.19116038025E+02 -0.67629267130E+02  0.41481007017E+03  0.43892392970E+03  0.12509069136E+03 0.  0.
          5    1    3    3  502    0  0.53294623074E+02 -0.35325726142E+02  0.18329501877E+03  0.19417198583E+03  0.41800000000E+01 0. -1.
         -5    1    3    3    0  502 -0.72410661099E+02 -0.32303540988E+02  0.23151505140E+03  0.24475194386E+03  0.41800000000E+01 0. -1.
        -11    1    1    2    0    0 -0.43987613133E+02  0.27401835641E+02  0.83604042400E+02  0.98363644764E+02  0.00000000000E+00 0. -1.
         11    1    1    2    0    0  0.63103651159E+02  0.40227431489E+02  0.12884827040E+03  0.14900400605E+03  0.00000000000E+00 0.  1.
</event>
<event>
 7    1  0.2641580E-009  0.1271109E+03  0.7561462E-02  0.1231807E+00
         -1   -1    0    0    0  501 -0.00000000000E+00  0.00000000000E+00  0.50936127170E+02  0.50936127170E+02  0.00000000000E+00 0.  1.
          1   -1    0    0  501    0  0.00000000000E+00 -0.00000000000E+00 -0.32242876916E+03  0.32242876916E+03  0.00000000000E+00 0. -1.
         25    2    1    2    0    0 -0.10304787354E+01 -0.56148737332E+02 -0.15504858299E+03  0.20698150517E+03  0.12509011873E+03 0.  0.
          5    1    3    3  502    0 -0.16356351486E+02  0.37678549468E+02 -0.37833783053E+02  0.56000632711E+02  0.41800000000E+01 0. -1.
         -5    1    3    3    0  502  0.15325872750E+02 -0.93827286800E+02 -0.11721479994E+03  0.15098087246E+03  0.41800000000E+01 0. -1.
        -11    1    1    2    0    0 -0.41464641512E+02  0.62296148385E+02 -0.84455777697E+02  0.11284017452E+03  0.00000000000E+00 0.  1.
         11    1    1    2    0    0  0.42495120247E+02 -0.61474110533E+01 -0.31988281299E+02  0.53543216638E+02  0.00000000000E+00 0. -1.
</event>
<event>
 7    1  0.2641580E-009  0.1774216E+03  0.7561462E-02  0.1170322E+00
          2   -1    0    0  501    0  0.00000000000E+00  0.00000000000E+00  0.57835549074E+03  0.57835549074E+03  0.00000000000E+00 0. -1.
         -2   -1    0    0    0  501 -0.00000000000E+00 -0.00000000000E+00 -0.79976340705E+02  0.79976340705E+02  0.00000000000E+00 0.  1.
         25    2    1    2    0    0 -0.68580748109E+02  0.12827788936E+03  0.43583875366E+03  0.47619470057E+03  0.12508971882E+03 0.  0.
          5    1    3    3  502    0 -0.26665518497E+02 -0.18432415130E+02  0.13435606380E+03  0.13827446649E+03  0.41800000000E+01 0.  1.
         -5    1    3    3    0  502 -0.41915229612E+02  0.14671030449E+03  0.30148268985E+03  0.33792023408E+03  0.41800000000E+01 0.  1.
        -11    1    1    2    0    0  0.74108537447E+02 -0.13896397654E+03  0.64041128046E+02  0.17001272946E+03  0.00000000000E+00 0. -1.
         11    1    1    2    0    0 -0.55277893384E+01  0.10686087175E+02 -0.15007316633E+01  0.12124401412E+02  0.00000000000E+00 0.  1.
</event>
<event>
 7    1  0.2641580E-009  0.1389443E+03  0.7561462E-02  0.1214757E+00
          3   -1    0    0  501    0  0.00000000000E+00  0.00000000000E+00  0.50341902655E+02  0.50341902655E+02  0.00000000000E+00 0. -1.
         -3   -1    0    0    0  501 -0.00000000000E+00 -0.00000000000E+00 -0.47509640879E+03  0.47509640879E+03  0.00000000000E+00 0.  1.
         25    2    1    2    0    0 -0.33942336276E+02 -0.56658758974E+02 -0.25693339867E+03  0.29330021716E+03  0.12509176183E+03 0.  0.
          5    1    3    3  502    0 -0.66299958162E+02 -0.53883993578E+02 -0.93933253905E+02  0.12704368463E+03  0.41800000000E+01 0. -1.
         -5    1    3    3    0  502  0.32357621886E+02 -0.27747653968E+01 -0.16300014476E+03  0.16625653253E+03  0.41800000000E+01 0. -1.
        -11    1    1    2    0    0  0.44922096582E+02  0.10279513811E+03 -0.10716172704E+03  0.15514016541E+03  0.00000000000E+00 0.  1.
         11    1    1    2    0    0 -0.10979760306E+02 -0.46136379139E+02 -0.60659380431E+02  0.76997928872E+02  0.00000000000E+00 0. -1.
</event>
<event>
 7    1  0.2641580E-009  0.1643436E+03  0.7561462E-02  0.1183878E+00
         -2   -1    0    0    0  501 -0.00000000000E+00  0.00000000000E+00  0.79102601878E+02  0.79102601878E+02  0.00000000000E+00 0.  1.
          2   -1    0    0  501    0  0.00000000000E+00 -0.00000000000E+00 -0.45644301253E+03  0.45644301253E+03  0.00000000000E+00 0. -1.
         25    2    1    2    0    0  0.13443090476E+03 -0.20284003086E+02 -0.95174385324E+02  0.20781928901E+03  0.12509030469E+03 0.  0.
          5    1    3    3  502    0  0.69020947330E+02 -0.59688827148E+02 -0.94369817554E+02  0.13133842592E+03  0.41800000000E+01 0.  1.
         -5    1    3    3    0  502  0.65409957431E+02  0.39404824063E+02 -0.80456776936E+00  0.76480863095E+02  0.41800000000E+01 0.  1.
        -11    1    1    2    0    0 -0.52432910095E+02 -0.34031356863E+02 -0.69853587067E+02  0.93738289600E+02  0.00000000000E+00 0.  1.
         11    1    1    2    0    0 -0.81997994666E+02  0.54315359949E+02 -0.21231243826E+03  0.23398803579E+03  0.00000000000E+00 0. -1.
</event>
<event>
 7    1  0.2641580E-009  0.1202184E+03  0.7561462E-02  0.1242737E+00
         -1   -1    0    0    0  501 -0.00000000000E+00  0.00000000000E+00  0.16118228080E+02  0.16118228080E+02  0.00000000000E+00 0.  1.
          1   -1    0    0  501    0  0.00000000000E+00 -0.00000000000E+00 -0.16528553665E+04  0.16528553665E+04  0.00000000000E+00 0. -1.
         25    2    1    2    0    0 -0.52083492030E+02  0.10186937384E+03 -0.11061377044E+04  0.11190507369E+04  0.12507546194E+03 0.  0.
          5    1    3    3  502    0 -0.21934159671E+02  0.46932729151E+02 -0.94003833342E+03  0.94147401936E+03  0.41800000000E+01 0.  1.
         -5    1    3    3    0  502 -0.30149332358E+02  0.54936644693E+02 -0.16609937101E+03  0.17757671756E+03  0.41800000000E+01 0.  1.
        -11    1    1    2    0    0 -0.81876161528E+01 -0.33632620575E+02 -0.50230269941E+02  0.61002215069E+02  0.00000000000E+00 0.  1.
         11    1    1    2    0    0  0.60271108182E+02 -0.68236753269E+02 -0.48036916402E+03  0.48892064256E+03  0.00000000000E+00 0. -1.
</event>
<event>
 7    1  0.2641580E-009  0.1025924E+03  0.7561462E-02  0.1274937E+00
         -2   -1    0    0    0  501 -0.00000000000E+00  0.00000000000E+00  0.47686898227E+02  0.47686898227E+02  0.00000000000E+00 0. -1.
          2   -1    0    0  501    0  0.00000000000E+00 -0.00000000000E+00 -0.27416197373E+03  0.27416197373E+03  0.00000000000E+00 0.  1.
         25    2    1    2    0    0 -0.27740721094E+02  0.60429692211E+00 -0.78899036727E+02  0.15049116638E+03  0.12511043274E+03 0.  0.
          5    1    3    3  502    0  0.33525088223E+02 -0.40474697256E+02 -0.21517623821E+02  0.56943947819E+02  0.41800000000E+01 0. -1.
         -5    1    3    3    0  502 -0.61265809316E+02  0.41078994179E+02 -0.57381412906E+02  0.93547218564E+02  0.41800000000E+01 0. -1.
        -11    1    1    2    0    0  0.18510173586E+02  0.36188968449E+02 -0.11278287791E+03  0.11988430053E+03  0.00000000000E+00 0.  1.
         11    1    1    2    0    0  0.92305475080E+01 -0.36793265371E+02 -0.34793160867E+02  0.51473405047E+02  0.00000000000E+00 0. -1.
</event>
<event>
 7    1  0.2641580E-009  0.1127809E+03  0.7561462E-02  0.1255505E+00
         -1   -1    0    0    0  501 -0.00000000000E+00  0.00000000000E+00  0.12438250423E+03  0.12438250423E+03  0.00000000000E+00 0.  1.
          1   -1    0    0  501    0  0.00000000000E+00 -0.00000000000E+00 -0.13762130090E+03  0.13762130090E+03  0.00000000000E+00 0. -1.
         25    2    1    2    0    0 -0.42868721850E+02  0.23850071342E+01  0.40281874733E+02  0.13825253919E+03  0.12509084534E+03 0.  0.
          5    1    3    3  502    0 -0.13191282918E+02 -0.57196985889E+02 -0.26970253534E+01  0.58908840471E+02  0.41800000000E+01 0.  1.
         -5    1    3    3    0  502 -0.29677438931E+02  0.59581993024E+02  0.42978900087E+02  0.79343698722E+02  0.41800000000E+01 0.  1.
        -11    1    1    2    0    0  0.71153680537E+02 -0.64444769341E+01 -0.10655941382E+02  0.72235217337E+02  0.00000000000E+00 0.  1.
         11    1    1    2    0    0 -0.28284958688E+02  0.40594697999E+01 -0.42864730019E+02  0.51516048593E+02  0.00000000000E+00 0. -1.
</event>
<event>
 7    1  0.2641580E-009  0.1563909E+03  0.7561462E-02  0.1192833E+00
          1   -1    0    0  501    0  0.00000000000E+00  0.00000000000E+00  0.19513550369E+03  0.19513550369E+03  0.00000000000E+00 0. -1.
         -1   -1    0    0    0  501 -0.00000000000E+00 -0.00000000000E+00 -0.17002428448E+03  0.17002428448E+03  0.00000000000E+00 0.  1.
         25    2    1    2    0    0  0.59857592342E+02 -0.11492828387E+03  0.83307523043E+02  0.19847014852E+03  0.12513518555E+03 0.  0.
          5    1    3    3  502    0 -0.16300759354E+02 -0.80492691830E+02  0.79987434623E+02  0.11471813410E+03  0.41800000000E+01 0.  1.
         -5    1    3    3    0  502  0.76158351697E+02 -0.34435592039E+02  0.33200884201E+01  0.83752014420E+02  0.41800000000E+01 0.  1.
        -11    1    1    2    0    0 -0.44603787205E+02  0.12211109139E+03 -0.29345244352E+02  0.13327325253E+03  0.00000000000E+00 0. -1.
         11    1    1    2    0    0 -0.15253805137E+02 -0.71828075225E+01 -0.28851059477E+02  0.33416387118E+02  0.00000000000E+00 0.  1.
</event>
<event>
 7    1  0.2641580E-009  0.1694944E+03  0.7561462E-02  0.1178376E+00
         -1   -1    0    0    0  501 -0.00000000000E+00  0.00000000000E+00  0.16523986634E+03  0.16523986634E+03  0.00000000000E+00 0.  1.
          1   -1    0    0  501    0  0.00000000000E+00 -0.00000000000E+00 -0.21377114140E+03  0.21377114140E+03  0.00000000000E+00 0. -1.
         25    2    1    2    0    0 -0.71270562402E+02  0.13066157312E+03 -0.94471309612E+02  0.21615756058E+03  0.12508925974E+03 0.  0.
          5    1    3    3  502    0 -0.98835704970E+02  0.80618494938E+02 -0.94630736947E+02  0.15887192036E+03  0.41800000000E+01 0.  1.
         -5    1    3    3    0  502  0.27565142568E+02  0.50043078186E+02  0.15942733485E+00  0.57285640227E+02  0.41800000000E+01 0.  1.
        -11    1    1    2    0    0  0.20208054197E+02 -0.78639574824E+02  0.10730492597E+02  0.81900498499E+02  0.00000000000E+00 0.  1.
         11    1    1    2    0    0  0.51062508204E+02 -0.52021998300E+02  0.35209541954E+02  0.80952948654E+02  0.00000000000E+00 0. -1.
</event>
<event>
 7    1  0.2641580E-009  0.1151503E+03  0.7561462E-02  0.1251319E+00
         -1   -1    0    0    0  501 -0.00000000000E+00  0.00000000000E+00  0.66268615402E+02  0.66268615402E+02  0.00000000000E+00 0.  1.
          1   -1    0    0  501    0  0.00000000000E+00 -0.00000000000E+00 -0.20314635555E+03  0.20314635555E+03  0.00000000000E+00 0. -1.
         25    2    1    2    0    0 -0.51269913059E+01  0.40081784922E+02 -0.88696723063E+02  0.15857892043E+03  0.12508928731E+03 0.  0.
          5    1    3    3  502    0 -0.42012021406E+02 -0.29580734072E+02 -0.25786732774E+02  0.57640764724E+02  0.41800000000E+01 0. -1.
         -5    1    3    3    0  502  0.36885030100E+02  0.69662518993E+02 -0.62909990290E+02  0.10093815570E+03  0.41800000000E+01 0. -1.
        -11    1    1    2    0    0  0.25645179060E+02 -0.63616341520E+02 -0.32777312456E+02  0.76020170543E+02  0.00000000000E+00 0.  1.
         11    1    1    2    0    0 -0.20518187754E+02  0.23534556598E+02 -0.15403704632E+02  0.34815879989E+02  0.00000000000E+00 0. -1.
</event>
<event>
 7    1  0.2641580E-009  0.9696260E+02  0.7561462E-02  0.1286816E+00
          1   -1    0    0  501    0  0.00000000000E+00  0.00000000000E+00  0.73367028937E+02  0.73367028937E+02  0.00000000000E+00 0. -1.
         -1   -1    0    0    0  501 -0.00000000000E+00 -0.00000000000E+00 -0.18302843973E+03  0.18302843973E+03  0.00000000000E+00 0.  1.
         25    2    1    2    0    0  0.11367473717E+01 -0.42266553842E+02 -0.64062525491E+02  0.14676361423E+03  0.12509115685E+03 0.  0.
          5    1    3    3  502    0  0.40909828929E+02 -0.40139754371E+02 -0.84197141701E+02  0.10193843757E+03  0.41800000000E+01 0.  1.
         -5    1    3    3    0  502 -0.39773081557E+02 -0.21267994717E+01  0.20134616210E+02  0.44825176659E+02  0.41800000000E+01 0.  1.
        -11    1    1    2    0    0  0.40178705317E+02  0.37254708770E+02 -0.39551756160E+02  0.67576498147E+02  0.00000000000E+00 0.  1.
         11    1    1    2    0    0 -0.41315452689E+02  0.50118450725E+01 -0.60471291457E+01  0.42055356292E+02  0.00000000000E+00 0. -1.
</event>
<event>
 7    1  0.2641580E-009  0.1356035E+03  0.7561462E-02  0.1219370E+00
          2   -1    0    0  501    0  0.00000000000E+00  0.00000000000E+00  0.16375318935E+04  0.16375318935E+04  0.00000000000E+00 0. -1.
         -2   -1    0    0    0  501 -0.00000000000E+00 -0.00000000000E+00 -0.22568309277E+02  0.22568309277E+02  0.00000000000E+00 0.  1.
         25    2    1    2    0    0  0.49912869105E+02  0.10448346679E+03  0.13127349206E+04  0.13237556694E+04  0.12509201145E+03 0.  0.
          5    1    3    3  502    0 -0.17824730871E+02  0.53868235365E+02  0.93137587006E+03  0.93311199303E+03  0.41800000000E+01 0. -1.
         -5    1    3    3    0  502  0.67737599975E+02  0.50615231424E+02  0.38135905050E+03  0.39064367638E+03  0.41800000000E+01 0. -1.
        -11    1    1    2    0    0 -0.24951217818E+02 -0.10148685035E+03  0.15472456047E+03  0.18671323915E+03  0.00000000000E+00 0.  1.
         11    1    1    2    0    0 -0.24961651286E+02 -0.29966164418E+01  0.14750410323E+03  0.14963129424E+03  0.00000000000E+00 0. -1.
</event>
<event>
 7    1  0.2641580E-009  0.2002603E+03  0.7561462E-02  0.1149520E+00
         -2   -1    0    0    0  501 -0.00000000000E+00  0.00000000000E+00  0.32485405448E+02  0.32485405448E+02  0.00000000000E+00 0. -1.
          2   -1    0    0  501    0  0.00000000000E+00 -0.00000000000E+00 -0.16892460664E+04  0.16892460664E+04  0.00000000000E+00 0.  1.
         25    2    1    2    0    0  0.17964911849E+03  0.85068771299E+02 -0.68906548138E+03  0.72798779708E+03  0.12507794949E+03 0.  0.
          5    1    3    3  502    0  0.10433104699E+03  0.37894547889E+02 -0.56199109812E+03  0.57286336145E+03  0.41800000000E+01 0. -1.
         -5    1    3    3    0  502  0.75318071506E+02  0.47174223410E+02 -0.12707438325E+03  0.15512443563E+03  0.41800000000E+01 0. -1.
        -11    1    1    2    0    0 -0.13953782627E+03 -0.77624004810E+02 -0.90476306848E+03  0.91874506865E+03  0.00000000000E+00 0.  1.
         11    1    1    2    0    0 -0.40111292221E+02 -0.74447664881E+01 -0.62932111050E+02  0.74998606072E+02  0.00000000000E+00 0. -1.
</event>
<event>
 7    1  0.2641580E-009  0.1042774E+03  0.7561462E-02  0.1271550E+00
         -2   -1    0    0    0  501 -0.00000000000E+00  0.00000000000E+00  0.17723134519E+02  0.17723134519E+02  0.00000000000E+00 0.  1.
          2   -1    0    0  501    0  0.00000000000E+00 -0.00000000000E+00 -0.93755214200E+03  0.93755214200E+03  0.00000000000E+00 0. -1.
         25    2    1    2    0    0  0.47474441443E+02 -0.30414632920E+02 -0.66736315602E+03  0.68132203644E+03  0.12508901965E+03 0.  0.
          5    1    3    3  502    0  0.31791967839E+02  0.30194890655E+02 -0.51018769357E+03  0.51208535979E+03  0.41800000000E+01 0.  1.
         -5    1    3    3    0  502  0.15682473603E+02 -0.60609523575E+02 -0.15717546245E+03  0.16923667665E+03  0.41800000000E+01 0.  1.
        -11    1    1    2    0    0 -0.55020123841E+02  0.53945519822E+02 -0.15102723418E+03  0.16954810114E+03  0.00000000000E+00 0.  1.
         11    1    1    2    0    0  0.75456823987E+01 -0.23530886901E+02 -0.10143861729E+03  0.10440513895E+03  0.00000000000E+00 0. -1.
</event>
<event>
 7    1  0.3135326E-009  0.1161827E+03  0.7561462E-02  0.1249531E+00
          1   -1    0    0  501    0  0.00000000000E+00  0.00000000000E+00  0.11757557439E+04  0.11757557439E+04  0.00000000000E+00 0. -1.
         -1   -1    0    0    0  501 -0.00000000000E+00 -0.00000000000E+00 -0.12101481178E+02  0.12101481178E+02  0.00000000000E+00 0.  1.
         25    2    1    2    0    0 -0.13280775202E+01  0.49378829692E+02  0.66325070342E+03  0.67674915605E+03  0.12509153456E+03 0.  0.
          5    1    3    3  502    0  0.30020853817E+02  0.80165038053E+02  0.34667846632E+03  0.35711499045E+03  0.41800000000E+01 0.  1.
         -5    1    3    3    0  502 -0.31348931337E+02 -0.30786208361E+02  0.31657223709E+03  0.31963416560E+03  0.41800000000E+01 0.  1.
        -11    1    1    2    0    0 -0.41774191638E+02 -0.75267623414E+01  0.25147977333E+03  0.25503688289E+03  0.00000000000E+00 0. -1.
         11    1    1    2    0    0  0.43102269158E+02 -0.41852067351E+02  0.24892378594E+03  0.25607118611E+03  0.00000000000E+00 0.  1.
</event>
<event>
 7    1  0.2641580E-009  0.1414477E+03  0.7561462E-02  0.1211394E+00
         -1   -1    0    0    0  501 -0.00000000000E+00  0.00000000000E+00  0.50273193507E+02  0.50273193507E+02  0.00000000000E+00 0.  1.
          1   -1    0    0  501    0  0.00000000000E+00 -0.00000000000E+00 -0.62192074013E+03  0.62192074013E+03  0.00000000000E+00 0. -1.
         25    2    1    2    0    0  0.10420261179E+03 -0.56912562824E+02 -0.13684408953E+03  0.22016180056E+03  0.12509072498E+03 0.  0.
          5    1    3    3  502    0  0.65479761872E+01  0.30844013873E+02 -0.60178639716E+02  0.68067395000E+02  0.41800000000E+01 0.  1.
         -5    1    3    3    0  502  0.97654635598E+02 -0.87756576698E+02 -0.76665449814E+02  0.15209440556E+03  0.41800000000E+01 0.  1.
        -11    1    1    2    0    0 -0.57434873017E+02  0.40027510251E+02 -0.19654412052E+03  0.20863977935E+03  0.00000000000E+00 0.  1.
         11    1    1    2    0    0 -0.46767738769E+02  0.16885052573E+02 -0.23825933658E+03  0.24339235373E+03  0.00000000000E+00 0. -1.
</event>
<event>
 7    1  0.2641580E-009  0.1773650E+03  0.7561462E-02  0.1170378E+00
         -2   -1    0    0    0  501 -0.00000000000E+00  0.00000000000E+00  0.26412184949E+03  0.26412184949E+03  0.00000000000E+00 0. -1.
          2   -1    0    0  501    0  0.00000000000E+00 -0.00000000000E+00 -0.12442996275E+03  0.12442996275E+03  0.00000000000E+00 0.  1.
         25    2    1    2    0    0 -0.12437028712E+03  0.72738421078E+02  0.54569932428E+02  0.19845034786E+03  0.12508323957E+03 0.  0.
          5    1    3    3  502    0 -0.26370633556E+02 -0.34877598612E+02  0.22490893982E+02  0.49347440776E+02  0.41800000000E+01 0.  1.
         -5    1    3    3    0  502 -0.97999653566E+02  0.10761601969E+03  0.32079038446E+02  0.14910290708E+03  0.41800000000E+01 0.  1.
        -11    1    1    2    0    0  0.89625302311E+02 -0.89462541757E+02  0.83144949921E+02  0.15149034256E+03  0.00000000000E+00 0.  1.
         11    1    1    2    0    0  0.34744984811E+02  0.16724120680E+02  0.19770043906E+01  0.38611121822E+02  0.00000000000E+00 0. -1.
</event>
<event>
 7    1  0.2641580E-009  0.3041665E+03  0.7561462E-02  0.1083176E+00
         -2   -1    0    0    0  501 -0.00000000000E+00  0.00000000000E+00  0.52865143101E+03  0.52865143101E+03  0.00000000000E+00 0. -1.
          2   -1    0    0  501    0  0.00000000000E+00 -0.00000000000E+00 -0.20982826660E+03  0.20982826660E+03  0.00000000000E+00 0.  1.
         25    2    1    2    0    0 -0.27739604732E+03  0.10243936113E+03  0.28146655463E+03  0.42698179517E+03  0.12509053622E+03 0.  0.
          5    1    3    3  502    0 -0.14163196957E+03  0.26692680363E+02  0.59560020291E+02  0.15600314871E+03  0.41800000000E+01 0.  1.
         -5    1    3    3    0  502 -0.13576407774E+03  0.75746680772E+02  0.22190653434E+03  0.27097864646E+03  0.41800000000E+01 0.  1.
        -11    1    1    2    0    0  0.18905761967E+03 -0.24161074446E+02  0.13437834454E+02  0.19106835548E+03  0.00000000000E+00 0.  1.
         11    1    1    2    0    0  0.88338427652E+02 -0.78278286689E+02  0.23918775327E+02  0.12042954696E+03  0.00000000000E+00 0. -1.
</event>
<event>
 7    1  0.2641580E-009  0.7963326E+02  0.7561462E-02  0.1330095E+00
         -2   -1    0    0    0  501 -0.00000000000E+00  0.00000000000E+00  0.24595575980E+03  0.24595575980E+03  0.00000000000E+00 0.  1.
          2   -1    0    0  501    0  0.00000000000E+00 -0.00000000000E+00 -0.72844357178E+02  0.72844357178E+02  0.00000000000E+00 0. -1.
         25    2    1    2    0    0 -0.49556947414E+02  0.33109866065E+02  0.35037943791E+02  0.14292274124E+03  0.12508836153E+03 0.  0.
          5    1    3    3  502    0  0.10107465351E+02  0.37873597460E+02  0.64875149308E+02  0.75913290260E+02  0.41800000000E+01 0. -1.
         -5    1    3    3    0  502 -0.59664412764E+02 -0.47637313952E+01 -0.29837205517E+02  0.67009450978E+02  0.41800000000E+01 0. -1.
        -11    1    1    2    0    0  0.25548830597E+02 -0.20310021164E+02  0.14431823709E+03  0.14796281040E+03  0.00000000000E+00 0.  1.
         11    1    1    2    0    0  0.24008116817E+02 -0.12799844901E+02 -0.62447782601E+01  0.27914565340E+02  0.00000000000E+00 0. -1.
</event>
<event>
 7    1  0.2641580E-009  0.1068287E+03  0.7561462E-02  0.1266558E+00
         -2   -1    0    0    0  501 -0.00000000000E+00  0.00000000000E+00  0.73556180791E+02  0.73556180791E+02  0.00000000000E+00 0.  1.
          2   -1    0    0  501    0  0.00000000000E+00 -0.00000000000E+00 -0.32002917452E+03  0.32002917452E+03  0.00000000000E+00 0. -1.
         25    2    1    2    0    0 -0.33617307875E+02  0.27745400210E+02 -0.57947899626E+01  0.13259408925E+03  0.12509069626E+03 0.  0.
          5    1    3    3  502    0 -0.13869438439E+02  0.67280463888E+02 -0.37186163706E+02  0.78225988743E+02  0.41800000000E+01 0. -1.
         -5    1    3    3    0  502 -0.19747869436E+02 -0.39535063678E+02  0.31391373743E+02  0.54368100507E+02  0.41800000000E+01 0. -1.
        -11    1    1    2    0    0  0.39410817018E+02 -0.57733489911E+02 -0.17900217136E+03  0.19216697351E+03  0.00000000000E+00 0.  1.
         11    1    1    2    0    0 -0.57935091428E+01  0.29988089701E+02 -0.61676032409E+02  0.68824292556E+02  0.00000000000E+00 0. -1.
</event>
<event>
 7    1  0.2641580E-009  0.8879524E+02  0.7561462E-02  0.1305796E+00
         -1   -1    0    0    0  501 -0.00000000000E+00  0.00000000000E+00  0.17266534207E+03  0.17266534207E+03  0.00000000000E+00 0.  1.
          1   -1    0    0  501    0  0.00000000000E+00 -0.00000000000E+00 -0.13723917239E+03  0.13723917239E+03  0.00000000000E+00 0. -1.
         25    2    1    2    0    0 -0.82082897048E+02  0.27581908012E+01 -0.55115630736E+02  0.15945177510E+03  0.12506768658E+03 0.  0.
          5    1    3    3  502    0 -0.80582798417E+02  0.15149529989E+02 -0.90205771019E+02  0.12197396929E+03  0.41800000000E+01 0.  1.
         -5    1    3    3    0  502 -0.15000986307E+01 -0.12391339188E+02  0.35090140283E+02  0.37477805803E+02  0.41800000000E+01 0.  1.
        -11    1    1    2    0    0  0.51828285438E+02 -0.44889540680E+01  0.10477002275E+03  0.11697469618E+03  0.00000000000E+00 0.  1.
         11    1    1    2    0    0  0.30254611610E+02  0.17307632668E+01 -0.14228222333E+02  0.33478043191E+02  0.00000000000E+00 0. -1.
</event>
<event>
 7    1  0.2641580E-009  0.4266976E+03  0.7561462E-02  0.1034908E+00
         -2   -1    0    0    0  501 -0.00000000000E+00  0.00000000000E+00  0.50029525336E+03  0.50029525336E+03  0.00000000000E+00 0.  1.
          2   -1    0    0  501    0  0.00000000000E+00 -0.00000000000E+00 -0.39730500230E+03  0.39730500230E+03  0.00000000000E+00 0. -1.
         25    2    1    2    0    0  0.76719969249E+02 -0.41878533309E+03 -0.22922320465E+02  0.44434072522E+03  0.12508452511E+03 0.  0.
          5    1    3    3  502    0  0.21150535997E+02 -0.21249089129E+03  0.48523789612E+02  0.21902455254E+03  0.41800000000E+01 0. -1.
         -5    1    3    3    0  502  0.55569433253E+02 -0.20629444179E+03 -0.71446110077E+02  0.22531617268E+03  0.41800000000E+01 0. -1.
        -11    1    1    2    0    0 -0.31109884811E+02  0.12461743778E+03  0.81923065071E+02  0.15234408200E+03  0.00000000000E+00 0. -1.
         11    1    1    2    0    0 -0.45610084438E+02  0.29416789531E+03  0.43989506455E+02  0.30091544844E+03  0.00000000000E+00 0.  1.
</event>
<event>
 7    1  0.2641580E-009  0.2240995E+03  0.7561462E-02  0.1130863E+00
         -2   -1    0    0    0  501 -0.00000000000E+00  0.00000000000E+00  0.43476300239E+02  0.43476300239E+02  0.00000000000E+00 0.  1.
          2   -1    0    0  501    0  0.00000000000E+00 -0.00000000000E+00 -0.13515559410E+04  0.13515559410E+04  0.00000000000E+00 0. -1.
         25    2    1    2    0    0  0.43711689312E+02 -0.20570937739E+03 -0.81442516719E+03  0.85039095643E+03  0.12509742643E+03 0.  0.
          5    1    3    3  502    0 -0.20795702088E+02  0.10239406514E+01 -0.15137955098E+03  0.15286186750E+03  0.41800000000E+01 0. -1.
         -5    1    3    3    0  502  0.64507391400E+02 -0.20673331804E+03 -0.66304561621E+03  0.69752908894E+03  0.41800000000E+01 0. -1.
        -11    1    1    2    0    0 -0.18684790549E+02  0.76612307929E+02 -0.87798782813E+02  0.11801353053E+03  0.00000000000E+00 0.  1.
         11    1    1    2    0    0 -0.25026898763E+02  0.12909706946E+03 -0.40585569078E+03  0.42662775430E+03  0.00000000000E+00 0. -1.
</event>
<event>
 7    1  0.2641580E-009  0.1066857E+03  0.7561462E-02  0.1266834E+00
         -2   -1    0    0    0  501 -0.00000000000E+00  0.00000000000E+00  0.67824868314E+02  0.67824868314E+02  0.00000000000E+00 0.  1.
          2   -1    0    0  501    0  0.00000000000E+00 -0.00000000000E+00 -0.20992904144E+03  0.20992904144E+03  0.00000000000E+00 0. -1.
         25    2    1    2    0    0 -0.17301006115E+02 -0.16641936307E+02 -0.12309475010E+03  0.17713907658E+03  0.12509858549E+03 0.  0.
          5    1    3    3  502    0 -0.25227398824E+02  0.45341752046E+02 -0.18532891824E+02  0.55256100201E+02  0.41800000000E+01 0. -1.
         -5    1    3    3    0  502  0.79263927095E+01 -0.61983688353E+02 -0.10456185828E+03  0.12188297638E+03  0.41800000000E+01 0. -1.
        -11    1    1    2    0    0 -0.37502318820E+02 -0.84040497599E+01 -0.97743425629E+01  0.39655891640E+02  0.00000000000E+00 0. -1.
         11    1    1    2    0    0  0.54803324935E+02  0.25045986067E+02 -0.92350804571E+01  0.60958941535E+02  0.00000000000E+00 0.  1.
</event>
<event>
 7    1  0.2641580E-009  0.1073192E+03  0.7561462E-02  0.1265616E+00
          1   -1    0    0  501    0  0.00000000000E+00  0.00000000000E+00  0.22008507431E+03  0.22008507431E+03  0.00000000000E+00 0. -1.
         -1   -1    0    0    0  501 -0.00000000000E+00 -0.00000000000E+00 -0.76159157295E+02  0.76159157295E+02  0.00000000000E+00 0.  1.
         25    2    1    2    0    0 -0.13321300307E+02  0.61730658714E+02  0.11559736958E+03  0.18165654301E+03  0.12509283151E+03 0.  0.
          5    1    3    3  502    0 -0.57097318093E+02  0.27215300219E+01  0.19339966170E+02  0.60489810304E+02  0.41800000000E+01 0. -1.
         -5    1    3    3    0  502  0.43776017787E+02  0.59009128693E+02  0.96257403411E+02  0.12116673270E+03  0.41800000000E+01 0. -1.
        -11    1    1    2    0    0  0.34748312893E+02 -0.42882726871E+02  0.53254958125E+02  0.76697223403E+02  0.00000000000E+00 0. -1.
         11    1    1    2    0    0 -0.21427012586E+02 -0.18847931843E+02 -0.24926410689E+02  0.37890465199E+02  0.00000000000E+00 0.  1.
</event>
<event>
 7    1  0.2641580E-009  0.1229404E+03  0.7561462E-02  0.1238324E+00
          1   -1    0    0  501    0  0.00000000000E+00  0.00000000000E+00  0.20655341319E+03  0.20655341319E+03  0.00000000000E+00 0. -1.
         -1   -1    0    0    0  501 -0.00000000000E+00 -0.00000000000E+00 -0.78661080019E+02  0.78661080019E+02  0.00000000000E+00 0.  1.
         25    2    1    2    0    0  0.65841109966E+02  0.46601744057E+01  0.88552227818E+02  0.16686997043E+03  0.12508925211E+03 0.  0.
          5    1    3    3  502    0  0.77318735369E+02  0.51502064148E+02  0.56542290278E+02  0.10883543743E+03  0.41800000000E+01 0. -1.
         -5    1    3    3    0  502 -0.11477625403E+02 -0.46841889742E+02  0.32009937541E+02  0.58034533003E+02  0.41800000000E+01 0. -1.
        -11    1    1    2    0    0 -0.19441419511E+02 -0.41108339206E+02  0.38104739952E+02  0.59328201993E+02  0.00000000000E+00 0. -1.
         11    1    1    2    0    0 -0.46399690455E+02  0.36448164800E+02  0.12353654051E+01  0.59016320788E+02  0.00000000000E+00 0.  1.
</event>
<event>
 7    1  0.2641580E-009  0.1248342E+03  0.7561462E-02  0.1235329E+00
         -2   -1    0    0    0  501 -0.00000000000E+00  0.00000000000E+00  0.28663071554E+02  0.28663071554E+02  0.00000000000E+00 0.  1.
          2   -1    0    0  501    0  0.00000000000E+00 -0.00000000000E+00 -0.56299180439E+03  0.56299180439E+03  0.00000000000E+00 0. -1.
         25    2    1    2    0    0  0.27367751175E+02  0.62453631452E+02 -0.28269680394E+03  0.31656899243E+03  0.12509593968E+03 0.  0.
          5    1    3    3  502    0 -0.44094016463E+02  0.53252863527E+02 -0.15752442056E+03  0.17208011284E+03  0.41800000000E+01 0. -1.
         -5    1    3    3    0  502  0.71461767638E+02  0.92007679249E+01 -0.12517238338E+03  0.14448887959E+03  0.41800000000E+01 0. -1.
        -11    1    1    2    0    0  0.11460363216E+01 -0.76455907099E+02 -0.14642943625E+03  0.16519200625E+03  0.00000000000E+00 0.  1.
         11    1    1    2    0    0 -0.28513787497E+02  0.14002275647E+02 -0.10520249265E+03  0.10989387726E+03  0.00000000000E+00 0. -1.
</event>
<event>
 7    1  0.2641580E-009  0.1498910E+03  0.7561462E-02  0.1200607E+00
          1   -1    0    0  501    0  0.00000000000E+00  0.00000000000E+00  0.52863629017E+02  0.52863629017E+02  0.00000000000E+00 0. -1.
         -1   -1    0    0    0  501 -0.00000000000E+00 -0.00000000000E+00 -0.92080391589E+03  0.92080391589E+03  0.00000000000E+00 0.  1.
         25    2    1    2    0    0  0.51326855402E+02  0.11811941615E+03 -0.13736526720E+03  0.22606118564E+03  0.12509116861E+03 0.  0.
          5    1    3    3  502    0  0.59663362853E+02  0.48407721704E+02 -0.13535859064E+03  0.15569985500E+03  0.41800000000E+01 0. -1.
         -5    1    3    3    0  502 -0.83365074504E+01  0.69711694443E+02 -0.20066765580E+01  0.70361330639E+02  0.41800000000E+01 0. -1.
        -11    1    1    2    0    0 -0.56623879612E+02 -0.12873673094E+03 -0.71051153014E+03  0.72429693089E+03  0.00000000000E+00 0.  1.
         11    1    1    2    0    0  0.52970242099E+01  0.10617314794E+02 -0.20063489540E+02  0.23309428381E+02  0.00000000000E+00 0. -1.
</event>
<event>
 7    1  0.2641580E-009  0.9077570E+02  0.7561462E-02  0.1300984E+00
         -2   -1    0    0    0  501 -0.00000000000E+00  0.00000000000E+00  0.58750127626E+03  0.58750127626E+03  0.00000000000E+00 0.  1.
          2   -1    0    0  501    0  0.00000000000E+00 -0.00000000000E+00 -0.27559075585E+02  0.27559075585E+02  0.00000000000E+00 0. -1.
         25    2    1    2    0    0  0.40858214366E+02 -0.21564592667E+02  0.43659815685E+03  0.45650976141E+03  0.12509510929E+03 0.  0.
          5    1    3    3  502    0 -0.27954961677E+02  0.25852649153E+02  0.63623605541E+02  0.74264897042E+02  0.41800000000E+01 0.  1.
         -5    1    3    3    0  502  0.68813176043E+02 -0.47417241819E+02  0.37297455130E+03  0.38224486437E+03  0.41800000000E+01 0.  1.
        -11    1    1    2    0    0 -0.20501520429E+02  0.30976169729E+02  0.12996285978E+03  0.13516723106E+03  0.00000000000E+00 0.  1.
         11    1    1    2    0    0 -0.20356693937E+02 -0.94115770627E+01 -0.66188159486E+01  0.23383359370E+02  0.00000000000E+00 0. -1.
</event>
<event>
 7    1  0.2641580E-009  0.2220786E+03  0.7561462E-02  0.1132343E+00
          2   -1    0    0  501    0  0.00000000000E+00  0.00000000000E+00  0.14469942692E+04  0.14469942692E+04  0.00000000000E+00 0.  1.
         -2   -1    0    0    0  501 -0.00000000000E+00 -0.00000000000E+00 -0.37325742947E+02  0.37325742947E+02  0.00000000000E+00 0. -1.
         25    2    1    2    0    0 -0.19542134930E+03  0.28950914352E+02  0.91653507061E+03  0.94588699496E+03  0.12505203866E+03 0.  0.
          5    1    3    3  502    0 -0.19959940853E+03 -0.46429334117E+01  0.78275196150E+03  0.80782398229E+03  0.41800000000E+01 0. -1.
         -5    1    3    3    0  502  0.41780592381E+01  0.33593847764E+02  0.13378310910E+03  0.13806301267E+03  0.41800000000E+01 0. -1.
        -11    1    1    2    0    0  0.19938620529E+02  0.19925325590E+02  0.11922111420E+03  0.12250812732E+03  0.00000000000E+00 0.  1.
         11    1    1    2    0    0  0.17548272877E+03 -0.48876239942E+02  0.37391234144E+03  0.41592488986E+03  0.00000000000E+00 0. -1.
</event>
<event>
 7    1  0.2641580E-009  0.1406126E+03  0.7561462E-02  0.1212507E+00
          1   -1    0    0  501    0  0.00000000000E+00  0.00000000000E+00  0.79133761598E+03  0.79133761598E+03  0.00000000000E+00 0. -1.
         -1   -1    0    0    0  501 -0.00000000000E+00 -0.00000000000E+00 -0.68058570701E+02  0.68058570701E+02  0.00000000000E+00 0.  1.
         25    2    1    2    0    0 -0.11839694208E+03 -0.37418103606E+02  0.67601195499E+03  0.69861125895E+03  0.12509027727E+03 0.  0.
          5    1    3    3  502    0 -0.11039874402E+03 -0.25750911748E+02  0.27702152417E+03  0.29934827440E+03  0.41800000000E+01 0.  1.
         -5    1    3    3    0  502 -0.79981980560E+01 -0.11667191858E+02  0.39899043082E+03  0.39926298454E+03  0.41800000000E+01 0.  1.
        -11    1    1    2    0    0  0.24158228468E+02  0.52318208460E+02  0.10719168290E+02  0.58614976823E+02  0.00000000000E+00 0. -1.
         11    1    1    2    0    0  0.94238713608E+02 -0.14900104854E+02  0.36547922001E+02  0.10216995091E+03  0.00000000000E+00 0.  1.
</event>
<event>
 7    1  0.2641580E-009  0.1450756E+03  0.7561462E-02  0.1206658E+00
         -2   -1    0    0    0  501 -0.00000000000E+00  0.00000000000E+00  0.41303846774E+02  0.41303846774E+02  0.00000000000E+00 0.  1.
          2   -1    0    0  501    0  0.00000000000E+00 -0.00000000000E+00 -0.62621413830E+03  0.62621413830E+03  0.00000000000E+00 0. -1.
         25    2    1    2    0    0  0.11414172102E+03  0.28772168162E+02 -0.35165437327E+03  0.39135769753E+03  0.12507549335E+03 0.  0.
          5    1    3    3  502    0  0.14239744996E+02  0.62145396430E+02 -0.16589437103E+03  0.17777298831E+03  0.41800000000E+01 0. -1.
         -5    1    3    3    0  502  0.99901976023E+02 -0.33373228267E+02 -0.18576000225E+03  0.21358470922E+03  0.41800000000E+01 0. -1.
        -11    1    1    2    0    0 -0.31818146192E+02 -0.21073195306E+02 -0.12072384558E+02  0.40027696117E+02  0.00000000000E+00 0.  1.
         11    1    1    2    0    0 -0.82323574827E+02 -0.76989728560E+01 -0.22118353369E+03  0.23613259142E+03  0.00000000000E+00 0. -1.
</event>
<event>
 7    1  0.2641580E-009  0.1117881E+03  0.7561462E-02  0.1257294E+00
         -2   -1    0    0    0  501 -0.00000000000E+00  0.00000000000E+00  0.49673744597E+02  0.49673744597E+02  0.00000000000E+00 0.  1.
          2   -1    0    0  501    0  0.00000000000E+00 -0.00000000000E+00 -0.26370021275E+03  0.26370021275E+03  0.00000000000E+00 0. -1.
         25    2    1    2    0    0  0.97463725517E+01  0.35639659849E+02 -0.13497926841E+03  0.18770482817E+03  0.12509405455E+03 0.  0.
          5    1    3    3  502    0  0.49849753152E+02  0.61726799921E+02 -0.64085925530E+02  0.10207680426E+03  0.41800000000E+01 0. -1.
         -5    1    3    3    0  502 -0.40103380600E+02 -0.26087140072E+02 -0.70893342881E+02  0.85628023903E+02  0.41800000000E+01 0. -1.
        -11    1    1    2    0    0  0.18916510775E+02 -0.57191391523E+02 -0.60174163849E+02  0.85144698245E+02  0.00000000000E+00 0. -1.
         11    1    1    2    0    0 -0.28662883327E+02  0.21551731674E+02 -0.18873035889E+02  0.40524430932E+02  0.00000000000E+00 0.  1.
</event>
<event>
 7    1  0.2641580E-009  0.1334912E+03  0.7561462E-02  0.1222365E+00
         -1   -1    0    0    0  501 -0.00000000000E+00  0.00000000000E+00  0.49460593320E+03  0.49460593320E+03  0.00000000000E+00 0.  1.
          1   -1    0    0  501    0  0.00000000000E+00 -0.00000000000E+00 -0.53068823334E+02  0.53068823334E+02  0.00000000000E+00 0. -1.
         25    2    1    2    0    0  0.11253765418E+03  0.49909093653E+02  0.20547816334E+03  0.27023035503E+03  0.12509007927E+03 0.  0.
          5    1    3    3  502    0  0.36372606788E+02  0.28287911476E+02  0.18163938771E+03  0.18743935560E+03  0.41800000000E+01 0. -1.
         -5    1    3    3    0  502  0.76165047396E+02  0.21621182178E+02  0.23838775632E+02  0.82790999434E+02  0.41800000000E+01 0. -1.
        -11    1    1    2    0    0 -0.32235302912E+02  0.17416461365E+02  0.34768307822E+02  0.50510227767E+02  0.00000000000E+00 0.  1.
         11    1    1    2    0    0 -0.80302351273E+02 -0.67325555019E+02  0.20129063871E+03  0.22693417374E+03  0.00000000000E+00 0. -1.
</event>
<event>
 7    1  0.2641580E-009  0.7334223E+02  0.7561462E-02  0.1349083E+00
         -2   -1    0    0    0  501 -0.00000000000E+00  0.00000000000E+00  0.21606487530E+03  0.21606487530E+03  0.00000000000E+00 0.  1.
          2   -1    0    0  501    0  0.00000000000E+00 -0.00000000000E+00 -0.73490830326E+02  0.73490830326E+02  0.00000000000E+00 0. -1.
         25    2    1    2    0    0 -0.12815320874E+02  0.18133289736E+02  0.14963250777E+03  0.19629195269E+03  0.12509034602E+03 0.  0.
          5    1    3    3  502    0 -0.40449407755E+02  0.15420338943E+02  0.16042047339E+03  0.16621113718E+03  0.41800000000E+01 0.  1.
         -5    1    3    3    0  502  0.27634086881E+02  0.27129507933E+01 -0.10787965621E+02  0.30080815514E+02  0.41800000000E+01 0.  1.
        -11    1    1    2    0    0  0.11827838922E+02  0.27257310732E+02 -0.30147333224E+02  0.42328719122E+02  0.00000000000E+00 0. -1.
         11    1    1    2    0    0  0.98748195199E+00 -0.45390600469E+02  0.23088870435E+02  0.50935033812E+02  0.00000000000E+00 0.  1.
</event>
<event>
 7    1  0.2641580E-009  0.1423651E+03  0.7561462E-02  0.1210182E+00
          1   -1    0    0  501    0  0.00000000000E+00  0.00000000000E+00  0.10157413277E+04  0.10157413277E+04  0.00000000000E+00 0. -1.
         -1   -1    0    0    0  501 -0.00000000000E+00 -0.00000000000E+00 -0.31015032396E+02  0.31015032396E+02  0.00000000000E+00 0.  1.
         25    2    1    2    0    0  0.13049741665E+03 -0.10851030246E+02  0.66987240226E+03  0.69391922554E+03  0.12509011012E+03 0.  0.
          5    1    3    3  502    0  0.65412298455E+02 -0.30508999617E+02  0.55997813729E+03  0.56462603065E+03  0.41800000000E+01 0.  1.
         -5    1    3    3    0  502  0.65085118199E+02  0.19657969371E+02  0.10989426497E+03  0.12929319489E+03  0.41800000000E+01 0.  1.
        -11    1    1    2    0    0 -0.39943237671E+02  0.32166968785E+02  0.48043251652E+02  0.70273253417E+02  0.00000000000E+00 0. -1.
         11    1    1    2    0    0 -0.90554178983E+02 -0.21315938539E+02  0.26681064142E+03  0.28256388117E+03  0.00000000000E+00 0.  1.
</event>
<event>
 7    1  0.2641580E-009  0.1828130E+03  0.7561462E-02  0.1165108E+00
          2   -1    0    0  501    0  0.00000000000E+00  0.00000000000E+00  0.11799116837E+04  0.11799116837E+04  0.00000000000E+00 0. -1.
         -2   -1    0    0    0  501 -0.00000000000E+00 -0.00000000000E+00 -0.33816478462E+02  0.33816478462E+02  0.00000000000E+00 0.  1.
         25    2    1    2    0    0  0.16381235350E+03 -0.16475511737E+02  0.50465791329E+03  0.54537383563E+03  0.12508829480E+03 0.  0.
          5    1    3    3  502    0  0.10485585391E+03  0.23796999344E+02  0.42459647854E+03  0.43801905126E+03  0.41800000000E+01 0. -1.
         -5    1    3    3    0  502  0.58956499593E+02 -0.40272511080E+02  0.80061434753E+02  0.10735478437E+03  0.41800000000E+01 0. -1.
        -11    1    1    2    0    0 -0.85599472747E+02 -0.35419690555E+02  0.27994027569E+03  0.29487011067E+03  0.00000000000E+00 0.  1.
         11    1    1    2    0    0 -0.78212880753E+02  0.51895202291E+02  0.36149701625E+03  0.37348421586E+03  0.00000000000E+00 0. -1.
</event>
<event>
 7    1  0.2641580E-009  0.1414803E+03  0.7561462E-02  0.1211351E+00
          3   -1    0    0  501    0  0.00000000000E+00  0.00000000000E+00  0.87118380786E+02  0.87118380786E+02  0.00000000000E+00 0. -1.
         -3   -1    0    0    0  501 -0.00000000000E+00 -0.00000000000E+00 -0.24381992910E+03  0.24381992910E+03  0.00000000000E+00 0.  1.
         25    2    1    2    0    0  0.90031470835E+02  0.27512980685E+02 -0.52605844764E+02  0.16515873306E+03  0.12508957733E+03 0.  0.
          5    1    3    3  502    0  0.77748939627E+01  0.63613353804E+02 -0.78217402651E+01  0.64697448011E+02  0.41800000000E+01 0.  1.
         -5    1    3    3    0  502  0.82256576872E+02 -0.36100373119E+02 -0.44784104499E+02  0.10046128505E+03  0.41800000000E+01 0.  1.
        -11    1    1    2    0    0  0.10478472597E+02  0.16129774529E+02 -0.19057854295E+02  0.27077108867E+02  0.00000000000E+00 0.  1.
         11    1    1    2    0    0 -0.10050994343E+03 -0.43642755214E+02 -0.85037849250E+02  0.13870246795E+03  0.00000000000E+00 0. -1.
</event>
<event>
 7    1  0.2641580E-009  0.1578149E+03  0.7561462E-02  0.1191186E+00
         -1   -1    0    0    0  501 -0.00000000000E+00  0.00000000000E+00  0.61226389323E+03  0.61226389323E+03  0.00000000000E+00 0.  1.
          1   -1    0    0  501    0  0.00000000000E+00 -0.00000000000E+00 -0.42685274724E+02  0.42685274724E+02  0.00000000000E+00 0. -1.
         25    2    1    2    0    0  0.45455344715E+01 -0.11993806204E+03  0.28407752088E+03  0.33277752169E+03  0.12504015541E+03 0.  0.
          5    1    3    3  502    0  0.60522969409E+02 -0.33279799656E+02  0.97880616995E+02  0.11986935586E+03  0.41800000000E+01 0.  1.
         -5    1    3    3    0  502 -0.55977434938E+02 -0.86658262380E+02  0.18619690388E+03  0.21290816583E+03  0.41800000000E+01 0.  1.
        -11    1    1    2    0    0 -0.27294606078E+02  0.11712287655E+03  0.26657118416E+03  0.29244308841E+03  0.00000000000E+00 0.  1.
         11    1    1    2    0    0  0.22749071607E+02  0.28151854874E+01  0.18929913464E+02  0.29728557854E+02  0.00000000000E+00 0. -1.
</event>
<event>
 7    1  0.2641580E-009  0.1493868E+03  0.7561462E-02  0.1201228E+00
         -2   -1    0    0    0  501 -0.00000000000E+00  0.00000000000E+00  0.41860291122E+02  0.41860291122E+02  0.00000000000E+00 0.  1.
          2   -1    0    0  501    0  0.00000000000E+00 -0.00000000000E+00 -0.84071124562E+03  0.84071124562E+03  0.00000000000E+00 0. -1.
         25    2    1    2    0    0  0.89441130462E+02 -0.56518335595E+02 -0.16106475968E+03  0.22974742398E+03  0.12509190196E+03 0.  0.
          5    1    3    3  502    0 -0.30204814559E+02 -0.12132431327E+02 -0.53654102241E+02  0.62894847164E+02  0.41800000000E+01 0. -1.
         -5    1    3    3    0  502  0.11964594502E+03 -0.44385904268E+02 -0.10741065744E+03  0.16685257682E+03  0.41800000000E+01 0. -1.
        -11    1    1    2    0    0 -0.21474464231E+02 -0.24462383937E+02 -0.18650979439E+03  0.18932898417E+03  0.00000000000E+00 0.  1.
         11    1    1    2    0    0 -0.67966666231E+02  0.80980719532E+02 -0.45127640042E+03  0.46349512860E+03  0.00000000000E+00 0. -1.
</event>
<event>
 7    1  0.2641580E-009  0.1531064E+03  0.7561462E-02  0.1196707E+00
         -1   -1    0    0    0  501 -0.00000000000E+00  0.00000000000E+00  0.23463218967E+02  0.23463218967E+02  0.00000000000E+00 0.  1.
          1   -1    0    0  501    0  0.00000000000E+00 -0.00000000000E+00 -0.12157411134E+04  0.12157411134E+04  0.00000000000E+00 0. -1.
         25    2    1    2    0    0  0.41983450935E+02 -0.11128375983E+03 -0.61790141416E+03  0.64155826124E+03  0.12509260403E+03 0.  0.
          5    1    3    3  502    0 -0.39632243595E+02 -0.59651094304E+02 -0.33506372377E+03  0.34265746624E+03  0.41800000000E+01 0. -1.
         -5    1    3    3    0  502  0.81615694529E+02 -0.51632665523E+02 -0.28283769039E+03  0.29890079499E+03  0.41800000000E+01 0. -1.
        -11    1    1    2    0    0  0.16769026428E+02  0.50753549689E+02 -0.80583216732E+02  0.96699420227E+02  0.00000000000E+00 0.  1.
         11    1    1    2    0    0 -0.58752477363E+02  0.60530210137E+02 -0.49379326356E+03  0.50094665092E+03  0.00000000000E+00 0. -1.
</event>
<event>
 7    1  0.2641580E-009  0.6665795E+02  0.7561462E-02  0.1371841E+00
          2   -1    0    0  501    0  0.00000000000E+00  0.00000000000E+00  0.20185283377E+03  0.20185283377E+03  0.00000000000E+00 0. -1.
         -2   -1    0    0    0  501 -0.00000000000E+00 -0.00000000000E+00 -0.92767800122E+02  0.92767800122E+02  0.00000000000E+00 0.  1.
         25    2    1    2    0    0 -0.51161190835E+00 -0.45015126034E+01  0.14566419578E+03  0.19206134829E+03  0.12509587608E+03 0.  0.
          5    1    3    3  502    0 -0.12273845428E+01  0.47376896664E+02  0.12656619004E+02  0.49231486012E+02  0.41800000000E+01 0. -1.
         -5    1    3    3    0  502  0.71577263441E+00 -0.51878409268E+02  0.13300757678E+03  0.14282986228E+03  0.41800000000E+01 0. -1.
        -11    1    1    2    0    0 -0.85781927451E+01 -0.12057650227E+02 -0.65976708585E+02  0.67615814684E+02  0.00000000000E+00 0.  1.
         11    1    1    2    0    0  0.90898046534E+01  0.16559162831E+02  0.29397546454E+02  0.34943470918E+02  0.00000000000E+00 0. -1.
</event>
<event>
 7    1  0.2641580E-009  0.8027096E+02  0.7561462E-02  0.1328284E+00
          1   -1    0    0  501    0  0.00000000000E+00  0.00000000000E+00  0.18850981497E+03  0.18850981497E+03  0.00000000000E+00 0. -1.
         -1   -1    0    0    0  501 -0.00000000000E+00 -0.00000000000E+00 -0.78251425962E+02  0.78251425962E+02  0.00000000000E+00 0.  1.
         25    2    1    2    0    0 -0.43294910277E+02 -0.29976579837E+02  0.93367543624E+02  0.16470020624E+03  0.12504245334E+03 0.  0.
          5    1    3    3  502    0 -0.68330600393E+02 -0.40800844825E+02  0.10740370889E+03  0.13374157533E+03  0.41800000000E+01 0.  1.
         -5    1    3    3    0  502  0.25035690116E+02  0.10824264988E+02 -0.14036165269E+02  0.30958630906E+02  0.41800000000E+01 0.  1.
        -11    1    1    2    0    0  0.10155318568E+02  0.11380160184E+02 -0.34747240300E+02  0.37947453794E+02  0.00000000000E+00 0.  1.
         11    1    1    2    0    0  0.33139591709E+02  0.18596419653E+02  0.51638085682E+02  0.64113580898E+02  0.00000000000E+00 0. -1.
</event>
<event>
 7    1  0.2641580E-009  0.1337435E+03  0.7561462E-02  0.1222004E+00
          2   -1    0    0  501    0  0.00000000000E+00  0.00000000000E+00  0.12062562599E+04  0.12062562599E+04  0.00000000000E+00 0. -1.
         -2   -1    0    0    0  501 -0.00000000000E+00 -0.00000000000E+00 -0.15456445468E+02  0.15456445468E+02  0.00000000000E+00 0.  1.
         25    2    1    2    0    0 -0.50816617941E+02  0.64598014931E+02  0.68160998509E+03  0.69784987814E+03  0.12508816276E+03 0.  0.
          5    1    3    3  502    0 -0.87485595812E+02  0.23865871939E+02  0.34308702561E+03  0.35489363034E+03  0.41800000000E+01 0.  1.
         -5    1    3    3    0  502  0.36668977871E+02  0.40732142991E+02  0.33852295948E+03  0.34295624780E+03  0.41800000000E+01 0.  1.
        -11    1    1    2    0    0 -0.25315906427E+02 -0.26357319241E+02  0.19097233012E+03  0.19443773880E+03  0.00000000000E+00 0.  1.
         11    1    1    2    0    0  0.76132524367E+02 -0.38240695690E+02  0.31821749918E+03  0.32942508839E+03  0.00000000000E+00 0. -1.
</event>
<event>
 7    1  0.2641580E-009  0.8868187E+02  0.7561462E-02  0.1306076E+00
          2   -1    0    0  501    0  0.00000000000E+00  0.00000000000E+00  0.90814849852E+02  0.90814849852E+02  0.00000000000E+00 0. -1.
         -2   -1    0    0    0  501 -0.00000000000E+00 -0.00000000000E+00 -0.23510246471E+03  0.23510246471E+03  0.00000000000E+00 0.  1.
         25    2    1    2    0    0 -0.29378007958E+02 -0.82781929709E+02 -0.12148142354E+03  0.19524449459E+03  0.12508701437E+03 0.  0.
          5    1    3    3  502    0 -0.74200022241E+00 -0.19215697851E+02  0.25678075353E+02  0.32351654704E+02  0.41800000000E+01 0.  1.
         -5    1    3    3    0  502 -0.28636007735E+02 -0.63566231857E+02 -0.14715949890E+03  0.16289283989E+03  0.41800000000E+01 0.  1.
        -11    1    1    2    0    0  0.23260574365E+02  0.65920199933E+02 -0.58221587583E+02  0.90974064104E+02  0.00000000000E+00 0.  1.
         11    1    1    2    0    0  0.61174335926E+01  0.16861729776E+02  0.35415396266E+02  0.39698755868E+02  0.00000000000E+00 0. -1.
</event>
<event>
 7    1  0.2641580E-009  0.1377301E+03  0.7561462E-02  0.1216416E+00
         -1   -1    0    0    0  501 -0.00000000000E+00  0.00000000000E+00  0.32686650352E+03  0.32686650352E+03  0.00000000000E+00 0.  1.
          1   -1    0    0  501    0  0.00000000000E+00 -0.00000000000E+00 -0.64921808442E+02  0.64921808442E+02  0.00000000000E+00 0. -1.
         25    2    1    2    0    0  0.74991020746E+02 -0.58853647063E+02  0.11896789385E+03  0.19720154640E+03  0.12509070777E+03 0.  0.
          5    1    3    3  502    0  0.23290593118E+02 -0.92051560150E+02  0.63362099596E+02  0.11422858451E+03  0.41800000000E+01 0.  1.
         -5    1    3    3    0  502  0.51700427628E+02  0.33197913087E+02  0.55605794258E+02  0.82972961893E+02  0.41800000000E+01 0.  1.
        -11    1    1    2    0    0 -0.46873344704E+02 -0.68445128734E+01  0.18104927363E+02  0.50712386998E+02  0.00000000000E+00 0.  1.
         11    1    1    2    0    0 -0.28117676042E+02  0.65698159936E+02  0.12487187386E+03  0.14387437856E+03  0.00000000000E+00 0. -1.
</event>
<event>
 7    1  0.2641580E-009  0.1059324E+03  0.7561462E-02  0.1268293E+00
          4   -1    0    0  501    0  0.00000000000E+00  0.00000000000E+00  0.64817645182E+02  0.64817645182E+02  0.00000000000E+00 0. -1.
         -4   -1    0    0    0  501 -0.00000000000E+00 -0.00000000000E+00 -0.27227383857E+03  0.27227383857E+03  0.00000000000E+00 0.  1.
         25    2    1    2    0    0 -0.24879578709E+02  0.72244680825E+02 -0.11223967377E+03  0.18461975907E+03  0.12509365982E+03 0.  0.
          5    1    3    3  502    0 -0.50349019699E+02  0.35386437027E+02 -0.12366564927E+03  0.13819511178E+03  0.41800000000E+01 0. -1.
         -5    1    3    3    0  502  0.25469440991E+02  0.36858243798E+02  0.11425975499E+02  0.46424647294E+02  0.41800000000E+01 0. -1.
        -11    1    1    2    0    0  0.31973827035E+02  0.61692770111E+00  0.48243516947E+00  0.31983416933E+02  0.00000000000E+00 0.  1.
         11    1    1    2    0    0 -0.70942483262E+01 -0.72861608526E+02 -0.95698954789E+02  0.12048830775E+03  0.00000000000E+00 0. -1.
</event>
<event>
 7    1  0.2641580E-009  0.1260238E+03  0.7561462E-02  0.1233478E+00
          1   -1    0    0  501    0  0.00000000000E+00  0.00000000000E+00  0.13103883110E+03  0.13103883110E+03  0.00000000000E+00 0. -1.
         -1   -1    0    0    0  501 -0.00000000000E+00 -0.00000000000E+00 -0.13736080151E+03  0.13736080151E+03  0.00000000000E+00 0.  1.
         25    2    1    2    0    0  0.42760259500E+02 -0.48868656389E+02 -0.47132733805E+02  0.14861245630E+03  0.12509029619E+03 0.  0.
          5    1    3    3  502    0  0.70547046370E+02 -0.74090804286E+02 -0.27326811060E+02  0.10597433668E+03  0.41800000000E+01 0. -1.
         -5    1    3    3    0  502 -0.27786786870E+02  0.25222147897E+02 -0.19805922745E+02  0.42638119622E+02  0.41800000000E+01 0. -1.
        -11    1    1    2    0    0 -0.59503338855E+02  0.65365940591E+02  0.37622997448E+02  0.96066869738E+02  0.00000000000E+00 0.  1.
         11    1    1    2    0    0  0.16743079354E+02 -0.16497284202E+02  0.31877659486E+01  0.23720306576E+02  0.00000000000E+00 0. -1.
</event>
<event>
 7    1  0.2641580E-009  0.1842318E+03  0.7561462E-02  0.1163769E+00
          1   -1    0    0  501    0  0.00000000000E+00  0.00000000000E+00  0.17677832536E+04  0.17677832536E+04  0.00000000000E+00 0. -1.
         -1   -1    0    0    0  501 -0.00000000000E+00 -0.00000000000E+00 -0.50812900020E+02  0.50812900020E+02  0.00000000000E+00 0.  1.
         25    2    1    2    0    0 -0.16321628393E+03 -0.63002826360E+01  0.15633682877E+04  0.15768473866E+04  0.12509208088E+03 0.  0.
          5    1    3    3  502    0 -0.16122571156E+03 -0.41472721205E+02  0.11553137822E+04  0.11672536675E+04  0.41800000000E+01 0. -1.
         -5    1    3    3    0  502 -0.19905723650E+01  0.35172438569E+02  0.40805450559E+03  0.40959371912E+03  0.41800000000E+01 0. -1.
        -11    1    1    2    0    0  0.79262554691E+02 -0.12988834896E+02  0.19980625435E+02  0.82767673646E+02  0.00000000000E+00 0.  1.
         11    1    1    2    0    0  0.83953729237E+02  0.19289117532E+02  0.13362144044E+03  0.15898109339E+03  0.00000000000E+00 0. -1.
</event>
<event>
 7    1  0.2641580E-009  0.1054228E+03  0.7561462E-02  0.1269289E+00
          1   -1    0    0  501    0  0.00000000000E+00  0.00000000000E+00  0.23011212497E+03  0.23011212497E+03  0.00000000000E+00 0. -1.
         -1   -1    0    0    0  501 -0.00000000000E+00 -0.00000000000E+00 -0.68351801437E+02  0.68351801437E+02  0.00000000000E+00 0.  1.
         25    2    1    2    0    0  0.47329160918E+02  0.36796824624E+02  0.12453598988E+03  0.18641788824E+03  0.12509340713E+03 0.  0.
          5    1    3    3  502    0 -0.24175767125E+02 -0.10946380577E+02 -0.83095679212E+01  0.28121384796E+02  0.41800000000E+01 0.  1.
         -5    1    3    3    0  502  0.71504928043E+02  0.47743205200E+02  0.13284555780E+03  0.15829650345E+03  0.41800000000E+01 0.  1.
        -11    1    1    2    0    0  0.20189733601E+02 -0.19790851576E+02 -0.75525384961E+01  0.29263355698E+02  0.00000000000E+00 0.  1.
         11    1    1    2    0    0 -0.67518894519E+02 -0.17005973048E+02  0.44776872152E+02  0.82782682464E+02  0.00000000000E+00 0. -1.
</event>
<event>
 7    1  0.2641580E-009  0.3893524E+03  0.7561462E-02  0.1047530E+00
         -2   -1    0    0    0  501 -0.00000000000E+00  0.00000000000E+00  0.20522739321E+03  0.20522739321E+03  0.00000000000E+00 0. -1.
          2   -1    0    0  501    0  0.00000000000E+00 -0.00000000000E+00 -0.78458691743E+03  0.78458691743E+03  0.00000000000E+00 0.  1.
         25    2    1    2    0    0  0.55397637073E+00  0.38459732728E+03 -0.32681450137E+03  0.51997172925E+03  0.12508984718E+03 0.  0.
          5    1    3    3  502    0 -0.41363160232E+02  0.15143600847E+03 -0.74387276453E+02  0.17376626538E+03  0.41800000000E+01 0.  1.
         -5    1    3    3    0  502  0.41917136603E+02  0.23316131881E+03 -0.25242722492E+03  0.34620546387E+03  0.41800000000E+01 0.  1.
        -11    1    1    2    0    0 -0.44639691117E+01 -0.30815952379E+03 -0.24348875086E+03  0.39277091404E+03  0.00000000000E+00 0.  1.
         11    1    1    2    0    0  0.39099927410E+01 -0.76437803494E+02 -0.90562719953E+01  0.77071667353E+02  0.00000000000E+00 0. -1.
</event>
<event>
 7    1  0.2760132E-009  0.2091070E+03  0.7561462E-02  0.1142275E+00
          2   -1    0    0  501    0  0.00000000000E+00  0.00000000000E+00  0.23701241170E+03  0.23701241170E+03  0.00000000000E+00 0. -1.
         -2   -1    0    0    0  501 -0.00000000000E+00 -0.00000000000E+00 -0.24963109077E+03  0.24963109077E+03  0.00000000000E+00 0.  1.
         25    2    1    2    0    0 -0.19397997704E+03  0.69360307423E+01 -0.10424029980E+03  0.25335745117E+03  0.12509043907E+03 0.  0.
          5    1    3    3  502    0 -0.20602113068E+03  0.76686181765E+01 -0.71557062721E+02  0.21826909909E+03  0.41800000000E+01 0.  1.
         -5    1    3    3    0  502  0.12041153646E+02 -0.73258743414E+00 -0.32683237083E+02  0.35088352080E+02  0.41800000000E+01 0.  1.
        -11    1    1    2    0    0  0.15430034357E+03 -0.23802104499E+02  0.10499238965E+03  0.18814499220E+03  0.00000000000E+00 0. -1.
         11    1    1    2    0    0  0.39679633466E+02  0.16866073756E+02 -0.13370768915E+02  0.45141059107E+02  0.00000000000E+00 0.  1.
</event>
<event>
 7    1  0.2641580E-009  0.1102601E+03  0.7561462E-02  0.1260089E+00
         -3   -1    0    0    0  501 -0.00000000000E+00  0.00000000000E+00  0.44771225195E+03  0.44771225195E+03  0.00000000000E+00 0.  1.
          3   -1    0    0  501    0  0.00000000000E+00 -0.00000000000E+00 -0.49853726736E+02  0.49853726736E+02  0.00000000000E+00 0. -1.
         25    2    1    2    0    0 -0.52158917595E+02 -0.66075731607E+02  0.31170017182E+03  0.34625274033E+03  0.12508960023E+03 0.  0.
          5    1    3    3  502    0 -0.13396976714E+02 -0.57017211364E+02  0.38679313512E+02  0.70313605159E+02  0.41800000000E+01 0.  1.
         -5    1    3    3    0  502 -0.38761940881E+02 -0.90585202436E+01  0.27302085831E+03  0.27593913518E+03  0.41800000000E+01 0.  1.
        -11    1    1    2    0    0  0.39385264361E+02  0.87994660425E+02  0.79825516791E+02  0.12516538037E+03  0.00000000000E+00 0.  1.
         11    1    1    2    0    0  0.12773653234E+02 -0.21918928818E+02  0.63328365996E+01  0.26147857978E+02  0.00000000000E+00 0. -1.
</event>
<event>
 7    1  0.2641580E-009  0.1159487E+03  0.7561462E-02  0.1249934E+00
          2   -1    0    0  501    0  0.00000000000E+00  0.00000000000E+00  0.65629442089E+02  0.65629442089E+02  0.00000000000E+00 0. -1.
         -2   -1    0    0    0  501 -0.00000000000E+00 -0.00000000000E+00 -0.22397671532E+03  0.22397671532E+03  0.00000000000E+00 0.  1.
         25    2    1    2    0    0  0.18980275885E+02  0.47758045452E+02 -0.10609861870E+03  0.17188167658E+03  0.12508122191E+03 0.  0.
          5    1    3    3  502    0 -0.39821161700E+02 -0.12782193608E+02 -0.86720649991E+01  0.42916040171E+02  0.41800000000E+01 0.  1.
         -5    1    3    3    0  502  0.58801437585E+02  0.60540239060E+02 -0.97426553702E+02  0.12896563641E+03  0.41800000000E+01 0.  1.
        -11    1    1    2    0    0  0.45217514594E+01 -0.71685455512E+02 -0.32896146013E+02  0.79002577115E+02  0.00000000000E+00 0.  1.
         11    1    1    2    0    0 -0.23502027345E+02  0.23927410060E+02 -0.19352508514E+02  0.38721903715E+02  0.00000000000E+00 0. -1.
</event>
<event>
 7    1  0.2641580E-009  0.1847110E+03  0.7561462E-02  0.1163320E+00
         -3   -1    0    0    0  501 -0.00000000000E+00  0.00000000000E+00  0.93235677536E+02  0.93235677536E+02  0.00000000000E+00 0.  1.
          3   -1    0    0  501    0  0.00000000000E+00 -0.00000000000E+00 -0.47010029668E+03  0.47010029668E+03  0.00000000000E+00 0. -1.
         25    2    1    2    0    0  0.15939047320E+03  0.27506473626E+02 -0.96064404221E+02  0.22591552334E+03  0.12509006711E+03 0.  0.
          5    1    3    3  502    0 -0.16659047693E+02  0.93339102804E+01 -0.32287108685E+02  0.37743549626E+02  0.41800000000E+01 0.  1.
         -5    1    3    3    0  502  0.17604952089E+03  0.18172563346E+02 -0.63777295536E+02  0.18817197371E+03  0.41800000000E+01 0.  1.
        -11    1    1    2    0    0 -0.11002340226E+03  0.10520000419E+02 -0.23622909210E+03  0.26080644817E+03  0.00000000000E+00 0. -1.
         11    1    1    2    0    0 -0.49367070935E+02 -0.38026474045E+02 -0.44571122819E+02  0.76614002704E+02  0.00000000000E+00 0.  1.
</event>
<event>
 7    1  0.2641580E-009  0.7909456E+02  0.7561462E-02  0.1331641E+00
         -3   -1    0    0    0  501 -0.00000000000E+00  0.00000000000E+00  0.25793870049E+03  0.25793870049E+03  0.00000000000E+00 0.  1.
          3   -1    0    0  501    0  0.00000000000E+00 -0.00000000000E+00 -0.61081560110E+02  0.61081560110E+02  0.00000000000E+00 0. -1.
         25    2    1    2    0    0  0.17933874829E+02 -0.20073419759E+01  0.18372562234E+03  0.22299419863E+03  0.12508259283E+03 0.  0.
          5    1    3    3  502    0 -0.27822059497E+02  0.43658893506E+02  0.12577090900E+03  0.13607336230E+03  0.41800000000E+01 0.  1.
         -5    1    3    3    0  502  0.45755934326E+02 -0.45666235482E+02  0.57954713339E+02  0.86920836325E+02  0.41800000000E+01 0.  1.
        -11    1    1    2    0    0 -0.28433079781E+02 -0.49695473473E+01  0.49629321091E+02  0.57412593903E+02  0.00000000000E+00 0.  1.
         11    1    1    2    0    0  0.10499204952E+02  0.69768893231E+01 -0.36497803050E+02  0.38613468074E+02  0.00000000000E+00 0. -1.
</event>
<event>
 7    1  0.2641580E-009  0.9385512E+02  0.7561462E-02  0.1293776E+00
          2   -1    0    0  501    0  0.00000000000E+00  0.00000000000E+00  0.14793141990E+03  0.14793141990E+03  0.00000000000E+00 0. -1.
         -2   -1    0    0    0  501 -0.00000000000E+00 -0.00000000000E+00 -0.88862820424E+02  0.88862820424E+02  0.00000000000E+00 0.  1.
         25    2    1    2    0    0 -0.27907856300E+02 -0.11006543533E+02  0.88408797951E+01  0.12894848939E+03  0.12509819869E+03 0.  0.
          5    1    3    3  502    0  0.34561202605E+02  0.36130789244E+02  0.94783637711E+00  0.50182481513E+02  0.41800000000E+01 0. -1.
         -5    1    3    3    0  502 -0.62469058905E+02 -0.47137332778E+02  0.78930434180E+01  0.78766007874E+02  0.41800000000E+01 0. -1.
        -11    1    1    2    0    0  0.39118878848E+02 -0.51977745872E+01 -0.13055173041E+02  0.41566105015E+02  0.00000000000E+00 0.  1.
         11    1    1    2    0    0 -0.11211022548E+02  0.16204318121E+02  0.63282892719E+02  0.66279645920E+02  0.00000000000E+00 0. -1.
</event>
<event>
 7    1  0.2641580E-009  0.9950140E+02  0.7561462E-02  0.1281348E+00
          1   -1    0    0  501    0  0.00000000000E+00  0.00000000000E+00  0.13377297982E+03  0.13377297982E+03  0.00000000000E+00 0. -1.
         -1   -1    0    0    0  501 -0.00000000000E+00 -0.00000000000E+00 -0.89269273536E+02  0.89269273536E+02  0.00000000000E+00 0.  1.
         25    2    1    2    0    0 -0.70665387235E+01 -0.61025302221E+01  0.21990800729E+02  0.12734522326E+03  0.12508410661E+03 0.  0.
          5    1    3    3  502    0  0.29004069701E+01 -0.62022029017E+02  0.31261563259E+02  0.69641239086E+02  0.41800000000E+01 0. -1.
         -5    1    3    3    0  502 -0.99669456936E+01  0.55919498795E+02 -0.92707625299E+01  0.57703984177E+02  0.41800000000E+01 0. -1.
        -11    1    1    2    0    0  0.18157839798E+02 -0.33818518550E+02 -0.13611925486E+02  0.40726942661E+02  0.00000000000E+00 0.  1.
         11    1    1    2    0    0 -0.11091301074E+02  0.39921048772E+02  0.36124831039E+02  0.54970087431E+02  0.00000000000E+00 0. -1.
</event>
<event>
 7    1  0.2641580E-009  0.8980223E+02  0.7561462E-02  0.1303331E+00
         -1   -1    0    0    0  501 -0.00000000000E+00  0.00000000000E+00  0.24827481566E+02  0.24827481566E+02  0.00000000000E+00 0.  1.
          1   -1    0    0  501    0  0.00000000000E+00 -0.00000000000E+00 -0.72544097065E+03  0.72544097065E+03  0.00000000000E+00 0. -1.
         25    2    1    2    0    0 -0.18315541638E+01  0.44843496727E+02 -0.56359843289E+03  0.57905569829E+03  0.12509202365E+03 0.  0.
          5    1    3    3  502    0  0.24535122800E+02  0.54514286597E+02 -0.11606884789E+03  0.13062629729E+03  0.41800000000E+01 0. -1.
         -5    1    3    3    0  502 -0.26366676964E+02 -0.96707898698E+01 -0.44752958500E+03  0.44842940100E+03  0.41800000000E+01 0. -1.
        -11    1    1    2    0    0  0.40305137848E+02 -0.29106528400E+02 -0.34285294676E+02  0.60391850141E+02  0.00000000000E+00 0.  1.
         11    1    1    2    0    0 -0.38473583684E+02 -0.15736968327E+02 -0.10272976152E+03  0.11082090379E+03  0.00000000000E+00 0. -1.
</event>
<event>
 7    1  0.2641580E-009  0.1983233E+03  0.7561462E-02  0.1151161E+00
         -2   -1    0    0    0  501 -0.00000000000E+00  0.00000000000E+00  0.60455540516E+03  0.60455540516E+03  0.00000000000E+00 0. -1.
          2   -1    0    0  501    0  0.00000000000E+00 -0.00000000000E+00 -0.20528648431E+03  0.20528648431E+03  0.00000000000E+00 0.  1.
         25    2    1    2    0    0 -0.13271947358E+03 -0.11921784546E+03  0.52838511634E+03  0.57155301584E+03  0.12511860534E+03 0.  0.
          5    1    3    3  502    0 -0.15621257356E+03 -0.90614557225E+02  0.44045627169E+03  0.47605941414E+03  0.41800000000E+01 0.  1.
         -5    1    3    3    0  502  0.23493099975E+02 -0.28603288239E+02  0.87928844644E+02  0.95493601696E+02  0.41800000000E+01 0.  1.
        -11    1    1    2    0    0  0.62339485308E+02  0.63559509312E+02 -0.11808425313E+03  0.14788479804E+03  0.00000000000E+00 0.  1.
         11    1    1    2    0    0  0.70379988272E+02  0.55658336152E+02 -0.11031942360E+02  0.90404075597E+02  0.00000000000E+00 0. -1.
</event>
<event>
 7    1  0.2641580E-009  0.2710125E+03  0.7561462E-02  0.1100701E+00
          2   -1    0    0  501    0  0.00000000000E+00  0.00000000000E+00  0.17322731583E+03  0.17322731583E+03  0.00000000000E+00 0. -1.
         -2   -1    0    0    0  501 -0.00000000000E+00 -0.00000000000E+00 -0.45377162823E+03  0.45377162823E+03  0.00000000000E+00 0.  1.
         25    2    1    2    0    0 -0.23359079664E+03 -0.93890786340E+02 -0.21349146376E+03  0.35299723647E+03  0.12509318056E+03 0.  0.
          5    1    3    3  502    0 -0.18338845000E+02 -0.54309318035E+02 -0.20047350893E+02  0.60870222106E+02  0.41800000000E+01 0. -1.
         -5    1    3    3    0  502 -0.21525195164E+03 -0.39581468305E+02 -0.19344411287E+03  0.29212701437E+03  0.41800000000E+01 0. -1.
        -11    1    1    2    0    0  0.64310677440E+02  0.69385231403E+02 -0.22249479287E+02  0.97186485163E+02  0.00000000000E+00 0.  1.
         11    1    1    2    0    0  0.16928011920E+03  0.24505554937E+02 -0.44803369351E+02  0.17681522243E+03  0.00000000000E+00 0. -1.
</event>
<event>
 7    1  0.2641580E-009  0.1068521E+03  0.7561462E-02  0.1266513E+00
         -2   -1    0    0    0  501 -0.00000000000E+00  0.00000000000E+00  0.20570328658E+03  0.20570328658E+03  0.00000000000E+00 0.  1.
          2   -1    0    0  501    0  0.00000000000E+00 -0.00000000000E+00 -0.61332580296E+02  0.61332580296E+02  0.00000000000E+00 0. -1.
         25    2    1    2    0    0 -0.30504205637E+02 -0.29335709594E+01  0.94416882512E+02  0.15969174803E+03  0.12509114391E+03 0.  0.
          5    1    3    3  502    0  0.48952178032E+02 -0.22198033326E+01  0.34132625381E+02  0.59864445009E+02  0.41800000000E+01 0. -1.
         -5    1    3    3    0  502 -0.79456383669E+02 -0.71376762676E+00  0.60284257131E+02  0.99827303018E+02  0.41800000000E+01 0. -1.
        -11    1    1    2    0    0  0.46001167401E+02 -0.25482077087E+02  0.62464383496E+01  0.52957168041E+02  0.00000000000E+00 0. -1.
         11    1    1    2    0    0 -0.15496961764E+02  0.28415648046E+02  0.43707385425E+02  0.54386950811E+02  0.00000000000E+00 0.  1.
</event>
<event>
 7    1  0.2641580E-009  0.1003480E+03  0.7561462E-02  0.1279566E+00
          1   -1    0    0  501    0  0.00000000000E+00  0.00000000000E+00  0.41269270639E+02  0.41269270639E+02  0.00000000000E+00 0. -1.
         -1   -1    0    0    0  501 -0.00000000000E+00 -0.00000000000E+00 -0.37493664796E+03  0.37493664796E+03  0.00000000000E+00 0.  1.
         25    2    1    2    0    0  0.37977821317E+02  0.48352648151E+02 -0.18642444686E+03  0.23277054914E+03  0.12509100952E+03 0.  0.
          5    1    3    3  502    0 -0.34204910438E+02  0.50209985693E+02 -0.51805214059E+02  0.79951680189E+02  0.41800000000E+01 0. -1.
         -5    1    3    3    0  502  0.72182731755E+02 -0.18573375422E+01 -0.13461923280E+03  0.15281886895E+03  0.41800000000E+01 0. -1.
        -11    1    1    2    0    0 -0.69209672198E+01 -0.31268737916E+02 -0.14436343199E+03  0.14787303424E+03  0.00000000000E+00 0.  1.
         11    1    1    2    0    0 -0.31056854098E+02 -0.17083910235E+02 -0.28794984703E+01  0.35562335227E+02  0.00000000000E+00 0. -1.
</event>
<event>
 7    1  0.2641580E-009  0.9741280E+02  0.7561462E-02  0.1285832E+00
         -2   -1    0    0    0  501 -0.00000000000E+00  0.00000000000E+00  0.48798831818E+02  0.48798831818E+02  0.00000000000E+00 0.  1.
          2   -1    0    0  501    0  0.00000000000E+00 -0.00000000000E+00 -0.28691286622E+03  0.28691286622E+03  0.00000000000E+00 0. -1.
         25    2    1    2    0    0  0.39638615492E+02 -0.16851192555E+02 -0.10770596482E+03  0.17059349318E+03  0.12508550087E+03 0.  0.
          5    1    3    3  502    0 -0.18159462575E+01 -0.54186985234E+02 -0.10038992347E+03  0.11417152081E+03  0.41800000000E+01 0. -1.
         -5    1    3    3    0  502  0.41454561749E+02  0.37335792679E+02 -0.73160413557E+01  0.56421972368E+02  0.41800000000E+01 0. -1.
        -11    1    1    2    0    0 -0.56117971831E+02 -0.58802401082E+01 -0.36738772885E+02  0.67331578172E+02  0.00000000000E+00 0.  1.
         11    1    1    2    0    0  0.16479356339E+02  0.22731432663E+02 -0.93669296689E+02  0.97786626685E+02  0.00000000000E+00 0. -1.
</event>
<event>
 7    1  0.2641580E-009  0.1335527E+03  0.7561462E-02  0.1222277E+00
         -1   -1    0    0    0  501 -0.00000000000E+00  0.00000000000E+00  0.91069032238E+02  0.91069032238E+02  0.00000000000E+00 0. -1.
          1   -1    0    0  501    0  0.00000000000E+00 -0.00000000000E+00 -0.24004988810E+03  0.24004988810E+03  0.00000000000E+00 0.  1.
         25    2    1    2    0    0  0.10080761122E+03 -0.50632779919E+01 -0.79538016338E+02  0.17933564986E+03  0.12508864059E+03 0.  0.
          5    1    3    3  502    0  0.56055210700E+02  0.50084833680E+02 -0.77664685885E+02  0.10816632121E+03  0.41800000000E+01 0. -1.
         -5    1    3    3    0  502  0.44752400521E+02 -0.55148111672E+02 -0.18733304529E+01  0.71169328649E+02  0.41800000000E+01 0. -1.
        -11    1    1    2    0    0 -0.29026668860E+02 -0.29166521479E+02 -0.58480303576E+02  0.71506498912E+02  0.00000000000E+00 0.  1.
         11    1    1    2    0    0 -0.71780942362E+02  0.34229799470E+02 -0.10962535948E+02  0.80276771563E+02  0.00000000000E+00 0. -1.
</event>
<event>
 7    1  0.2641580E-009  0.1608660E+03  0.7561462E-02  0.1187723E+00
          2   -1    0    0  501    0  0.00000000000E+00  0.00000000000E+00  0.57612560988E+03  0.57612560988E+03  0.00000000000E+00 0. -1.
         -2   -1    0    0    0  501 -0.00000000000E+00 -0.00000000000E+00 -0.57977095769E+02  0.57977095769E+02  0.00000000000E+00 0.  1.
         25    2    1    2    0    0  0.79753035707E+02 -0.12200149605E+03  0.24770869665E+03  0.31344715844E+03  0.12507841938E+03 0.  0.
          5    1    3    3  502    0 -0.21807809103E+02 -0.32694846988E+02  0.12387906342E+03  0.13003087446E+03  0.41800000000E+01 0. -1.
         -5    1    3    3    0  502  0.10156084481E+03 -0.89306649058E+02  0.12382963323E+03  0.18341628398E+03  0.41800000000E+01 0. -1.
        -11    1    1    2    0    0 -0.70844693557E+02  0.95249852815E+02  0.12452175747E+03  0.17203828978E+03  0.00000000000E+00 0.  1.
         11    1    1    2    0    0 -0.89083421502E+01  0.26751643232E+02  0.14591805999E+03  0.14861725743E+03  0.00000000000E+00 0. -1.
</event>
<event>
 7    1  0.2641580E-009  0.1960641E+03  0.7561462E-02  0.1153103E+00
          2   -1    0    0  501    0  0.00000000000E+00  0.00000000000E+00  0.11633959601E+03  0.11633959601E+03  0.00000000000E+00 0. -1.
         -2   -1    0    0    0  501 -0.00000000000E+00 -0.00000000000E+00 -0.40973672798E+03  0.40973672798E+03  0.00000000000E+00 0.  1.
         25    2    1    2    0    0  0.71136560406E+02  0.16377663542E+03 -0.21229271142E+03  0.30430062271E+03  0.12508987619E+03 0.  0.
          5    1    3    3  502    0  0.71736610744E+02  0.18149379135E+03 -0.20865386176E+03  0.28572721965E+03  0.41800000000E+01 0.  1.
         -5    1    3    3    0  502 -0.60005033753E+00 -0.17717155929E+02 -0.36388496555E+01  0.18573403065E+02  0.41800000000E+01 0.  1.
        -11    1    1    2    0    0 -0.47402062673E+02 -0.10007590578E+03 -0.10210816622E+03  0.15062609360E+03  0.00000000000E+00 0.  1.
         11    1    1    2    0    0 -0.23734497734E+02 -0.63700729646E+02  0.21003745679E+02  0.71149607677E+02  0.00000000000E+00 0. -1.
</event>
<event>
 6    1  0.2641580E-009  0.8571556E+02  0.7561462E-02  0.1313572E+00
          3   -1    0    0  501    0  0.00000000000E+00  0.00000000000E+00  0.46804543037E+02  0.46804543037E+02  0.00000000000E+00 0. -1.
         -3   -1    0    0    0  501 -0.00000000000E+00 -0.00000000000E+00 -0.29069393047E+03  0.29069393047E+03  0.00000000000E+00 0.  1.
          5    1    1    2  502    0 -0.18106774078E+02  0.42045414694E+02 -0.19557193278E+01  0.46010535776E+02  0.41800000000E+01 0.  1.
         -5    1    1    2    0  502  0.30384015889E+00 -0.66120474505E+02 -0.91326679047E+02  0.11282749742E+03  0.41800000000E+01 0.  1.
        -11    1    1    2    0    0 -0.18129395807E+02  0.90347924727E+01  0.27426902208E+01  0.20440763611E+02  0.00000000000E+00 0. -1.
         11    1    1    2    0    0  0.35932329726E+02  0.15040267339E+02 -0.15334967928E+03  0.15821967670E+03  0.00000000000E+00 0.  1.
</event>
<event>
 7    1  0.2641580E-009  0.1375064E+03  0.7561462E-02  0.1216724E+00
          1   -1    0    0  501    0  0.00000000000E+00  0.00000000000E+00  0.42862829992E+03  0.42862829992E+03  0.00000000000E+00 0. -1.
         -1   -1    0    0    0  501 -0.00000000000E+00 -0.00000000000E+00 -0.83348235873E+02  0.83348235873E+02  0.00000000000E+00 0.  1.
         25    2    1    2    0    0 -0.19357854000E+02 -0.12082265499E+03  0.30857261012E+03  0.35473482017E+03  0.12508755515E+03 0.  0.
          5    1    3    3  502    0 -0.22202765815E+02 -0.94991614804E+02  0.31314916122E+03  0.32801865689E+03  0.41800000000E+01 0.  1.
         -5    1    3    3    0  502  0.28449118150E+01 -0.25831040191E+02 -0.45765511006E+01  0.26716163283E+02  0.41800000000E+01 0.  1.
        -11    1    1    2    0    0 -0.49537415426E+01 -0.13585799819E+02  0.11200329194E+02  0.18291005605E+02  0.00000000000E+00 0.  1.
         11    1    1    2    0    0  0.24311595542E+02  0.13440845481E+03  0.25507124736E+02  0.13895071002E+03  0.00000000000E+00 0. -1.
</event>
<event>
 7    1  0.2641580E-009  0.2136711E+03  0.7561462E-02  0.1138691E+00
          2   -1    0    0  501    0  0.00000000000E+00  0.00000000000E+00  0.10331810454E+04  0.10331810454E+04  0.00000000000E+00 0.  1.
         -2   -1    0    0    0  501 -0.00000000000E+00 -0.00000000000E+00 -0.50122007089E+02  0.50122007089E+02  0.00000000000E+00 0. -1.
         25    2    1    2    0    0  0.15688981655E+03  0.12154618187E+03  0.44739289397E+03  0.50516808185E+03  0.12508597237E+03 0.  0.
          5    1    3    3  502    0  0.78602134592E+02  0.19361186331E+02  0.72440046788E+02  0.10871147077E+03  0.41800000000E+01 0.  1.
         -5    1    3    3    0  502  0.78287681958E+02  0.10218499554E+03  0.37495284718E+03  0.39645661108E+03  0.41800000000E+01 0.  1.
        -11    1    1    2    0    0 -0.62640644023E+02  0.12972580746E+01  0.15312942485E+03  0.16545136420E+03  0.00000000000E+00 0.  1.
         11    1    1    2    0    0 -0.94249172527E+02 -0.12284343994E+03  0.38253671950E+03  0.41268360644E+03  0.00000000000E+00 0. -1.
</event>
<event>
 7    1  0.2641580E-009  0.9750315E+02  0.7561462E-02  0.1285636E+00
         -2   -1    0    0    0  501 -0.00000000000E+00  0.00000000000E+00  0.37831181857E+02  0.37831181857E+02  0.00000000000E+00 0.  1.
          2   -1    0    0  501    0  0.00000000000E+00 -0.00000000000E+00 -0.34354447377E+03  0.34354447377E+03  0.00000000000E+00 0. -1.
         25    2    1    2    0    0  0.15405289983E+02 -0.16020417458E+02 -0.20865233237E+03  0.24428542911E+03  0.12508236620E+03 0.  0.
          5    1    3    3  502    0  0.60658201967E+02 -0.29227535995E+02 -0.67591518373E+02  0.95497393064E+02  0.41800000000E+01 0.  1.
         -5    1    3    3    0  502 -0.45252911983E+02  0.13207118538E+02 -0.14106081400E+03  0.14878803604E+03  0.41800000000E+01 0.  1.
        -11    1    1    2    0    0 -0.33412109312E+02 -0.20711148173E+02 -0.94963929746E+01  0.40441342545E+02  0.00000000000E+00 0.  1.
         11    1    1    2    0    0  0.18006819328E+02  0.36731565630E+02 -0.87564566571E+02  0.96648883981E+02  0.00000000000E+00 0. -1.
</event>
<event>
 7    1  0.2930314E-009  0.9929817E+02  0.7561462E-02  0.1281779E+00
         -1   -1    0    0    0  501 -0.00000000000E+00  0.00000000000E+00  0.12161307227E+02  0.12161307227E+02  0.00000000000E+00 0.  1.
          1   -1    0    0  501    0  0.00000000000E+00 -0.00000000000E+00 -0.11499125475E+04  0.11499125475E+04  0.00000000000E+00 0. -1.
         25    2    1    2    0    0 -0.46356441996E+02  0.51114390549E+01 -0.63986077550E+03  0.65363892780E+03  0.12508792661E+03 0.  0.
          5    1    3    3  502    0 -0.67429636370E+01 -0.37745618168E+02 -0.50700217825E+03  0.50846718714E+03  0.41800000000E+01 0.  1.
         -5    1    3    3    0  502 -0.39613478359E+02  0.42857057223E+02 -0.13285859726E+03  0.14517174066E+03  0.41800000000E+01 0.  1.
        -11    1    1    2    0    0  0.29443160589E+02 -0.47495806438E+02 -0.23041703852E+03  0.23709652671E+03  0.00000000000E+00 0.  1.
         11    1    1    2    0    0  0.16913281407E+02  0.42384367383E+02 -0.26747342621E+03  0.27133840019E+03  0.00000000000E+00 0. -1.
</event>
<event>
 7    1  0.2641580E-009  0.2952457E+03  0.7561462E-02  0.1087642E+00
         -2   -1    0    0    0  501 -0.00000000000E+00  0.00000000000E+00  0.25440883552E+03  0.25440883552E+03  0.00000000000E+00 0.  1.
          2   -1    0    0  501    0  0.00000000000E+00 -0.00000000000E+00 -0.35567042269E+03  0.35567042269E+03  0.00000000000E+00 0. -1.
         25    2    1    2    0    0  0.14574908081E+03 -0.23708278236E+03 -0.18648098758E+02  0.30568749117E+03  0.12508417333E+03 0.  0.
          5    1    3    3  502    0  0.14683880013E+03 -0.13643691183E+03  0.10672798944E+02  0.20076863592E+03  0.41800000000E+01 0. -1.
         -5    1    3    3    0  502 -0.10897193180E+01 -0.10064587054E+03 -0.29320897702E+02  0.10491885525E+03  0.41800000000E+01 0. -1.
        -11    1    1    2    0    0 -0.80459324002E+02  0.59518459349E+02 -0.59368678531E+01  0.10025665176E+03  0.00000000000E+00 0.  1.
         11    1    1    2    0    0 -0.65289756810E+02  0.17756432301E+03 -0.76676620556E+02  0.20413511528E+03  0.00000000000E+00 0. -1.
</event>
<event>
 7    1  0.2641580E-009  0.1785103E+03  0.7561462E-02  0.1169253E+00
         -2   -1    0    0    0  501 -0.00000000000E+00  0.00000000000E+00  0.55116324597E+03  0.55116324597E+03  0.00000000000E+00 0.  1.
          2   -1    0    0  501    0  0.00000000000E+00 -0.00000000000E+00 -0.75605754403E+02  0.75605754403E+02  0.00000000000E+00 0. -1.
         25    2    1    2    0    0 -0.16536477788E+03 -0.40749991011E+02  0.19410747189E+03  0.28692298703E+03  0.12506405683E+03 0.  0.
          5    1    3    3  502    0 -0.10000757656E+03 -0.34884572491E+02  0.30045999308E+02  0.11017569261E+03  0.41800000000E+01 0. -1.
         -5    1    3    3    0  502 -0.65357201319E+02 -0.58654185195E+01  0.16406147258E+03  0.17674729442E+03  0.41800000000E+01 0.  1.
        -11    1    1    2    0    0  0.16134291434E+03  0.18204411753E+02  0.21406687703E+03  0.26867743571E+03  0.00000000000E+00 0. -1.
         11    1    1    2    0    0  0.40218635363E+01  0.22545579258E+02  0.67383142644E+02  0.71168577638E+02  0.00000000000E+00 0.  1.
</event>
<event>
 7    1  0.2641580E-009  0.1073614E+03  0.7561462E-02  0.1265536E+00
          1   -1    0    0  501    0  0.00000000000E+00  0.00000000000E+00  0.37784595734E+02  0.37784595734E+02  0.00000000000E+00 0. -1.
         -1   -1    0    0    0  501 -0.00000000000E+00 -0.00000000000E+00 -0.39104519941E+03  0.39104519941E+03  0.00000000000E+00 0.  1.
         25    2    1    2    0    0 -0.16172712995E+02  0.52032438489E+02 -0.19387771028E+03  0.23707652262E+03  0.12509108575E+03 0.  0.
          5    1    3    3  502    0  0.46909928977E+02  0.20526949509E+02 -0.32173630749E+02  0.60617753244E+02  0.41800000000E+01 0. -1.
         -5    1    3    3    0  502 -0.63082641972E+02  0.31505488980E+02 -0.16170407953E+03  0.17645876938E+03  0.41800000000E+01 0. -1.
        -11    1    1    2    0    0 -0.25020462365E+02 -0.44185617411E+02 -0.38264793833E+02  0.63581339794E+02  0.00000000000E+00 0. -1.
         11    1    1    2    0    0  0.41193175360E+02 -0.78468210786E+01 -0.12111809957E+03  0.12817193273E+03  0.00000000000E+00 0.  1.
</event>
<event>
 7    1  0.2641580E-009  0.9573291E+02  0.7561462E-02  0.1289534E+00
          1   -1    0    0  501    0  0.00000000000E+00  0.00000000000E+00  0.42429498245E+02  0.42429498245E+02  0.00000000000E+00 0. -1.
         -1   -1    0    0    0  501 -0.00000000000E+00 -0.00000000000E+00 -0.38077603373E+03  0.38077603373E+03  0.00000000000E+00 0.  1.
         25    2    1    2    0    0  0.31514028045E+02 -0.57251519558E+02 -0.19401841423E+03  0.23991846941E+03  0.12508739524E+03 0.  0.
          5    1    3    3  502    0 -0.26664229335E+02  0.78662053876E+01 -0.12615118382E+03  0.12924570357E+03  0.41800000000E+01 0. -1.
         -5    1    3    3    0  502  0.58178257381E+02 -0.65117724946E+02 -0.67867230407E+02  0.11067276583E+03  0.41800000000E+01 0. -1.
        -11    1    1    2    0    0 -0.35663415526E+02  0.25334633987E+02 -0.14462897709E+03  0.15110017836E+03  0.00000000000E+00 0.  1.
         11    1    1    2    0    0  0.41493874805E+01  0.31916885571E+02  0.30085582787E+00  0.32186884211E+02  0.00000000000E+00 0. -1.
</event>
<event>
 7    1  0.2641580E-009  0.5304146E+02  0.7561462E-02  0.1429595E+00
         -1   -1    0    0    0  501 -0.00000000000E+00  0.00000000000E+00  0.15951019549E+03  0.15951019549E+03  0.00000000000E+00 0.  1.
          1   -1    0    0  501    0  0.00000000000E+00 -0.00000000000E+00 -0.85901446578E+02  0.85901446578E+02  0.00000000000E+00 0. -1.
         25    2    1    2    0    0 -0.90375685814E+01  0.12424804874E+02 -0.21308114223E+01  0.12605009293E+03  0.12509209467E+03 0.  0.
          5    1    3    3  502    0  0.12272923496E+01  0.86354214819E+01 -0.63165451505E+02  0.63901669888E+02  0.41800000000E+01 0.  1.
         -5    1    3    3    0  502 -0.10264860931E+02  0.37893833917E+01  0.61034640083E+02  0.62148423041E+02  0.41800000000E+01 0.  1.
        -11    1    1    2    0    0  0.44759854346E+02  0.48422578156E+01  0.16268887615E+02  0.47870332421E+02  0.00000000000E+00 0. -1.
         11    1    1    2    0    0 -0.35722285765E+02 -0.17267062689E+02  0.59470672722E+02  0.71491216720E+02  0.00000000000E+00 0.  1.
</event>
<event>
 7    1  0.2641580E-009  0.1060418E+03  0.7561462E-02  0.1268081E+00
          1   -1    0    0  501    0  0.00000000000E+00  0.00000000000E+00  0.40648857464E+03  0.40648857464E+03  0.00000000000E+00 0. -1.
         -1   -1    0    0    0  501 -0.00000000000E+00 -0.00000000000E+00 -0.33214183748E+02  0.33214183748E+02  0.00000000000E+00 0.  1.
         25    2    1    2    0    0  0.28522348847E+02 -0.10838440903E+02  0.17127976411E+03  0.21427840319E+03  0.12508988886E+03 0.  0.
          5    1    3    3  502    0  0.62568834874E+02  0.34246460805E+02  0.84699265989E+02  0.11081117829E+03  0.41800000000E+01 0. -1.
         -5    1    3    3    0  502 -0.34046486027E+02 -0.45084901707E+02  0.86580498122E+02  0.10346722490E+03  0.41800000000E+01 0. -1.
        -11    1    1    2    0    0 -0.55397998756E+02  0.11370166596E+01  0.64681930932E+02  0.85170319138E+02  0.00000000000E+00 0.  1.
         11    1    1    2    0    0  0.26875649909E+02  0.97014242431E+01  0.13731269585E+03  0.14025403606E+03  0.00000000000E+00 0. -1.
</event>
<event>
 7    1  0.2641580E-009  0.1198454E+03  0.7561462E-02  0.1243352E+00
          4   -1    0    0  501    0  0.00000000000E+00  0.00000000000E+00  0.10614050023E+02  0.10614050023E+02  0.00000000000E+00 0. -1.
         -4   -1    0    0    0  501 -0.00000000000E+00 -0.00000000000E+00 -0.14013023118E+04  0.14013023118E+04  0.00000000000E+00 0.  1.
         25    2    1    2    0    0 -0.32791909939E+01  0.46924634484E+02 -0.88170741846E+03  0.89177826706E+03  0.12509129237E+03 0.  0.
          5    1    3    3  502    0  0.53999249127E+02 -0.73083508698E+01 -0.35888088896E+03  0.36301831326E+03  0.41800000000E+01 0.  1.
         -5    1    3    3    0  502 -0.57278440121E+02  0.54232985353E+02 -0.52282652949E+03  0.52875995380E+03  0.41800000000E+01 0.  1.
        -11    1    1    2    0    0  0.41874088891E+02  0.40967246746E+01 -0.23949929276E+03  0.24316688448E+03  0.00000000000E+00 0. -1.
         11    1    1    2    0    0 -0.38594897897E+02 -0.51021359158E+02 -0.26948155056E+03  0.27697121028E+03  0.00000000000E+00 0.  1.
</event>
<event>
 7    1  0.2641580E-009  0.3595921E+03  0.7561462E-02  0.1058745E+00
         -2   -1    0    0    0  501 -0.00000000000E+00  0.00000000000E+00  0.44327408440E+03  0.44327408440E+03  0.00000000000E+00 0.  1.
          2   -1    0    0  501    0  0.00000000000E+00 -0.00000000000E+00 -0.35056615947E+03  0.35056615947E+03  0.00000000000E+00 0. -1.
         25    2    1    2    0    0 -0.14064808232E+03 -0.31872567925E+03 -0.10317915790E+03  0.38426748906E+03  0.12509045868E+03 0.  0.
          5    1    3    3  502    0 -0.53311191701E+02 -0.17343956160E+02 -0.12046021758E+02  0.57493260614E+02  0.41800000000E+01 0. -1.
         -5    1    3    3    0  502 -0.87336890616E+02 -0.30138172309E+03 -0.91133136142E+02  0.32677422845E+03  0.41800000000E+01 0. -1.
        -11    1    1    2    0    0  0.12025765537E+03  0.28986459569E+03  0.14041641262E+03  0.34380249627E+03  0.00000000000E+00 0. -1.
         11    1    1    2    0    0  0.20390426950E+02  0.28861083564E+02  0.55470670199E+02  0.65770258537E+02  0.00000000000E+00 0.  1.
</event>
<event>
 7    1  0.2641580E-009  0.1168829E+03  0.7561462E-02  0.1248330E+00
         -1   -1    0    0    0  501 -0.00000000000E+00  0.00000000000E+00  0.16599853569E+02  0.16599853569E+02  0.00000000000E+00 0.  1.
          1   -1    0    0  501    0  0.00000000000E+00 -0.00000000000E+00 -0.13197254684E+04  0.13197254684E+04  0.00000000000E+00 0. -1.
         25    2    1    2    0    0  0.70828071982E+02 -0.36762331368E+02 -0.99447175676E+03  0.10054783838E+04  0.12507845743E+03 0.  0.
          5    1    3    3  502    0 -0.25601136447E+02  0.15780113321E+02 -0.10687125556E+03  0.11110071030E+03  0.41800000000E+01 0. -1.
         -5    1    3    3    0  502  0.96429208429E+02 -0.52542444689E+02 -0.88760050120E+03  0.89437767350E+03  0.41800000000E+01 0. -1.
        -11    1    1    2    0    0 -0.53320674605E+02  0.59187504398E+00 -0.65815215501E+02  0.84705886737E+02  0.00000000000E+00 0.  1.
         11    1    1    2    0    0 -0.17507397377E+02  0.36170456324E+02 -0.24283864257E+03  0.24614105143E+03  0.00000000000E+00 0. -1.
</event>
<event>
 7    1  0.2641580E-009  0.9749596E+02  0.7561462E-02  0.1285651E+00
          3   -1    0    0  501    0  0.00000000000E+00  0.00000000000E+00  0.24175156151E+03  0.24175156151E+03  0.00000000000E+00 0. -1.
         -3   -1    0    0    0  501 -0.00000000000E+00 -0.00000000000E+00 -0.53257133863E+02  0.53257133863E+02  0.00000000000E+00 0.  1.
         25    2    1    2    0    0  0.55564942583E+01  0.31871905984E+02  0.12636132862E+03  0.18072384686E+03  0.12508889013E+03 0.  0.
          5    1    3    3  502    0 -0.18723078582E+02  0.59258109833E+02  0.12955356789E+03  0.14374865775E+03  0.41800000000E+01 0. -1.
         -5    1    3    3    0  502  0.24279572840E+02 -0.27386203849E+02 -0.31922392629E+01  0.36975189115E+02  0.41800000000E+01 0. -1.
        -11    1    1    2    0    0  0.33358865088E+02 -0.43900489902E+02  0.33896489288E+02  0.64722784857E+02  0.00000000000E+00 0.  1.
         11    1    1    2    0    0 -0.38915359346E+02  0.12028583918E+02  0.28236609736E+02  0.49562063652E+02  0.00000000000E+00 0. -1.
</event>
<event>
 7    1  0.2641580E-009  0.7304437E+02  0.7561462E-02  0.1350036E+00
         -2   -1    0    0    0  501 -0.00000000000E+00  0.00000000000E+00  0.37446489411E+02  0.37446489411E+02  0.00000000000E+00 0.  1.
          2   -1    0    0  501    0  0.00000000000E+00 -0.00000000000E+00 -0.36514828197E+03  0.36514828197E+03  0.00000000000E+00 0. -1.
         25    2    1    2    0    0  0.25716885817E+02  0.34488450562E+02 -0.18602848656E+03  0.22826453530E+03  0.12508912354E+03 0.  0.
          5    1    3    3  502    0 -0.83279199603E+01  0.23783464952E+02 -0.19036550279E+03  0.19207161297E+03  0.41800000000E+01 0.  1.
         -5    1    3    3    0  502  0.34044805777E+02  0.10704985609E+02  0.43370162309E+01  0.36192922334E+02  0.41800000000E+01 0.  1.
        -11    1    1    2    0    0 -0.45733789126E+02 -0.11757577596E+01 -0.12296115929E+03  0.13119606918E+03  0.00000000000E+00 0.  1.
         11    1    1    2    0    0  0.20016903309E+02 -0.33312692802E+02 -0.18712146713E+02  0.43134166903E+02  0.00000000000E+00 0. -1.
</event>
<event>
 7    1  0.2641580E-009  0.1784189E+03  0.7561462E-02  0.1169342E+00
         -1   -1    0    0    0  501 -0.00000000000E+00  0.00000000000E+00  0.41812478343E+02  0.41812478343E+02  0.00000000000E+00 0.  1.
          1   -1    0    0  501    0  0.00000000000E+00 -0.00000000000E+00 -0.91439518145E+03  0.91439518145E+03  0.00000000000E+00 0. -1.
         25    2    1    2    0    0 -0.46874176876E+02 -0.15513974380E+03 -0.47640212856E+03  0.51853028155E+03  0.12509650764E+03 0.  0.
          5    1    3    3  502    0 -0.13909627567E+02 -0.14617168277E+03 -0.25347462134E+03  0.29296159245E+03  0.41800000000E+01 0.  1.
         -5    1    3    3    0  502 -0.32964549310E+02 -0.89680610239E+01 -0.22292750722E+03  0.22556868911E+03  0.41800000000E+01 0.  1.
        -11    1    1    2    0    0  0.15400173393E+02 -0.17628339802E+01 -0.72527333560E+01  0.17113592998E+02  0.00000000000E+00 0.  1.
         11    1    1    2    0    0  0.31474003483E+02  0.15690257778E+03 -0.38892784119E+03  0.42056378525E+03  0.00000000000E+00 0. -1.
</event>
<event>
 7    1  0.2641580E-009  0.9399264E+02  0.7561462E-02  0.1293461E+00
          2   -1    0    0  501    0  0.00000000000E+00  0.00000000000E+00  0.29774894096E+03  0.29774894096E+03  0.00000000000E+00 0. -1.
         -2   -1    0    0    0  501 -0.00000000000E+00 -0.00000000000E+00 -0.42824047675E+02  0.42824047675E+02  0.00000000000E+00 0.  1.
         25    2    1    2    0    0  0.72100246592E+01  0.27399406744E+02  0.13459393561E+03  0.18591889757E+03  0.12509035545E+03 0.  0.
          5    1    3    3  502    0 -0.90475132823E+01  0.60374967917E+02  0.13574379342E+03  0.14889877132E+03  0.41800000000E+01 0.  1.
         -5    1    3    3    0  502  0.16257537942E+02 -0.32975561174E+02 -0.11498578153E+01  0.37020126251E+02  0.41800000000E+01 0.  1.
        -11    1    1    2    0    0 -0.69449882842E+01  0.30808945910E+02  0.16530902689E+02  0.35646805664E+02  0.00000000000E+00 0.  1.
         11    1    1    2    0    0 -0.26503637495E+00 -0.58208352653E+02  0.10380005499E+03  0.11900728540E+03  0.00000000000E+00 0. -1.
</event>
<event>
 7    1  0.2641580E-009  0.1168235E+03  0.7561462E-02  0.1248431E+00
         -1   -1    0    0    0  501 -0.00000000000E+00  0.00000000000E+00  0.11169025337E+03  0.11169025337E+03  0.00000000000E+00 0.  1.
          1   -1    0    0  501    0  0.00000000000E+00 -0.00000000000E+00 -0.17162661285E+03  0.17162661285E+03  0.00000000000E+00 0. -1.
         25    2    1    2    0    0  0.67153655878E+02  0.49456778754E+02 -0.54279059665E+02  0.15979761591E+03  0.12503389648E+03 0.  0.
          5    1    3    3  502    0  0.69117334555E+02 -0.26465103858E+02 -0.29784366608E+02  0.79888600892E+02  0.41800000000E+01 0. -1.
         -5    1    3    3    0  502 -0.19636786770E+01  0.75921882612E+02 -0.24494693057E+02  0.79909015019E+02  0.41800000000E+01 0. -1.
        -11    1    1    2    0    0 -0.13341611024E+02 -0.11367993599E+02 -0.43922800938E+02  0.47291038320E+02  0.00000000000E+00 0. -1.
         11    1    1    2    0    0 -0.53812044854E+02 -0.38088785155E+02  0.38265501121E+02  0.76228211983E+02  0.00000000000E+00 0.  1.
</event>
<event>
 7    1  0.2660626E-009  0.1275738E+03  0.7561462E-02  0.1231101E+00
         -1   -1    0    0    0  501 -0.00000000000E+00  0.00000000000E+00  0.16911805192E+02  0.16911805192E+02  0.00000000000E+00 0.  1.
          1   -1    0    0  501    0  0.00000000000E+00 -0.00000000000E+00 -0.99464077379E+03  0.99464077379E+03  0.00000000000E+00 0. -1.
         25    2    1    2    0    0  0.56870861434E+02  0.41664580616E+02 -0.57753117718E+03  0.59511257724E+03  0.12508591773E+03 0.  0.
          5    1    3    3  502    0  0.19927608528E+02  0.84468959379E+02 -0.34880688472E+03  0.35946603443E+03  0.41800000000E+01 0.  1.
         -5    1    3    3    0  502  0.36943252906E+02 -0.42804378763E+02 -0.22872429246E+03  0.23564654280E+03  0.41800000000E+01 0.  1.
        -11    1    1    2    0    0 -0.94925165296E+01 -0.60010327643E+02 -0.16533750511E+03  0.17614720517E+03  0.00000000000E+00 0.  1.
         11    1    1    2    0    0 -0.47378344904E+02  0.18345747026E+02 -0.23486028631E+03  0.24029279658E+03  0.00000000000E+00 0. -1.
</event>
<event>
 7    1  0.2641580E-009  0.7423427E+02  0.7561462E-02  0.1346259E+00
          2   -1    0    0  501    0  0.00000000000E+00  0.00000000000E+00  0.68793029110E+02  0.68793029110E+02  0.00000000000E+00 0. -1.
         -2   -1    0    0    0  501 -0.00000000000E+00 -0.00000000000E+00 -0.17572121777E+03  0.17572121777E+03  0.00000000000E+00 0.  1.
         25    2    1    2    0    0  0.16876866756E+02 -0.50969985784E+01 -0.45222034172E+02  0.13417798266E+03  0.12509152901E+03 0.  0.
          5    1    3    3  502    0  0.36681735002E+02  0.29168758498E+02  0.25135627692E+02  0.53344524879E+02  0.41800000000E+01 0.  1.
         -5    1    3    3    0  502 -0.19804868246E+02 -0.34265757076E+02 -0.70357661864E+02  0.80833457783E+02  0.41800000000E+01 0.  1.
        -11    1    1    2    0    0  0.75649936115E+01 -0.23097919632E+02 -0.68253458670E+02  0.72451898803E+02  0.00000000000E+00 0.  1.
         11    1    1    2    0    0 -0.24441860368E+02  0.28194918210E+02  0.65473041795E+01  0.37884365418E+02  0.00000000000E+00 0. -1.
</event>
<event>
 7    1  0.2641580E-009  0.1075019E+03  0.7561462E-02  0.1265267E+00
         -2   -1    0    0    0  501 -0.00000000000E+00  0.00000000000E+00  0.40969923320E+03  0.40969923320E+03  0.00000000000E+00 0.  1.
          2   -1    0    0  501    0  0.00000000000E+00 -0.00000000000E+00 -0.34658368144E+02  0.34658368144E+02  0.00000000000E+00 0. -1.
         25    2    1    2    0    0 -0.10572159045E+02  0.28137716918E+02  0.28259178794E+03  0.31049771323E+03  0.12508880704E+03 0.  0.
          5    1    3    3  502    0  0.23649821875E+02 -0.40009553135E+02  0.65958521297E+02  0.80796518171E+02  0.41800000000E+01 0. -1.
         -5    1    3    3    0  502 -0.34221980920E+02  0.68147270053E+02  0.21663326664E+03  0.22970119505E+03  0.41800000000E+01 0. -1.
        -11    1    1    2    0    0  0.48771541615E+02 -0.21030954562E+02  0.32022779824E+02  0.62019535220E+02  0.00000000000E+00 0. -1.
         11    1    1    2    0    0 -0.38199382570E+02 -0.71067623557E+01  0.60426297298E+02  0.71840352902E+02  0.00000000000E+00 0.  1.
</event>
<event>
 7    1  0.2641580E-009  0.2933436E+03  0.7561462E-02  0.1088616E+00
         -1   -1    0    0    0  501 -0.00000000000E+00  0.00000000000E+00  0.33523040527E+03  0.33523040527E+03  0.00000000000E+00 0.  1.
          1   -1    0    0  501    0  0.00000000000E+00 -0.00000000000E+00 -0.30360146069E+03  0.30360146069E+03  0.00000000000E+00 0. -1.
         25    2    1    2    0    0 -0.70797555908E+01 -0.28741469325E+03 -0.88455073201E+01  0.31366066212E+03  0.12508972431E+03 0.  0.
          5    1    3    3  502    0  0.26167348465E+02 -0.60246501853E+02 -0.47014255929E+02  0.80883767047E+02  0.41800000000E+01 0.  1.
         -5    1    3    3    0  502 -0.33247104056E+02 -0.22716819139E+03  0.38168748608E+02  0.23277689507E+03  0.41800000000E+01 0.  1.
        -11    1    1    2    0    0  0.27068866919E+02  0.16158171291E+03  0.91813495116E+02  0.18780599402E+03  0.00000000000E+00 0.  1.
         11    1    1    2    0    0 -0.19989111328E+02  0.12583298034E+03 -0.51339043214E+02  0.13736520982E+03  0.00000000000E+00 0. -1.
</event>
<event>
 7    1  0.2641580E-009  0.2690676E+03  0.7561462E-02  0.1101814E+00
          2   -1    0    0  501    0  0.00000000000E+00  0.00000000000E+00  0.52215587515E+03  0.52215587515E+03  0.00000000000E+00 0. -1.
         -2   -1    0    0    0  501 -0.00000000000E+00 -0.00000000000E+00 -0.15821707584E+03  0.15821707584E+03  0.00000000000E+00 0.  1.
         25    2    1    2    0    0  0.26106231119E+02 -0.25101605912E+03  0.87299735456E+02  0.29488825400E+03  0.12508893354E+03 0.  0.
          5    1    3    3  502    0  0.71076048456E+02 -0.11173835561E+03  0.20955355793E+02  0.13414120961E+03  0.41800000000E+01 0. -1.
         -5    1    3    3    0  502 -0.44969817336E+02 -0.13927770351E+03  0.66344379663E+02  0.16074704439E+03  0.41800000000E+01 0. -1.
        -11    1    1    2    0    0  0.19001896473E+02  0.59193229305E+02  0.11454143530E+03  0.13032517357E+03  0.00000000000E+00 0.  1.
         11    1    1    2    0    0 -0.45108127592E+02  0.19182282982E+03  0.16209762855E+03  0.25515952343E+03  0.00000000000E+00 0. -1.
</event>
<event>
 7    1  0.2641580E-009  0.1225966E+03  0.7561462E-02  0.1238874E+00
         -2   -1    0    0    0  501 -0.00000000000E+00  0.00000000000E+00  0.25003245070E+03  0.25003245070E+03  0.00000000000E+00 0. -1.
          2   -1    0    0  501    0  0.00000000000E+00 -0.00000000000E+00 -0.93172163389E+02  0.93172163389E+02  0.00000000000E+00 0.  1.
         25    2    1    2    0    0 -0.72085450391E+02 -0.22583429820E+02  0.16861448614E+03  0.22312580531E+03  0.12509179270E+03 0.  0.
          5    1    3    3  502    0 -0.28263952969E+02 -0.73198830755E+02  0.99867830952E+02  0.12707468639E+03  0.41800000000E+01 0.  1.
         -5    1    3    3    0  502 -0.43821497422E+02  0.50615400935E+02  0.68746655186E+02  0.96051118928E+02  0.41800000000E+01 0.  1.
        -11    1    1    2    0    0  0.69640892919E+02  0.41096167123E+02 -0.36796285609E+02  0.88840956509E+02  0.00000000000E+00 0.  1.
         11    1    1    2    0    0  0.24445574718E+01 -0.18512737303E+02  0.25042086782E+02  0.31237852264E+02  0.00000000000E+00 0. -1.
</event>
<event>
 7    1  0.2641580E-009  0.2414622E+03  0.7561462E-02  0.1118823E+00
          2   -1    0    0  501    0  0.00000000000E+00  0.00000000000E+00  0.13464519402E+04  0.13464519402E+04  0.00000000000E+00 0. -1.
         -2   -1    0    0    0  501 -0.00000000000E+00 -0.00000000000E+00 -0.62344924828E+02  0.62344924828E+02  0.00000000000E+00 0.  1.
         25    2    1    2    0    0  0.22576164733E+03 -0.44364878254E+02  0.32004325835E+03  0.41353597027E+03  0.12509095757E+03 0.  0.
          5    1    3    3  502    0  0.49014848958E+02  0.14994965183E+02  0.15907011432E+03  0.16717678687E+03  0.41800000000E+01 0.  1.
         -5    1    3    3    0  502  0.17674679837E+03 -0.59359843437E+02  0.16097314403E+03  0.24635918340E+03  0.41800000000E+01 0.  1.
        -11    1    1    2    0    0 -0.14044289566E+03  0.68608754617E+02  0.54846176485E+03  0.57029963673E+03  0.00000000000E+00 0.  1.
         11    1    1    2    0    0 -0.85318751670E+02 -0.24243876364E+02  0.41560199212E+03  0.42496125798E+03  0.00000000000E+00 0. -1.
</event>
<event>
 7    1  0.2641580E-009  0.1110814E+03  0.7561462E-02  0.1258580E+00
          1   -1    0    0  501    0  0.00000000000E+00  0.00000000000E+00  0.86194877023E+03  0.86194877023E+03  0.00000000000E+00 0.  1.
         -1   -1    0    0    0  501 -0.00000000000E+00 -0.00000000000E+00 -0.16422287412E+02  0.16422287412E+02  0.00000000000E+00 0. -1.
         25    2    1    2    0    0  0.82518940654E+01  0.45588628767E+02  0.51065909770E+03  0.52779138765E+03  0.12507844731E+03 0.  0.
          5    1    3    3  502    0 -0.27604887063E+02  0.75998478122E+02  0.24672808836E+03  0.25967291051E+03  0.41800000000E+01 0. -1.
         -5    1    3    3    0  502  0.35856781128E+02 -0.30409849355E+02  0.26393100934E+03  0.26811847714E+03  0.41800000000E+01 0. -1.
        -11    1    1    2    0    0  0.73526269300E+01  0.22745223089E+02  0.33410381722E+02  0.41081138044E+02  0.00000000000E+00 0. -1.
         11    1    1    2    0    0 -0.15604520995E+02 -0.68333851856E+02  0.30145700340E+03  0.30949853196E+03  0.00000000000E+00 0.  1.
</event>
<event>
 7    1  0.2641580E-009  0.1604889E+03  0.7561462E-02  0.1188146E+00
          1   -1    0    0  501    0  0.00000000000E+00  0.00000000000E+00  0.30128404382E+02  0.30128404382E+02  0.00000000000E+00 0. -1.
         -1   -1    0    0    0  501 -0.00000000000E+00 -0.00000000000E+00 -0.11236560384E+04  0.11236560384E+04  0.00000000000E+00 0.  1.
         25    2    1    2    0    0 -0.13548297624E+03 -0.51535482551E+02 -0.73821759407E+03  0.76264277027E+03  0.12508891252E+03 0.  0.
          5    1    3    3  502    0 -0.61585916258E+02 -0.56437857905E+02 -0.16849878402E+03  0.18811530906E+03  0.41800000000E+01 0. -1.
         -5    1    3    3    0  502 -0.73897059979E+02  0.49023753541E+01 -0.56971881005E+03  0.57452746121E+03  0.41800000000E+01 0. -1.
        -11    1    1    2    0    0  0.80357187035E+02  0.68386129737E+02 -0.24232242241E+03  0.26429925587E+03  0.00000000000E+00 0.  1.
         11    1    1    2    0    0  0.55125789202E+02 -0.16850647186E+02 -0.11298761758E+03  0.12684241669E+03  0.00000000000E+00 0. -1.
</event>
<event>
 7    1  0.2802187E-009  0.1132723E+03  0.7561462E-02  0.1254627E+00
          1   -1    0    0  501    0  0.00000000000E+00  0.00000000000E+00  0.78694586303E+03  0.78694586303E+03  0.00000000000E+00 0. -1.
         -1   -1    0    0    0  501 -0.00000000000E+00 -0.00000000000E+00 -0.23173912335E+02  0.23173912335E+02  0.00000000000E+00 0.  1.
         25    2    1    2    0    0  0.73087119343E+02  0.32601899621E+02  0.45632210738E+03  0.47987696517E+03  0.12508966841E+03 0.  0.
          5    1    3    3  502    0  0.88811978360E+02 -0.96245464981E+01  0.19322945052E+03  0.21292085934E+03  0.41800000000E+01 0.  1.
         -5    1    3    3    0  502 -0.15724859017E+02  0.42226446119E+02  0.26309265686E+03  0.26695610583E+03  0.41800000000E+01 0.  1.
        -11    1    1    2    0    0 -0.38093358317E+02  0.73028810644E+01  0.33659679057E+02  0.51355720362E+02  0.00000000000E+00 0.  1.
         11    1    1    2    0    0 -0.34993761026E+02 -0.39904780685E+02  0.27379016426E+03  0.27888708983E+03  0.00000000000E+00 0. -1.
</event>
<event>
 7    1  0.2641580E-009  0.1929774E+03  0.7561462E-02  0.1155803E+00
          2   -1    0    0  501    0  0.00000000000E+00  0.00000000000E+00  0.93167608234E+03  0.93167608234E+03  0.00000000000E+00 0. -1.
         -2   -1    0    0    0  501 -0.00000000000E+00 -0.00000000000E+00 -0.52880961623E+02  0.52880961623E+02  0.00000000000E+00 0.  1.
         25    2    1    2    0    0  0.19028351869E+03  0.11829603120E+02  0.52641231964E+03  0.57367660122E+03  0.12508859072E+03 0.  0.
          5    1    3    3  502    0  0.91237945911E+01  0.69286359056E+01  0.19947387798E+03  0.19984631600E+03  0.41800000000E+01 0. -1.
         -5    1    3    3    0  502  0.18115972410E+03  0.49009672140E+01  0.32693844166E+03  0.37383028522E+03  0.41800000000E+01 0. -1.
        -11    1    1    2    0    0 -0.14709435704E+03 -0.20254211275E+02  0.32921653156E+03  0.36115164073E+03  0.00000000000E+00 0. -1.
         11    1    1    2    0    0 -0.43189161648E+02  0.84246081555E+01  0.23166269519E+02  0.49728802015E+02  0.00000000000E+00 0.  1.
</event>
<event>
 7    1  0.2641580E-009  0.9126112E+02  0.7561462E-02  0.1299826E+00
          1   -1    0    0  501    0  0.00000000000E+00  0.00000000000E+00  0.17607873599E+03  0.17607873599E+03  0.00000000000E+00 0. -1.
         -1   -1    0    0    0  501 -0.00000000000E+00 -0.00000000000E+00 -0.99017701522E+02  0.99017701522E+02  0.00000000000E+00 0.  1.
         25    2    1    2    0    0 -0.31960036506E+02 -0.11392785845E+02 -0.27614220075E+02  0.13252114507E+03  0.12509224291E+03 0.  0.
          5    1    3    3  502    0 -0.51968386438E+02  0.13193606469E+02  0.33632950312E+02  0.63430530404E+02  0.41800000000E+01 0. -1.
         -5    1    3    3    0  502  0.20008349932E+02 -0.24586392315E+02 -0.61247170388E+02  0.69090614663E+02  0.41800000000E+01 0. -1.
        -11    1    1    2    0    0  0.60778440034E+02  0.23958764687E+02  0.72418801936E+02  0.97532169319E+02  0.00000000000E+00 0. -1.
         11    1    1    2    0    0 -0.28818403528E+02 -0.12565978842E+02  0.32256452608E+02  0.45043123127E+02  0.00000000000E+00 0.  1.
</event>
<event>
 7    1  0.2641580E-009  0.1315961E+03  0.7561462E-02  0.1225106E+00
         -2   -1    0    0    0  501 -0.00000000000E+00  0.00000000000E+00  0.14484685462E+03  0.14484685462E+03  0.00000000000E+00 0.  1.
          2   -1    0    0  501    0  0.00000000000E+00 -0.00000000000E+00 -0.22702412887E+03  0.22702412887E+03  0.00000000000E+00 0. -1.
         25    2    1    2    0    0  0.90967934672E+02  0.24145081455E+02  0.71968774680E+02  0.17229524428E+03  0.12509195248E+03 0.  0.
          5    1    3    3  502    0  0.31646748493E+02 -0.47987243794E+02  0.61458638215E+01  0.57961507048E+02  0.41800000000E+01 0. -1.
         -5    1    3    3    0  502  0.59321186178E+02  0.72132325249E+02  0.65822910858E+02  0.11433373723E+03  0.41800000000E+01 0. -1.
        -11    1    1    2    0    0 -0.31854684533E+02 -0.39744842492E+02 -0.25107829635E+02  0.56787115972E+02  0.00000000000E+00 0.  1.
         11    1    1    2    0    0 -0.59113250139E+02  0.15599761037E+02 -0.12903821930E+03  0.14278862324E+03  0.00000000000E+00 0. -1.
</event>
<event>
 7    1  0.2641580E-009  0.1081240E+03  0.7561462E-02  0.1264084E+00
          1   -1    0    0  501    0  0.00000000000E+00  0.00000000000E+00  0.16719700657E+02  0.16719700657E+02  0.00000000000E+00 0.  1.
         -1   -1    0    0    0  501 -0.00000000000E+00 -0.00000000000E+00 -0.74536343428E+03  0.74536343428E+03  0.00000000000E+00 0. -1.
         25    2    1    2    0    0 -0.48242180431E+01 -0.26169607468E+02 -0.44583057997E+03  0.46381159907E+03  0.12509265347E+03 0.  0.
          5    1    3    3  502    0 -0.18560377526E+02 -0.74522259273E+02 -0.24803845093E+03  0.25968943044E+03  0.41800000000E+01 0.  1.
         -5    1    3    3    0  502  0.13736159483E+02  0.48352651804E+02 -0.19779212904E+03  0.20412216863E+03  0.41800000000E+01 0.  1.
        -11    1    1    2    0    0  0.30034091514E+02  0.47281270951E+02 -0.12362722971E+03  0.13572493198E+03  0.00000000000E+00 0.  1.
         11    1    1    2    0    0 -0.25209873471E+02 -0.21111663483E+02 -0.15918592393E+03  0.16254660388E+03  0.00000000000E+00 0. -1.
</event>
<event>
 7    1  0.2641580E-009  0.1060848E+03  0.7561462E-02  0.1267997E+00
         -1   -1    0    0    0  501 -0.00000000000E+00  0.00000000000E+00  0.76888312130E+02  0.76888312130E+02  0.00000000000E+00 0.  1.
          1   -1    0    0  501    0  0.00000000000E+00 -0.00000000000E+00 -0.17515481360E+03  0.17515481360E+03  0.00000000000E+00 0. -1.
         25    2    1    2    0    0 -0.32266666490E+02 -0.21676343106E+02 -0.72721477907E+02  0.14985848912E+03  0.12513253692E+03 0.  0.
          5    1    3    3  502    0  0.41024026362E+02 -0.37433216793E+02 -0.26356337527E+02  0.61614490068E+02  0.41800000000E+01 0.  1.
         -5    1    3    3    0  502 -0.73290692852E+02  0.15756873687E+02 -0.46365140380E+02  0.88243999057E+02  0.41800000000E+01 0.  1.
        -11    1    1    2    0    0 -0.40508848697E+00  0.42597079539E+02 -0.42202048959E+02  0.59964057720E+02  0.00000000000E+00 0. -1.
         11    1    1    2    0    0  0.32671754977E+02 -0.20920736433E+02  0.16657025397E+02  0.42220578884E+02  0.00000000000E+00 0.  1.
</event>
<event>
 7    1  0.2641580E-009  0.1336701E+03  0.7561462E-02  0.1222109E+00
          2   -1    0    0  501    0  0.00000000000E+00  0.00000000000E+00  0.53317727187E+03  0.53317727187E+03  0.00000000000E+00 0.  1.
         -2   -1    0    0    0  501 -0.00000000000E+00 -0.00000000000E+00 -0.37825142441E+02  0.37825142441E+02  0.00000000000E+00 0. -1.
         25    2    1    2    0    0 -0.52037109351E+02 -0.73362366236E+02  0.30612328504E+03  0.34270798679E+03  0.12508957205E+03 0.  0.
          5    1    3    3  502    0 -0.86439735071E+02 -0.37652979646E+02  0.25245994230E+03  0.26952378289E+03  0.41800000000E+01 0. -1.
         -5    1    3    3    0  502  0.34402625720E+02 -0.35709386590E+02  0.53663342742E+02  0.73184203905E+02  0.41800000000E+01 0. -1.
        -11    1    1    2    0    0  0.71545316436E+02  0.74966638421E+02  0.17732558257E+03  0.20538522686E+03  0.00000000000E+00 0.  1.
         11    1    1    2    0    0 -0.19508207085E+02 -0.16042721857E+01  0.11903261823E+02  0.22909200661E+02  0.00000000000E+00 0. -1.
</event>
<event>
 7    1  0.2641580E-009  0.1129280E+03  0.7561462E-02  0.1255242E+00
         -2   -1    0    0    0  501 -0.00000000000E+00  0.00000000000E+00  0.27135264818E+02  0.27135264818E+02  0.00000000000E+00 0.  1.
          2   -1    0    0  501    0  0.00000000000E+00 -0.00000000000E+00 -0.70161595937E+03  0.70161595937E+03  0.00000000000E+00 0. -1.
         25    2    1    2    0    0 -0.41219158003E+02 -0.48816995564E+02 -0.51043156873E+03  0.52940536699E+03  0.12509012033E+03 0.  0.
          5    1    3    3  502    0  0.29707813171E+02 -0.49320759635E+02 -0.12780807797E+03  0.14024075260E+03  0.41800000000E+01 0. -1.
         -5    1    3    3    0  502 -0.70926971174E+02  0.50376407061E+00 -0.38262349076E+03  0.38916461440E+03  0.41800000000E+01 0. -1.
        -11    1    1    2    0    0 -0.20631822544E+02  0.20381612424E+02 -0.95816321599E+01  0.30543246411E+02  0.00000000000E+00 0.  1.
         11    1    1    2    0    0  0.61850980547E+02  0.28435383140E+02 -0.15446749366E+03  0.16880261079E+03  0.00000000000E+00 0. -1.
</event>
<event>
 7    1  0.2641580E-009  0.9464600E+02  0.7561462E-02  0.1291975E+00
          3   -1    0    0  501    0  0.00000000000E+00  0.00000000000E+00  0.53572738331E+03  0.53572738331E+03  0.00000000000E+00 0. -1.
         -3   -1    0    0    0  501 -0.00000000000E+00 -0.00000000000E+00 -0.27785338041E+02  0.27785338041E+02  0.00000000000E+00 0.  1.
         25    2    1    2    0    0 -0.15042204846E+02  0.50101687264E+02  0.33882560044E+03  0.36494734481E+03  0.12508928801E+03 0.  0.
          5    1    3    3  502    0 -0.41760663517E+02  0.76121102127E+02  0.15862484231E+03  0.18088031458E+03  0.41800000000E+01 0.  1.
         -5    1    3    3    0  502  0.26718458672E+02 -0.26019414863E+02  0.18020075813E+03  0.18406703022E+03  0.41800000000E+01 0.  1.
        -11    1    1    2    0    0  0.13064300189E+02  0.15446766400E+01 -0.70838367849E+01  0.14941308809E+02  0.00000000000E+00 0.  1.
         11    1    1    2    0    0  0.19779046571E+01 -0.51646363904E+02  0.17620028161E+03  0.18362406773E+03  0.00000000000E+00 0. -1.
</event>
<event>
 7    1  0.2641580E-009  0.1003528E+03  0.7561462E-02  0.1279556E+00
         -1   -1    0    0    0  501 -0.00000000000E+00  0.00000000000E+00  0.17852396928E+02  0.17852396928E+02  0.00000000000E+00 0.  1.
          1   -1    0    0  501    0  0.00000000000E+00 -0.00000000000E+00 -0.67495614641E+03  0.67495614641E+03  0.00000000000E+00 0. -1.
         25    2    1    2    0    0 -0.20852753480E+02 -0.60887056819E+01 -0.29036182744E+03  0.31690366986E+03  0.12508411357E+03 0.  0.
          5    1    3    3  502    0 -0.65457287410E+02  0.17246102395E+02 -0.10676226640E+03  0.12648216653E+03  0.41800000000E+01 0. -1.
         -5    1    3    3    0  502  0.44604533930E+02 -0.23334808077E+02 -0.18359956104E+03  0.19042150332E+03  0.41800000000E+01 0. -1.
        -11    1    1    2    0    0  0.29324646798E+02  0.38770046456E+02 -0.22624521445E+03  0.23140861798E+03  0.00000000000E+00 0.  1.
         11    1    1    2    0    0 -0.84718933183E+01 -0.32681340774E+02 -0.14049670759E+03  0.14449625550E+03  0.00000000000E+00 0. -1.
</event>
<event>
 7    1  0.2641580E-009  0.1153882E+03  0.7561462E-02  0.1250905E+00
          3   -1    0    0  501    0  0.00000000000E+00  0.00000000000E+00  0.15359742943E+02  0.15359742943E+02  0.00000000000E+00 0. -1.
         -3   -1    0    0    0  501 -0.00000000000E+00 -0.00000000000E+00 -0.11762965606E+04  0.11762965606E+04  0.00000000000E+00 0.  1.
         25    2    1    2    0    0 -0.65288588858E+02  0.34697939414E+02 -0.78035028689E+03  0.79376369178E+03  0.12509069234E+03 0.  0.
          5    1    3    3  502    0 -0.10214985074E+03  0.23353623021E+02 -0.51254786217E+03  0.52316609899E+03  0.41800000000E+01 0.  1.
         -5    1    3    3    0  502  0.36861261877E+02  0.11344316393E+02 -0.26780242472E+03  0.27059759280E+03  0.41800000000E+01 0.  1.
        -11    1    1    2    0    0  0.35699550537E+01  0.10190758661E+02 -0.11518857290E+01  0.10859234868E+02  0.00000000000E+00 0. -1.
         11    1    1    2    0    0  0.61718633804E+02 -0.44888698075E+02 -0.37943464501E+03  0.38703337687E+03  0.00000000000E+00 0.  1.
</event>
<event>
 7    1  0.2641580E-009  0.1099497E+03  0.7561462E-02  0.1260663E+00
          2   -1    0    0  501    0  0.00000000000E+00  0.00000000000E+00  0.57234612179E+03  0.57234612179E+03  0.00000000000E+00 0. -1.
         -2   -1    0    0    0  501 -0.00000000000E+00 -0.00000000000E+00 -0.28022632546E+02  0.28022632546E+02  0.00000000000E+00 0.  1.
         25    2    1    2    0    0 -0.55726191361E+02  0.38959919883E+02  0.29817011162E+03  0.33041818158E+03  0.12508986966E+03 0.  0.
          5    1    3    3  502    0  0.29324740708E+02  0.22497156116E+02  0.27684317256E+02  0.46367620953E+02  0.41800000000E+01 0. -1.
         -5    1    3    3    0  502 -0.85050932068E+02  0.16462763767E+02  0.27048579437E+03  0.28405056062E+03  0.41800000000E+01 0. -1.
        -11    1    1    2    0    0  0.23308714020E+02  0.18661401930E+02  0.15198737175E+03  0.15489256032E+03  0.00000000000E+00 0.  1.
         11    1    1    2    0    0  0.32417477340E+02 -0.57621321814E+02  0.94166005875E+02  0.11505801244E+03  0.00000000000E+00 0. -1.
</event>
<event>
 7    1  0.2641580E-009  0.8425015E+02  0.7561462E-02  0.1317405E+00
          4   -1    0    0  501    0  0.00000000000E+00  0.00000000000E+00  0.62332857584E+02  0.62332857584E+02  0.00000000000E+00 0. -1.
         -4   -1    0    0    0  501 -0.00000000000E+00 -0.00000000000E+00 -0.21099928741E+03  0.21099928741E+03  0.00000000000E+00 0.  1.
         25    2    1    2    0    0 -0.17211019809E+02  0.30796537725E+02 -0.11115242174E+03  0.17101661687E+03  0.12508867434E+03 0.  0.
          5    1    3    3  502    0 -0.49329956065E+02  0.25923671787E+02 -0.78234051387E+00  0.55888869920E+02  0.41800000000E+01 0.  1.
         -5    1    3    3    0  502  0.32118936256E+02  0.48728659380E+01 -0.11037008122E+03  0.11512774695E+03  0.41800000000E+01 0.  1.
        -11    1    1    2    0    0 -0.18112614273E+02 -0.39524193217E+02  0.78315285298E+01  0.44176481122E+02  0.00000000000E+00 0. -1.
         11    1    1    2    0    0  0.35323634081E+02  0.87276554916E+01 -0.45345536622E+02  0.58139047005E+02  0.00000000000E+00 0.  1.
</event>
<event>
 7    1  0.2641580E-009  0.2186922E+03  0.7561462E-02  0.1134862E+00
         -2   -1    0    0    0  501 -0.00000000000E+00  0.00000000000E+00  0.12714463387E+03  0.12714463387E+03  0.00000000000E+00 0.  1.
          2   -1    0    0  501    0  0.00000000000E+00 -0.00000000000E+00 -0.52924828745E+03  0.52924828745E+03  0.00000000000E+00 0. -1.
         25    2    1    2    0    0 -0.19432736971E+03 -0.80348660831E+02 -0.71201822610E+02  0.25482713269E+03  0.12509250215E+03 0.  0.
          5    1    3    3  502    0 -0.22257353293E+02 -0.36052919279E+02  0.28316649580E+02  0.51132257994E+02  0.41800000000E+01 0. -1.
         -5    1    3    3    0  502 -0.17207001642E+03 -0.44295741552E+02 -0.99518472190E+02  0.20369487470E+03  0.41800000000E+01 0. -1.
        -11    1    1    2    0    0  0.13233847414E+03  0.26494560908E+02 -0.26056696552E+03  0.29344603765E+03  0.00000000000E+00 0. -1.
         11    1    1    2    0    0  0.61988895577E+02  0.53854099923E+02 -0.70334865456E+02  0.10811975098E+03  0.00000000000E+00 0.  1.
</event>
<event>
 7    1  0.2641580E-009  0.1244835E+03  0.7561462E-02  0.1235879E+00
          1   -1    0    0  501    0  0.00000000000E+00  0.00000000000E+00  0.25743596324E+02  0.25743596324E+02  0.00000000000E+00 0. -1.
         -1   -1    0    0    0  501 -0.00000000000E+00 -0.00000000000E+00 -0.84540336501E+03  0.84540336501E+03  0.00000000000E+00 0.  1.
         25    2    1    2    0    0  0.79695334560E+02 -0.45221191478E+02 -0.56332362036E+03  0.58427712017E+03  0.12509975774E+03 0.  0.
          5    1    3    3  502    0  0.10999224180E+03 -0.54859674402E+02 -0.44331797012E+03  0.46006105265E+03  0.41800000000E+01 0. -1.
         -5    1    3    3    0  502 -0.30296907236E+02  0.96384829239E+01 -0.12000565024E+03  0.12421606752E+03  0.41800000000E+01 0. -1.
        -11    1    1    2    0    0 -0.30034094504E+02  0.28795249825E+02 -0.21821221939E+03  0.22214361556E+03  0.00000000000E+00 0.  1.
         11    1    1    2    0    0 -0.49661240055E+02  0.16425941653E+02 -0.38123928939E+02  0.64726225602E+02  0.00000000000E+00 0. -1.
</event>
<event>
 7    1  0.2641580E-009  0.1154610E+03  0.7561462E-02  0.1250779E+00
          1   -1    0    0  501    0  0.00000000000E+00  0.00000000000E+00  0.24961527074E+03  0.24961527074E+03  0.00000000000E+00 0. -1.
         -1   -1    0    0    0  501 -0.00000000000E+00 -0.00000000000E+00 -0.70565355201E+02  0.70565355201E+02  0.00000000000E+00 0.  1.
         25    2    1    2    0    0  0.13984060217E+02  0.79255409493E+02  0.10413838530E+03  0.18157406867E+03  0.12508942900E+03 0.  0.
          5    1    3    3  502    0 -0.13409330893E+02  0.10426901397E+03  0.51758408136E+02  0.11725290036E+03  0.41800000000E+01 0.  1.
         -5    1    3    3    0  502  0.27393391110E+02 -0.25013604479E+02  0.52379977164E+02  0.64321168314E+02  0.41800000000E+01 0.  1.
        -11    1    1    2    0    0 -0.23685432833E+02 -0.30224516672E+02 -0.10354569988E+02  0.39771073108E+02  0.00000000000E+00 0.  1.
         11    1    1    2    0    0  0.97013726155E+01 -0.49030892821E+02  0.85266100226E+02  0.98835484160E+02  0.00000000000E+00 0. -1.
</event>
<event>
 7    1  0.2641580E-009  0.9264787E+02  0.7561462E-02  0.1296563E+00
         -1   -1    0    0    0  501 -0.00000000000E+00  0.00000000000E+00  0.10491151713E+03  0.10491151713E+03  0.00000000000E+00 0.  1.
          1   -1    0    0  501    0  0.00000000000E+00 -0.00000000000E+00 -0.13315615596E+03  0.13315615596E+03  0.00000000000E+00 0. -1.
         25    2    1    2    0    0 -0.33481829794E+02  0.22986815285E+02  0.71562986908E+01  0.13170811544E+03  0.12508552457E+03 0.  0.
          5    1    3    3  502    0 -0.67623166284E+02  0.41912851010E+02  0.31325288268E+02  0.85605641071E+02  0.41800000000E+01 0. -1.
         -5    1    3    3    0  502  0.34141336490E+02 -0.18926035725E+02 -0.24168989578E+02  0.46102474367E+02  0.41800000000E+01 0. -1.
        -11    1    1    2    0    0  0.39281745872E+02 -0.35264923341E+02 -0.58977658641E+02  0.79151971522E+02  0.00000000000E+00 0. -1.
         11    1    1    2    0    0 -0.57999160778E+01  0.12278108056E+02  0.23576721122E+02  0.27207586126E+02  0.00000000000E+00 0.  1.
</event>
<event>
 7    1  0.2641580E-009  0.2076832E+03  0.7561462E-02  0.1143414E+00
         -2   -1    0    0    0  501 -0.00000000000E+00  0.00000000000E+00  0.11218700683E+03  0.11218700683E+03  0.00000000000E+00 0.  1.
          2   -1    0    0  501    0  0.00000000000E+00 -0.00000000000E+00 -0.48609992739E+03  0.48609992739E+03  0.00000000000E+00 0. -1.
         25    2    1    2    0    0 -0.18344224350E+03 -0.45040996747E+02 -0.89714018594E+02  0.24367628005E+03  0.12509906570E+03 0.  0.
          5    1    3    3  502    0 -0.14419540475E+03  0.24376262465E+02 -0.51020046904E+02  0.15494203596E+03  0.41800000000E+01 0. -1.
         -5    1    3    3    0  502 -0.39246838749E+02 -0.69417259212E+02 -0.38693971691E+02  0.88734244086E+02  0.41800000000E+01 0. -1.
        -11    1    1    2    0    0  0.23291617537E+02  0.19930552286E+01  0.23910160875E+01  0.23498695167E+02  0.00000000000E+00 0.  1.
         11    1    1    2    0    0  0.16015062596E+03  0.43047941519E+02 -0.28658991806E+03  0.33111195901E+03  0.00000000000E+00 0. -1.
</event>
<event>
 7    1  0.2641580E-009  0.1161487E+03  0.7561462E-02  0.1249589E+00
         -2   -1    0    0    0  501 -0.00000000000E+00  0.00000000000E+00  0.30473015879E+02  0.30473015879E+02  0.00000000000E+00 0.  1.
          2   -1    0    0  501    0  0.00000000000E+00 -0.00000000000E+00 -0.69285253547E+03  0.69285253547E+03  0.00000000000E+00 0. -1.
         25    2    1    2    0    0  0.15429987143E+02 -0.78683749262E+02 -0.49673832929E+03  0.51848432837E+03  0.12509122304E+03 0.  0.
          5    1    3    3  502    0  0.54299924420E+02 -0.66301300976E+02 -0.44109433935E+03  0.44936180624E+03  0.41800000000E+01 0.  1.
         -5    1    3    3    0  502 -0.38869937277E+02 -0.12382448287E+02 -0.55643989944E+02  0.69122522135E+02  0.41800000000E+01 0.  1.
        -11    1    1    2    0    0 -0.22827383089E+01 -0.12831677643E+02 -0.72287862025E+02  0.73453371887E+02  0.00000000000E+00 0. -1.
         11    1    1    2    0    0 -0.13147248834E+02  0.91515426906E+02 -0.93353328279E+02  0.13138785109E+03  0.00000000000E+00 0.  1.
</event>
<event>
 7    1  0.2641580E-009  0.1038513E+03  0.7561462E-02  0.1272400E+00
          1   -1    0    0  501    0  0.00000000000E+00  0.00000000000E+00  0.22438939469E+03  0.22438939469E+03  0.00000000000E+00 0. -1.
         -1   -1    0    0    0  501 -0.00000000000E+00 -0.00000000000E+00 -0.81290054462E+02  0.81290054462E+02  0.00000000000E+00 0.  1.
         25    2    1    2    0    0 -0.11472667380E+02  0.64963893953E+02  0.13075420471E+03  0.19260315421E+03  0.12508950134E+03 0.  0.
          5    1    3    3  502    0 -0.50508400516E+02 -0.14514174553E+02  0.51372284104E+02  0.73609399942E+02  0.41800000000E+01 0. -1.
         -5    1    3    3    0  502  0.39035733137E+02  0.79478068506E+02  0.79381920606E+02  0.11899375427E+03  0.41800000000E+01 0. -1.
        -11    1    1    2    0    0  0.18107166126E+01 -0.30280603131E+02 -0.39593932333E+02  0.49878583562E+02  0.00000000000E+00 0.  1.
         11    1    1    2    0    0  0.96619507669E+01 -0.34683290823E+02  0.51939067849E+02  0.63197711382E+02  0.00000000000E+00 0. -1.
</event>
<event>
 7    1  0.2641580E-009  0.5605209E+03  0.7561462E-02  0.9990877E-01
          2   -1    0    0  501    0  0.00000000000E+00  0.00000000000E+00  0.17967876713E+04  0.17967876713E+04  0.00000000000E+00 0. -1.
         -2   -1    0    0    0  501 -0.00000000000E+00 -0.00000000000E+00 -0.17580859536E+03  0.17580859536E+03  0.00000000000E+00 0.  1.
         25    2    1    2    0    0  0.45632862826E+03 -0.30863182777E+03  0.83374641530E+03  0.10071098222E+04  0.12509071452E+03 0.  0.
          5    1    3    3  502    0  0.38901914247E+03 -0.30610144134E+03  0.76138575308E+03  0.90816282846E+03  0.41800000000E+01 0.  1.
         -5    1    3    3    0  502  0.67309485794E+02 -0.25303864250E+01  0.72360662224E+02  0.98946993743E+02  0.41800000000E+01 0.  1.
        -11    1    1    2    0    0 -0.74168880663E+02  0.12844901430E+02  0.11939440577E+03  0.14114190902E+03  0.00000000000E+00 0.  1.
         11    1    1    2    0    0 -0.38215974760E+03  0.29578692634E+03  0.66783825488E+03  0.82434453547E+03  0.00000000000E+00 0. -1.
</event>
<event>
 7    1  0.2641580E-009  0.1077867E+03  0.7561462E-02  0.1264724E+00
         -1   -1    0    0    0  501 -0.00000000000E+00  0.00000000000E+00  0.12193656440E+03  0.12193656440E+03  0.00000000000E+00 0.  1.
          1   -1    0    0  501    0  0.00000000000E+00 -0.00000000000E+00 -0.16238112260E+03  0.16238112260E+03  0.00000000000E+00 0. -1.
         25    2    1    2    0    0 -0.53615075793E+02 -0.57668197188E+02 -0.59986384027E+02  0.15951960154E+03  0.12509172509E+03 0.  0.
          5    1    3    3  502    0  0.21999627373E+02 -0.27350868325E+02  0.23774939498E+02  0.42600161394E+02  0.41800000000E+01 0.  1.
         -5    1    3    3    0  502 -0.75614703166E+02 -0.30317328863E+02 -0.83761323525E+02  0.11691944014E+03  0.41800000000E+01 0.  1.
        -11    1    1    2    0    0  0.62911378509E+02  0.30457023442E+02  0.47645087403E+02  0.84590343281E+02  0.00000000000E+00 0.  1.
         11    1    1    2    0    0 -0.92963027164E+01  0.27211173746E+02 -0.28103261572E+02  0.40207742188E+02  0.00000000000E+00 0. -1.
</event>
<event>
 7    1  0.2641580E-009  0.1129322E+03  0.7561462E-02  0.1255234E+00
          3   -1    0    0  501    0  0.00000000000E+00  0.00000000000E+00  0.24172850481E+02  0.24172850481E+02  0.00000000000E+00 0. -1.
         -3   -1    0    0    0  501 -0.00000000000E+00 -0.00000000000E+00 -0.57063537713E+03  0.57063537713E+03  0.00000000000E+00 0.  1.
         25    2    1    2    0    0 -0.30442599412E+02 -0.25770496419E+02 -0.27867681307E+03  0.30805765763E+03  0.12509150226E+03 0.  0.
          5    1    3    3  502    0 -0.68309570509E+02 -0.47032615968E+02 -0.14102812633E+03  0.16366022487E+03  0.41800000000E+01 0. -1.
         -5    1    3    3    0  502  0.37866971097E+02  0.21262119549E+02 -0.13764868674E+03  0.14439743276E+03  0.41800000000E+01 0. -1.
        -11    1    1    2    0    0 -0.28725538131E+02  0.27823747619E+02 -0.14536301213E+03  0.15076379793E+03  0.00000000000E+00 0. -1.
         11    1    1    2    0    0  0.59168137543E+02 -0.20532512003E+01 -0.12242270145E+03  0.13598677204E+03  0.00000000000E+00 0.  1.
</event>
<event>
 7    1  0.2641580E-009  0.1483816E+03  0.7561462E-02  0.1202476E+00
          1   -1    0    0  501    0  0.00000000000E+00  0.00000000000E+00  0.22715471631E+03  0.22715471631E+03  0.00000000000E+00 0. -1.
         -1   -1    0    0    0  501 -0.00000000000E+00 -0.00000000000E+00 -0.11357110565E+03  0.11357110565E+03  0.00000000000E+00 0.  1.
         25    2    1    2    0    0  0.76377123235E+02  0.66404216378E+02  0.12409095564E+03  0.20320276232E+03  0.12509921037E+03 0.  0.
          5    1    3    3  502    0 -0.14194400056E+02  0.67883573556E+02  0.44164662121E+02  0.82326486211E+02  0.41800000000E+01 0.  1.
         -5    1    3    3    0  502  0.90571523291E+02 -0.14793571782E+01  0.79926293522E+02  0.12087627611E+03  0.41800000000E+01 0.  1.
        -11    1    1    2    0    0 -0.95635177560E+02 -0.39389383352E+02 -0.28200745825E+01  0.10346769316E+03  0.00000000000E+00 0.  1.
         11    1    1    2    0    0  0.19258054325E+02 -0.27014833025E+02 -0.76872704069E+01  0.34055366480E+02  0.00000000000E+00 0. -1.
</event>
<event>
 7    1  0.2641580E-009  0.1498155E+03  0.7561462E-02  0.1200700E+00
         -1   -1    0    0    0  501 -0.00000000000E+00  0.00000000000E+00  0.23760264490E+03  0.23760264490E+03  0.00000000000E+00 0.  1.
          1   -1    0    0  501    0  0.00000000000E+00 -0.00000000000E+00 -0.10777807412E+03  0.10777807412E+03  0.00000000000E+00 0. -1.
         25    2    1    2    0    0 -0.79496734058E+02  0.80369504412E+02  0.10616835307E+03  0.19924354031E+03  0.12508909304E+03 0.  0.
          5    1    3    3  502    0  0.30308555148E+02  0.37907419887E+02  0.45841233774E+02  0.66891495062E+02  0.41800000000E+01 0. -1.
         -5    1    3    3    0  502 -0.10980528921E+03  0.42462084524E+02  0.60327119298E+02  0.13235204525E+03  0.41800000000E+01 0. -1.
        -11    1    1    2    0    0 -0.45487046995E+01 -0.39314100706E+02  0.33808241226E+02  0.52050805984E+02  0.00000000000E+00 0.  1.
         11    1    1    2    0    0  0.84045438757E+02 -0.41055403705E+02 -0.10152023518E+02  0.94086372716E+02  0.00000000000E+00 0. -1.
</event>
<event>
 7    1  0.2641580E-009  0.3002247E+03  0.7561462E-02  0.1085128E+00
         -2   -1    0    0    0  501 -0.00000000000E+00  0.00000000000E+00  0.46090322794E+03  0.46090322794E+03  0.00000000000E+00 0.  1.
          2   -1    0    0  501    0  0.00000000000E+00 -0.00000000000E+00 -0.22983627161E+03  0.22983627161E+03  0.00000000000E+00 0. -1.
         25    2    1    2    0    0 -0.78921541353E+02 -0.27949697552E+03  0.14273977126E+02  0.31654290352E+03  0.12509394202E+03 0.  0.
          5    1    3    3  502    0 -0.90552805453E+02 -0.18858393785E+03 -0.35394721663E+02  0.21221208946E+03  0.41800000000E+01 0.  1.
         -5    1    3    3    0  502  0.11631264100E+02 -0.90913037673E+02  0.49668698789E+02  0.10433081406E+03  0.41800000000E+01 0.  1.
        -11    1    1    2    0    0  0.25654098069E+02  0.21166118966E+03  0.12042875193E+03  0.24487073375E+03  0.00000000000E+00 0. -1.
         11    1    1    2    0    0  0.53267443284E+02  0.67835785866E+02  0.96364227270E+02  0.12932586228E+03  0.00000000000E+00 0.  1.
</event>
<event>
 7    1  0.2641580E-009  0.1097616E+03  0.7561462E-02  0.1261012E+00
          1   -1    0    0  501    0  0.00000000000E+00  0.00000000000E+00  0.68729804865E+02  0.68729804865E+02  0.00000000000E+00 0. -1.
         -1   -1    0    0    0  501 -0.00000000000E+00 -0.00000000000E+00 -0.20657394769E+03  0.20657394769E+03  0.00000000000E+00 0.  1.
         25    2    1    2    0    0 -0.14131793733E+02  0.39581965029E+02 -0.48377249259E+02  0.14055222128E+03  0.12509248223E+03 0.  0.
          5    1    3    3  502    0 -0.57741599989E+02  0.59190697162E+02 -0.39520673009E+02  0.91744138749E+02  0.41800000000E+01 0. -1.
         -5    1    3    3    0  502  0.43609806256E+02 -0.19608732132E+02 -0.88565762497E+01  0.48808082531E+02  0.41800000000E+01 0. -1.
        -11    1    1    2    0    0  0.33795542745E+02  0.10120911003E+02 -0.62211676435E+01  0.35822820601E+02  0.00000000000E+00 0. -1.
         11    1    1    2    0    0 -0.19663749011E+02 -0.49702876032E+02 -0.83245725922E+02  0.98928710673E+02  0.00000000000E+00 0.  1.
</event>
<event>
 7    1  0.2641580E-009  0.7799073E+02  0.7561462E-02  0.1334852E+00
         -1   -1    0    0    0  501 -0.00000000000E+00  0.00000000000E+00  0.21290714601E+03  0.21290714601E+03  0.00000000000E+00 0.  1.
          1   -1    0    0  501    0  0.00000000000E+00 -0.00000000000E+00 -0.54365654240E+02  0.54365654240E+02  0.00000000000E+00 0. -1.
         25    2    1    2    0    0  0.21490193788E+02 -0.39005844145E+01  0.10840987848E+03  0.16695991410E+03  0.12508344485E+03 0.  0.
          5    1    3    3  502    0  0.53484713470E+02  0.25445620384E+02  0.11213474806E+02  0.60426058856E+02  0.41800000000E+01 0.  1.
         -5    1    3    3    0  502 -0.31994519682E+02 -0.29346204798E+02  0.97196403674E+02  0.10653385524E+03  0.41800000000E+01 0.  1.
        -11    1    1    2    0    0 -0.35761454165E+02  0.10492931023E+02  0.67364613191E+02  0.76986845083E+02  0.00000000000E+00 0.  1.
         11    1    1    2    0    0  0.14271260378E+02 -0.65923466087E+01 -0.17232999898E+02  0.23326041072E+02  0.00000000000E+00 0. -1.
</event>
<event>
 7    1  0.2641580E-009  0.9795748E+02  0.7561462E-02  0.1284651E+00
          1   -1    0    0  501    0  0.00000000000E+00  0.00000000000E+00  0.30482071310E+03  0.30482071310E+03  0.00000000000E+00 0. -1.
         -1   -1    0    0    0  501 -0.00000000000E+00 -0.00000000000E+00 -0.62544078754E+02  0.62544078754E+02  0.00000000000E+00 0.  1.
         25    2    1    2    0    0 -0.34365037102E+02 -0.27315131006E+01  0.28334104100E+02  0.13281136771E+03  0.12509045127E+03 0.  0.
          5    1    3    3  502    0 -0.74736535708E+02 -0.11933013385E+02 -0.97195736481E+01  0.76419167033E+02  0.41800000000E+01 0.  1.
         -5    1    3    3    0  502  0.40371498606E+02  0.92015002846E+01  0.38053677748E+02  0.56392200678E+02  0.41800000000E+01 0.  1.
        -11    1    1    2    0    0  0.91350204582E+01 -0.33290052330E+02  0.30993136622E+02  0.46392356058E+02  0.00000000000E+00 0.  1.
         11    1    1    2    0    0  0.25230016644E+02  0.36021565431E+02  0.18294939362E+03  0.18816106808E+03  0.00000000000E+00 0. -1.
</event>
<event>
 7    1  0.2641580E-009  0.1162588E+03  0.7561462E-02  0.1249400E+00
         -1   -1    0    0    0  501 -0.00000000000E+00  0.00000000000E+00  0.19309083208E+03  0.19309083208E+03  0.00000000000E+00 0.  1.
          1   -1    0    0  501    0  0.00000000000E+00 -0.00000000000E+00 -0.11900626655E+03  0.11900626655E+03  0.00000000000E+00 0. -1.
         25    2    1    2    0    0  0.10366356333E+03  0.25843733585E+02  0.65580870182E+02  0.17709513590E+03  0.12509118153E+03 0.  0.
          5    1    3    3  502    0  0.98272146659E+02  0.41087979210E+02 -0.28697793443E+01  0.10663650819E+03  0.41800000000E+01 0.  1.
         -5    1    3    3    0  502  0.53914166731E+01 -0.15244245625E+02  0.68450649526E+02  0.70458627712E+02  0.41800000000E+01 0.  1.
        -11    1    1    2    0    0 -0.14676056780E+02  0.42521997382E+01  0.34330525110E+02  0.37577291008E+02  0.00000000000E+00 0.  1.
         11    1    1    2    0    0 -0.88987506552E+02 -0.30095933323E+02 -0.25826829758E+02  0.97424671723E+02  0.00000000000E+00 0. -1.
</event>
<event>
 7    1  0.2641580E-009  0.1155411E+03  0.7561462E-02  0.1250640E+00
          2   -1    0    0  501    0  0.00000000000E+00  0.00000000000E+00  0.27359797820E+03  0.27359797820E+03  0.00000000000E+00 0. -1.
         -2   -1    0    0    0  501 -0.00000000000E+00 -0.00000000000E+00 -0.49882640728E+02  0.49882640728E+02  0.00000000000E+00 0.  1.
         25    2    1    2    0    0  0.32442068196E+02 -0.27868455038E+02  0.12358788446E+03  0.18097135421E+03  0.12509007668E+03 0.  0.
          5    1    3    3  502    0  0.71768132609E+02 -0.49027913445E+02  0.75393411591E+02  0.11513487771E+03  0.41800000000E+01 0. -1.
         -5    1    3    3    0  502 -0.39326064413E+02  0.21159458407E+02  0.48194472870E+02  0.65836476497E+02  0.41800000000E+01 0. -1.
        -11    1    1    2    0    0 -0.40066540493E+02 -0.24055013511E+02  0.32570389164E+02  0.56963159958E+02  0.00000000000E+00 0.  1.
         11    1    1    2    0    0  0.76244722977E+01  0.51923468548E+02  0.67557063846E+02  0.85546104759E+02  0.00000000000E+00 0. -1.
</event>
<event>
 7    1  0.2641580E-009  0.1262770E+03  0.7561462E-02  0.1233087E+00
         -2   -1    0    0    0  501 -0.00000000000E+00  0.00000000000E+00  0.15576948014E+02  0.15576948014E+02  0.00000000000E+00 0. -1.
          2   -1    0    0  501    0  0.00000000000E+00 -0.00000000000E+00 -0.10480011555E+04  0.10480011555E+04  0.00000000000E+00 0.  1.
         25    2    1    2    0    0  0.15389104617E+01 -0.65816200002E+02 -0.60761678610E+03  0.62384275210E+03  0.12508988833E+03 0.  0.
          5    1    3    3  502    0  0.58547064279E+01  0.36168966379E+02 -0.21568212635E+03  0.21881207404E+03  0.41800000000E+01 0. -1.
         -5    1    3    3    0  502 -0.43157959662E+01 -0.10198516638E+03 -0.39193465975E+03  0.40503067806E+03  0.41800000000E+01 0. -1.
        -11    1    1    2    0    0  0.44498178973E+02  0.43968277373E+02 -0.24273825576E+03  0.25066942007E+03  0.00000000000E+00 0.  1.
         11    1    1    2    0    0 -0.46037089435E+02  0.21847922629E+02 -0.18206916563E+03  0.18906593136E+03  0.00000000000E+00 0. -1.
</event>
<event>
 7    1  0.2641580E-009  0.8590633E+02  0.7561462E-02  0.1313079E+00
         -1   -1    0    0    0  501 -0.00000000000E+00  0.00000000000E+00  0.65643408333E+02  0.65643408333E+02  0.00000000000E+00 0.  1.
          1   -1    0    0  501    0  0.00000000000E+00 -0.00000000000E+00 -0.35413940027E+03  0.35413940027E+03  0.00000000000E+00 0. -1.
         25    2    1    2    0    0 -0.35730725595E+02 -0.62763707726E+02 -0.45479877549E+02  0.15143505269E+03  0.12509271827E+03 0.  0.
          5    1    3    3  502    0 -0.18437710991E+02  0.10953117743E+02  0.34743471980E+02  0.41042675597E+02  0.41800000000E+01 0. -1.
         -5    1    3    3    0  502 -0.17293014604E+02 -0.73716825469E+02 -0.80223349530E+02  0.11039237710E+03  0.41800000000E+01 0. -1.
        -11    1    1    2    0    0  0.25059153588E+02  0.56371670661E+02 -0.24753992802E+03  0.25511123534E+03  0.00000000000E+00 0. -1.
         11    1    1    2    0    0  0.10671572007E+02  0.63920370647E+01  0.45238136349E+01  0.13236520568E+02  0.00000000000E+00 0.  1.
</event>
<event>
 7    1  0.2641580E-009  0.8362429E+02  0.7561462E-02  0.1319070E+00
         -2   -1    0    0    0  501 -0.00000000000E+00  0.00000000000E+00  0.40606715116E+02  0.40606715116E+02  0.00000000000E+00 0.  1.
          2   -1    0    0  501    0  0.00000000000E+00 -0.00000000000E+00 -0.29689868280E+03  0.29689868280E+03  0.00000000000E+00 0. -1.
         25    2    1    2    0    0  0.19445743692E+02 -0.48975672765E+00 -0.15016025774E+03  0.19640545975E+03  0.12509446354E+03 0.  0.
          5    1    3    3  502    0 -0.41126026321E+02 -0.37224170526E+02 -0.65010197624E+02  0.85561598322E+02  0.41800000000E+01 0.  1.
         -5    1    3    3    0  502  0.60571770013E+02  0.36734413798E+02 -0.85150060113E+02  0.11084386143E+03  0.41800000000E+01 0.  1.
        -11    1    1    2    0    0  0.10219559280E+02 -0.33265913907E+01  0.13802035978E+02  0.17492907114E+02  0.00000000000E+00 0.  1.
         11    1    1    2    0    0 -0.29665302972E+02  0.38163481184E+01 -0.11993374593E+03  0.12360703105E+03  0.00000000000E+00 0. -1.
</event>
<event>
 7    1  0.2641580E-009  0.1739562E+03  0.7561462E-02  0.1173784E+00
          2   -1    0    0  501    0  0.00000000000E+00  0.00000000000E+00  0.14088478246E+04  0.14088478246E+04  0.00000000000E+00 0.  1.
         -2   -1    0    0    0  501 -0.00000000000E+00 -0.00000000000E+00 -0.27801042162E+02  0.27801042162E+02  0.00000000000E+00 0. -1.
         25    2    1    2    0    0 -0.14844354813E+03  0.29788654077E+02  0.96052678766E+03  0.98039905740E+03  0.12509097111E+03 0.  0.
          5    1    3    3  502    0 -0.96119706112E+02 -0.27121892949E+02  0.73906501974E+03  0.74579432204E+03  0.41800000000E+01 0.  1.
         -5    1    3    3    0  502 -0.52323842015E+02  0.56910547026E+02  0.22146176791E+03  0.23460473536E+03  0.41800000000E+01 0.  1.
        -11    1    1    2    0    0  0.12583619711E+03 -0.54417981966E+02  0.27940391831E+03  0.31122759330E+03  0.00000000000E+00 0.  1.
         11    1    1    2    0    0  0.22607351013E+02  0.24629327889E+02  0.14111607648E+03  0.14502221607E+03  0.00000000000E+00 0. -1.
</event>
<event>
 7    1  0.2641580E-009  0.9601071E+02  0.7561462E-02  0.1288916E+00
         -2   -1    0    0    0  501 -0.00000000000E+00  0.00000000000E+00  0.22607867926E+02  0.22607867926E+02  0.00000000000E+00 0.  1.
          2   -1    0    0  501    0  0.00000000000E+00 -0.00000000000E+00 -0.72049817683E+03  0.72049817683E+03  0.00000000000E+00 0. -1.
         25    2    1    2    0    0  0.27155260012E+02  0.42860857169E+02 -0.25778973001E+03  0.29099446207E+03  0.12509105016E+03 0.  0.
          5    1    3    3  502    0  0.18428041037E+02 -0.18994914863E+02 -0.21135384353E+03  0.21304534509E+03  0.41800000000E+01 0.  1.
         -5    1    3    3    0  502  0.87272189750E+01  0.61855772032E+02 -0.46435886480E+02  0.77949116980E+02  0.41800000000E+01 0.  1.
        -11    1    1    2    0    0  0.19101067491E+02  0.17952873397E+02 -0.14029230496E+03  0.14272031136E+03  0.00000000000E+00 0.  1.
         11    1    1    2    0    0 -0.46256327503E+02 -0.60813730566E+02 -0.29980827393E+03  0.30939127133E+03  0.00000000000E+00 0. -1.
</event>
<event>
 7    1  0.2641580E-009  0.1480789E+03  0.7561462E-02  0.1202854E+00
         -1   -1    0    0    0  501 -0.00000000000E+00  0.00000000000E+00  0.15222064764E+03  0.15222064764E+03  0.00000000000E+00 0.  1.
          1   -1    0    0  501    0  0.00000000000E+00 -0.00000000000E+00 -0.15565126974E+03  0.15565126974E+03  0.00000000000E+00 0. -1.
         25    2    1    2    0    0 -0.43762534011E+02 -0.96763029140E+02 -0.26551590391E+02  0.16622168785E+03  0.12508564813E+03 0.  0.
          5    1    3    3  502    0 -0.82759000759E+02 -0.74082977163E+02 -0.41298727745E+02  0.11857654500E+03  0.41800000000E+01 0. -1.
         -5    1    3    3    0  502  0.38996466749E+02 -0.22680051977E+02  0.14747137354E+02  0.47645142845E+02  0.41800000000E+01 0. -1.
        -11    1    1    2    0    0 -0.23464799234E+02  0.56886499941E+02  0.12072573468E+02  0.62708992248E+02  0.00000000000E+00 0.  1.
         11    1    1    2    0    0  0.67227333245E+02  0.39876529199E+02  0.11048394825E+02  0.78941237287E+02  0.00000000000E+00 0. -1.
</event>
<event>
 7    1  0.2641580E-009  0.1264077E+03  0.7561462E-02  0.1232886E+00
         -4   -1    0    0    0  501 -0.00000000000E+00  0.00000000000E+00  0.20357180074E+03  0.20357180074E+03  0.00000000000E+00 0.  1.
          4   -1    0    0  501    0  0.00000000000E+00 -0.00000000000E+00 -0.10269983754E+03  0.10269983754E+03  0.00000000000E+00 0. -1.
         25    2    1    2    0    0 -0.91613075576E+02 -0.15761774973E+02  0.87366989276E+02  0.17865659560E+03  0.12507517408E+03 0.  0.
          5    1    3    3  502    0 -0.10466447956E+03  0.43306963991E+01  0.10518384080E+03  0.14850764620E+03  0.41800000000E+01 0. -1.
         -5    1    3    3    0  502  0.13051403986E+02 -0.20092471372E+02 -0.17816851527E+02  0.30148949404E+02  0.41800000000E+01 0. -1.
        -11    1    1    2    0    0  0.10257547887E+03  0.28877638024E+02  0.12291811707E+01  0.10656996636E+03  0.00000000000E+00 0. -1.
         11    1    1    2    0    0 -0.10962403291E+02 -0.13115863050E+02  0.12275792756E+02  0.21045076319E+02  0.00000000000E+00 0.  1.
</event>
<event>
 7    1  0.2641580E-009  0.1278587E+03  0.7561462E-02  0.1230668E+00
         -2   -1    0    0    0  501 -0.00000000000E+00  0.00000000000E+00  0.40933541471E+03  0.40933541471E+03  0.00000000000E+00 0.  1.
          2   -1    0    0  501    0  0.00000000000E+00 -0.00000000000E+00 -0.42097241428E+02  0.42097241428E+02  0.00000000000E+00 0. -1.
         25    2    1    2    0    0 -0.73465848106E+02  0.15219077501E+02  0.20678686509E+03  0.25305453359E+03  0.12508772216E+03 0.  0.
          5    1    3    3  502    0 -0.10714686837E+02 -0.49312347453E+02  0.10837928171E+03  0.11962463471E+03  0.41800000000E+01 0.  1.
         -5    1    3    3    0  502 -0.62751161268E+02  0.64531424954E+02  0.98407583377E+02  0.13342989887E+03  0.41800000000E+01 0.  1.
        -11    1    1    2    0    0  0.92889517827E+02 -0.19891786019E+02  0.14393510223E+03  0.17245712316E+03  0.00000000000E+00 0.  1.
         11    1    1    2    0    0 -0.19423669721E+02  0.46727085178E+01  0.16516205955E+02  0.25920999392E+02  0.00000000000E+00 0. -1.
</event>
<event>
 7    1  0.2641580E-009  0.1089436E+03  0.7561462E-02  0.1262539E+00
          1   -1    0    0  501    0  0.00000000000E+00  0.00000000000E+00  0.34475634486E+03  0.34475634486E+03  0.00000000000E+00 0. -1.
         -1   -1    0    0    0  501 -0.00000000000E+00 -0.00000000000E+00 -0.45445837324E+02  0.45445837324E+02  0.00000000000E+00 0.  1.
         25    2    1    2    0    0  0.46121134000E+02 -0.37415770572E+02  0.15145985849E+03  0.20521927536E+03  0.12509102028E+03 0.  0.
          5    1    3    3  502    0 -0.32050577602E+02 -0.37773996513E+02  0.99592933013E+02  0.11131189983E+03  0.41800000000E+01 0.  1.
         -5    1    3    3    0  502  0.78171711602E+02  0.35822594136E+00  0.51866925481E+02  0.93907375533E+02  0.41800000000E+01 0.  1.
        -11    1    1    2    0    0 -0.58217724296E+02  0.46704498190E+02  0.59847222618E+02  0.95667672850E+02  0.00000000000E+00 0.  1.
         11    1    1    2    0    0  0.12096590296E+02 -0.92887276183E+01  0.88003426420E+02  0.89315233971E+02  0.00000000000E+00 0. -1.
</event>
<event>
 7    1  0.2641580E-009  0.1012447E+03  0.7561462E-02  0.1277700E+00
         -1   -1    0    0    0  501 -0.00000000000E+00  0.00000000000E+00  0.31054102936E+03  0.31054102936E+03  0.00000000000E+00 0.  1.
          1   -1    0    0  501    0  0.00000000000E+00 -0.00000000000E+00 -0.69982761382E+02  0.69982761382E+02  0.00000000000E+00 0. -1.
         25    2    1    2    0    0  0.21440639933E+02  0.67010676051E+02  0.48799726755E+02  0.15157030514E+03  0.12506803078E+03 0.  0.
          5    1    3    3  502    0  0.12048782947E+02 -0.87538002177E+00 -0.38464569354E+02  0.40533134054E+02  0.41800000000E+01 0.  1.
         -5    1    3    3    0  502  0.93918569865E+01  0.67886056073E+02  0.87264296109E+02  0.11103717108E+03  0.41800000000E+01 0.  1.
        -11    1    1    2    0    0 -0.60017571590E+02 -0.52793421651E+02  0.15212790798E+03  0.17184922070E+03  0.00000000000E+00 0. -1.
         11    1    1    2    0    0  0.38576931657E+02 -0.14217254400E+02  0.39630633237E+02  0.57104264897E+02  0.00000000000E+00 0.  1.
</event>
<event>
 7    1  0.2641580E-009  0.1155234E+03  0.7561462E-02  0.1250670E+00
         -2   -1    0    0    0  501 -0.00000000000E+00  0.00000000000E+00  0.34158406975E+02  0.34158406975E+02  0.00000000000E+00 0.  1.
          2   -1    0    0  501    0  0.00000000000E+00 -0.00000000000E+00 -0.51026571968E+03  0.51026571968E+03  0.00000000000E+00 0. -1.
         25    2    1    2    0    0  0.35578099689E+02  0.50780965571E+02 -0.17795593285E+03  0.22618619218E+03  0.12508945541E+03 0.  0.
          5    1    3    3  502    0 -0.38281625421E+02 -0.23288720976E+01 -0.96797099616E+02  0.10420200278E+03  0.41800000000E+01 0. -1.
         -5    1    3    3    0  502  0.73859725110E+02  0.53109837669E+02 -0.81158833237E+02  0.12198418940E+03  0.41800000000E+01 0. -1.
        -11    1    1    2    0    0  0.24436733814E+01  0.20482130549E+02 -0.20520230334E+02  0.29095859919E+02  0.00000000000E+00 0.  1.
         11    1    1    2    0    0 -0.38021773070E+02 -0.71263096120E+02 -0.27763114951E+03  0.28914207455E+03  0.00000000000E+00 0. -1.
</event>
<event>
 7    1  0.2641580E-009  0.1131314E+03  0.7561462E-02  0.1254878E+00
          2   -1    0    0  501    0  0.00000000000E+00  0.00000000000E+00  0.77347450485E+03  0.77347450485E+03  0.00000000000E+00 0. -1.
         -2   -1    0    0    0  501 -0.00000000000E+00 -0.00000000000E+00 -0.17446622600E+02  0.17446622600E+02  0.00000000000E+00 0.  1.
         25    2    1    2    0    0  0.38476857899E+02  0.88549592682E+01  0.39230428082E+03  0.41364625050E+03  0.12506675378E+03 0.  0.
          5    1    3    3  502    0  0.81891427785E+02  0.95837687406E+01  0.19830389860E+03  0.21480214889E+03  0.41800000000E+01 0.  1.
         -5    1    3    3    0  502 -0.43414569887E+02 -0.72880947236E+00  0.19400038222E+03  0.19884410160E+03  0.41800000000E+01 0.  1.
        -11    1    1    2    0    0 -0.61088856104E+02 -0.30940219961E+02  0.24004418903E+03  0.24962042833E+03  0.00000000000E+00 0.  1.
         11    1    1    2    0    0  0.22611998206E+02  0.22085260693E+02  0.12367941240E+03  0.12765444862E+03  0.00000000000E+00 0. -1.
</event>
<event>
 7    1  0.2641580E-009  0.1016504E+03  0.7561462E-02  0.1276863E+00
         -2   -1    0    0    0  501 -0.00000000000E+00  0.00000000000E+00  0.52360209538E+02  0.52360209538E+02  0.00000000000E+00 0.  1.
          2   -1    0    0  501    0  0.00000000000E+00 -0.00000000000E+00 -0.30388602099E+03  0.30388602099E+03  0.00000000000E+00 0. -1.
         25    2    1    2    0    0  0.66165101460E+02  0.14248866539E+02 -0.19669153463E+03  0.24272814308E+03  0.12509412775E+03 0.  0.
          5    1    3    3  502    0  0.87365630786E+02  0.32118018583E+02 -0.19317008519E+03  0.21446788751E+03  0.41800000000E+01 0. -1.
         -5    1    3    3    0  502 -0.21200529325E+02 -0.17869152043E+02 -0.35214494365E+01  0.28260255564E+02  0.41800000000E+01 0. -1.
        -11    1    1    2    0    0 -0.26185383109E+02 -0.29363495511E+02  0.53453583473E+01  0.39704685027E+02  0.00000000000E+00 0.  1.
         11    1    1    2    0    0 -0.39979718351E+02  0.15114628972E+02 -0.60179635172E+02  0.73813402427E+02  0.00000000000E+00 0. -1.
</event>
<event>
 7    1  0.2641580E-009  0.9576410E+02  0.7561462E-02  0.1289464E+00
         -2   -1    0    0    0  501 -0.00000000000E+00  0.00000000000E+00  0.15820650928E+03  0.15820650928E+03  0.00000000000E+00 0.  1.
          2   -1    0    0  501    0  0.00000000000E+00 -0.00000000000E+00 -0.10232418854E+03  0.10232418854E+03  0.00000000000E+00 0. -1.
         25    2    1    2    0    0  0.56050613691E+01 -0.67148058062E+02  0.11879522568E+02  0.14258276423E+03  0.12509373759E+03 0.  0.
          5    1    3    3  502    0  0.24834320317E+02 -0.56213300233E+02  0.62149187586E+02  0.87502414288E+02  0.41800000000E+01 0.  1.
         -5    1    3    3    0  502 -0.19229258948E+02 -0.10934757829E+02 -0.50269665018E+02  0.55080349940E+02  0.41800000000E+01 0.  1.
        -11    1    1    2    0    0  0.34308767382E+02  0.56514126680E+02  0.37864272119E+02  0.76188195521E+02  0.00000000000E+00 0. -1.
         11    1    1    2    0    0 -0.39913828751E+02  0.10633931382E+02  0.61385260561E+01  0.41759738078E+02  0.00000000000E+00 0.  1.
</event>
<event>
 7    1  0.2641580E-009  0.1366413E+03  0.7561462E-02  0.1217921E+00
          2   -1    0    0  501    0  0.00000000000E+00  0.00000000000E+00  0.38313402040E+03  0.38313402040E+03  0.00000000000E+00 0. -1.
         -2   -1    0    0    0  501 -0.00000000000E+00 -0.00000000000E+00 -0.60376561635E+02  0.60376561635E+02  0.00000000000E+00 0.  1.
         25    2    1    2    0    0 -0.87559233704E+02 -0.54472669999E+02  0.13356518598E+03  0.21005001253E+03  0.12508979844E+03 0.  0.
          5    1    3    3  502    0 -0.94289296136E+02 -0.13475431146E+01  0.12343625942E+03  0.15539070042E+03  0.41800000000E+01 0.  1.
         -5    1    3    3    0  502  0.67300624321E+01 -0.53125126884E+02  0.10128926561E+02  0.54659312108E+02  0.41800000000E+01 0.  1.
        -11    1    1    2    0    0  0.62919353214E+02 -0.26428250490E+01  0.48028998445E+02  0.79199837277E+02  0.00000000000E+00 0.  1.
         11    1    1    2    0    0  0.24639880490E+02  0.57115495048E+02  0.14116327433E+03  0.15426073222E+03  0.00000000000E+00 0. -1.
</event>
<event>
 7    1  0.2641580E-009  0.1483231E+03  0.7561462E-02  0.1202549E+00
         -1   -1    0    0    0  501 -0.00000000000E+00  0.00000000000E+00  0.19057710009E+03  0.19057710009E+03  0.00000000000E+00 0.  1.
          1   -1    0    0  501    0  0.00000000000E+00 -0.00000000000E+00 -0.16633016113E+03  0.16633016113E+03  0.00000000000E+00 0. -1.
         25    2    1    2    0    0 -0.10360758763E+03 -0.76467200167E+02  0.70736252205E+02  0.19295416831E+03  0.12508368708E+03 0.  0.
          5    1    3    3  502    0 -0.10610778804E+03 -0.29359968173E+02  0.28874856081E+01  0.11021197933E+03  0.41800000000E+01 0.  1.
         -5    1    3    3    0  502  0.25002004095E+01 -0.47107231994E+02  0.67848766597E+02  0.82742188979E+02  0.41800000000E+01 0.  1.
        -11    1    1    2    0    0 -0.96969585333E+00  0.20460314667E+02  0.19434609621E+02  0.28235949381E+02  0.00000000000E+00 0.  1.
         11    1    1    2    0    0  0.10457728349E+03  0.56006885500E+02 -0.65923922864E+02  0.13571714354E+03  0.00000000000E+00 0. -1.
</event>
<event>
 7    1  0.2641580E-009  0.2284018E+03  0.7561462E-02  0.1127770E+00
          1   -1    0    0  501    0  0.00000000000E+00  0.00000000000E+00  0.12020398094E+04  0.12020398094E+04  0.00000000000E+00 0. -1.
         -1   -1    0    0    0  501 -0.00000000000E+00 -0.00000000000E+00 -0.51749397819E+02  0.51749397819E+02  0.00000000000E+00 0.  1.
         25    2    1    2    0    0 -0.17931871999E+03 -0.10269926875E+03  0.37045744432E+03  0.44225425549E+03  0.12509102808E+03 0.  0.
          5    1    3    3  502    0 -0.16145744900E+03 -0.27200552189E+02  0.25641963419E+03  0.30426448868E+03  0.41800000000E+01 0. -1.
         -5    1    3    3    0  502 -0.17861270996E+02 -0.75498716561E+02  0.11403781013E+03  0.13798976681E+03  0.41800000000E+01 0. -1.
        -11    1    1    2    0    0  0.11114156672E+03  0.28871668161E+02  0.52901754062E+03  0.54133684464E+03  0.00000000000E+00 0. -1.
         11    1    1    2    0    0  0.68177153275E+02  0.73827600590E+02  0.25081542667E+03  0.27019810713E+03  0.00000000000E+00 0.  1.
</event>
<event>
 7    1  0.2641580E-009  0.9478246E+02  0.7561462E-02  0.1291667E+00
          1   -1    0    0  501    0  0.00000000000E+00  0.00000000000E+00  0.58383908795E+02  0.58383908795E+02  0.00000000000E+00 0. -1.
         -1   -1    0    0    0  501 -0.00000000000E+00 -0.00000000000E+00 -0.23943891917E+03  0.23943891917E+03  0.00000000000E+00 0.  1.
         25    2    1    2    0    0 -0.11162565134E+02 -0.40167887353E+02 -0.78921246228E+02  0.15366737766E+03  0.12508812020E+03 0.  0.
          5    1    3    3  502    0  0.43756396743E+02 -0.58951840406E+02 -0.47365360452E+02  0.87469374720E+02  0.41800000000E+01 0.  1.
         -5    1    3    3    0  502 -0.54918961876E+02  0.18783953053E+02 -0.31555885775E+02  0.66198002938E+02  0.41800000000E+01 0.  1.
        -11    1    1    2    0    0 -0.79723202284E+01  0.37711647917E+02  0.16631109819E+01  0.38580982577E+02  0.00000000000E+00 0. -1.
         11    1    1    2    0    0  0.19134885362E+02  0.24562394356E+01 -0.10379687512E+03  0.10557446773E+03  0.00000000000E+00 0.  1.
</event>
<event>
 7    1  0.2641580E-009  0.1092491E+03  0.7561462E-02  0.1261967E+00
          1   -1    0    0  501    0  0.00000000000E+00  0.00000000000E+00  0.84401829929E+03  0.84401829929E+03  0.00000000000E+00 0. -1.
         -1   -1    0    0    0  501 -0.00000000000E+00 -0.00000000000E+00 -0.25831433558E+02  0.25831433558E+02  0.00000000000E+00 0.  1.
         25    2    1    2    0    0  0.18592878557E+02 -0.65297723247E+02  0.65012053954E+03  0.66551765479E+03  0.12509014795E+03 0.  0.
          5    1    3    3  502    0  0.61236864527E+02 -0.20790120537E+02  0.17912277795E+03  0.19048523478E+03  0.41800000000E+01 0.  1.
         -5    1    3    3    0  502 -0.42643985970E+02 -0.44507602710E+02  0.47099776159E+03  0.47503242001E+03  0.41800000000E+01 0.  1.
        -11    1    1    2    0    0  0.12596425879E+02  0.58695428078E+02  0.16079093294E+03  0.17163201140E+03  0.00000000000E+00 0. -1.
         11    1    1    2    0    0 -0.31189304436E+02  0.66022951682E+01  0.72753932604E+01  0.32700066663E+02  0.00000000000E+00 0.  1.
</event>
<event>
 7    1  0.2641580E-009  0.8589004E+02  0.7561462E-02  0.1313121E+00
         -1   -1    0    0    0  501 -0.00000000000E+00  0.00000000000E+00  0.63304316854E+02  0.63304316854E+02  0.00000000000E+00 0.  1.
          1   -1    0    0  501    0  0.00000000000E+00 -0.00000000000E+00 -0.18594843028E+03  0.18594843028E+03  0.00000000000E+00 0. -1.
         25    2    1    2    0    0 -0.37135272700E+01  0.12096852935E+01 -0.99226620056E+02  0.15971687911E+03  0.12509318815E+03 0.  0.
          5    1    3    3  502    0 -0.51698231142E+02  0.37969426970E+02 -0.45702300911E+02  0.78870509040E+02  0.41800000000E+01 0.  1.
         -5    1    3    3    0  502  0.47984703872E+02 -0.36759741677E+02 -0.53524319145E+02  0.80846370072E+02  0.41800000000E+01 0.  1.
        -11    1    1    2    0    0 -0.93750905495E+01 -0.21105719573E+02 -0.49252947523E+02  0.54398497784E+02  0.00000000000E+00 0. -1.
         11    1    1    2    0    0  0.13088617819E+02  0.19896034280E+02  0.25835454149E+02  0.35137370242E+02  0.00000000000E+00 0.  1.
</event>
<event>
 7    1  0.2641580E-009  0.8613051E+02  0.7561462E-02  0.1312502E+00
         -1   -1    0    0    0  501 -0.00000000000E+00  0.00000000000E+00  0.33149242080E+03  0.33149242080E+03  0.00000000000E+00 0.  1.
          1   -1    0    0  501    0  0.00000000000E+00 -0.00000000000E+00 -0.50240918628E+02  0.50240918628E+02  0.00000000000E+00 0. -1.
         25    2    1    2    0    0  0.46659207828E+01  0.19417002583E+02  0.25856718123E+03  0.28793119308E+03  0.12509434012E+03 0.  0.
          5    1    3    3  502    0  0.15733378476E+02 -0.35224203416E+02  0.21502620093E+02  0.44363484708E+02  0.41800000000E+01 0.  1.
         -5    1    3    3    0  502 -0.11067457693E+02  0.54641205999E+02  0.23706456114E+03  0.24356770837E+03  0.41800000000E+01 0.  1.
        -11    1    1    2    0    0 -0.15816944142E+02 -0.46042423757E+02  0.37409870852E+02  0.61396896864E+02  0.00000000000E+00 0.  1.
         11    1    1    2    0    0  0.11151023359E+02  0.26625421174E+02 -0.14725549905E+02  0.32405249492E+02  0.00000000000E+00 0. -1.
</event>
<event>
 7    1  0.2641580E-009  0.2117807E+03  0.7561462E-02  0.1140164E+00
         -2   -1    0    0    0  501 -0.00000000000E+00  0.00000000000E+00  0.63310294043E+02  0.63310294043E+02  0.00000000000E+00 0.  1.
          2   -1    0    0  501    0  0.00000000000E+00 -0.00000000000E+00 -0.80126023575E+03  0.80126023575E+03  0.00000000000E+00 0. -1.
         25    2    1    2    0    0 -0.53787625959E+02  0.17890485510E+03 -0.26369944716E+03  0.34653059044E+03  0.12508395497E+03 0.  0.
          5    1    3    3  502    0 -0.80554690778E+02  0.56220453901E+02 -0.10084299269E+03  0.14084239141E+03  0.41800000000E+01 0. -1.
         -5    1    3    3    0  502  0.26767064819E+02  0.12268440120E+03 -0.16285645447E+03  0.20568819903E+03  0.41800000000E+01 0. -1.
        -11    1    1    2    0    0 -0.79256569325E+01 -0.95586724031E+02 -0.15403373981E+03  0.18145531364E+03  0.00000000000E+00 0.  1.
         11    1    1    2    0    0  0.61713282891E+02 -0.83318131073E+02 -0.32021675474E+03  0.33658462571E+03  0.00000000000E+00 0. -1.
</event>
<event>
 7    1  0.2641580E-009  0.1776400E+03  0.7561462E-02  0.1170107E+00
          1   -1    0    0  501    0  0.00000000000E+00  0.00000000000E+00  0.66596763867E+03  0.66596763867E+03  0.00000000000E+00 0. -1.
         -1   -1    0    0    0  501 -0.00000000000E+00 -0.00000000000E+00 -0.54441530567E+02  0.54441530567E+02  0.00000000000E+00 0.  1.
         25    2    1    2    0    0 -0.39788143649E+02  0.14761438874E+03  0.28491684328E+03  0.34669663996E+03  0.12509136037E+03 0.  0.
          5    1    3    3  502    0 -0.56839797558E+02  0.16164013226E+03  0.26971912696E+03  0.31956873250E+03  0.41800000000E+01 0. -1.
         -5    1    3    3    0  502  0.17051653909E+02 -0.14025743511E+02  0.15197716314E+02  0.27127907462E+02  0.41800000000E+01 0. -1.
        -11    1    1    2    0    0  0.48796114776E+02 -0.83827213227E+02  0.10506359156E+03  0.14299098142E+03  0.00000000000E+00 0.  1.
         11    1    1    2    0    0 -0.90079711272E+01 -0.63787175516E+02  0.22154567326E+03  0.23072154785E+03  0.00000000000E+00 0. -1.
</event>
<event>
 7    1  0.2641580E-009  0.1052932E+03  0.7561462E-02  0.1269543E+00
          2   -1    0    0  501    0  0.00000000000E+00  0.00000000000E+00  0.75509965912E+02  0.75509965912E+02  0.00000000000E+00 0. -1.
         -2   -1    0    0    0  501 -0.00000000000E+00 -0.00000000000E+00 -0.29154681521E+03  0.29154681521E+03  0.00000000000E+00 0.  1.
         25    2    1    2    0    0 -0.79103987405E+02 -0.32583664113E+02 -0.40349737219E+02  0.15682490521E+03  0.12508722401E+03 0.  0.
          5    1    3    3  502    0 -0.17750683000E+02  0.98414124022E+01  0.41266805769E+02  0.46177503217E+02  0.41800000000E+01 0. -1.
         -5    1    3    3    0  502 -0.61353304405E+02 -0.42425076516E+02 -0.81616542988E+02  0.11064740199E+03  0.41800000000E+01 0. -1.
        -11    1    1    2    0    0 -0.48650925809E+01  0.30783742441E+02 -0.40942268418E+02  0.51454613668E+02  0.00000000000E+00 0. -1.
         11    1    1    2    0    0  0.83969079986E+02  0.17999216720E+01 -0.13474484366E+03  0.15877726224E+03  0.00000000000E+00 0.  1.
</event>
<event>
 7    1  0.2641580E-009  0.1155101E+03  0.7561462E-02  0.1250693E+00
         -1   -1    0    0    0  501 -0.00000000000E+00  0.00000000000E+00  0.61646819640E+02  0.61646819640E+02  0.00000000000E+00 0.  1.
          1   -1    0    0  501    0  0.00000000000E+00 -0.00000000000E+00 -0.35904221800E+03  0.35904221800E+03  0.00000000000E+00 0. -1.
         25    2    1    2    0    0  0.68714778304E+02 -0.59681301627E+02 -0.23379614411E+03  0.28034160084E+03  0.12508875903E+03 0.  0.
          5    1    3    3  502    0  0.69023025215E+02 -0.28673251820E+02 -0.23732679793E+03  0.24885299837E+03  0.41800000000E+01 0. -1.
         -5    1    3    3    0  502 -0.30824691070E+00 -0.31008049807E+02  0.35306538173E+01  0.31488602468E+02  0.41800000000E+01 0. -1.
        -11    1    1    2    0    0 -0.88109091806E+02  0.57823190069E+02 -0.56741384889E+02  0.11969259847E+03  0.00000000000E+00 0.  1.
         11    1    1    2    0    0  0.19394313501E+02  0.18581115578E+01 -0.68578693596E+01  0.20654838341E+02  0.00000000000E+00 0. -1.
</event>
<event>
 7    1  0.2641580E-009  0.2432031E+03  0.7561462E-02  0.1117677E+00
          1   -1    0    0  501    0  0.00000000000E+00  0.00000000000E+00  0.21351896838E+03  0.21351896838E+03  0.00000000000E+00 0. -1.
         -1   -1    0    0    0  501 -0.00000000000E+00 -0.00000000000E+00 -0.33473841466E+03  0.33473841466E+03  0.00000000000E+00 0.  1.
         25    2    1    2    0    0  0.20946656172E+03  0.85568706428E+02  0.31143088266E+02  0.26041387720E+03  0.12508897430E+03 0.  0.
          5    1    3    3  502    0  0.17349203169E+03  0.11798646675E+03  0.27921725432E+02  0.21170117276E+03  0.41800000000E+01 0.  1.
         -5    1    3    3    0  502  0.35974530035E+02 -0.32417760321E+02  0.32213628342E+01  0.48712704442E+02  0.41800000000E+01 0.  1.
        -11    1    1    2    0    0 -0.92683695025E+02 -0.52741928142E+02 -0.12346007077E+03  0.16313910440E+03  0.00000000000E+00 0.  1.
         11    1    1    2    0    0 -0.11678286670E+03 -0.32826778287E+02 -0.28902463776E+02  0.12470440144E+03  0.00000000000E+00 0. -1.
</event>
<event>
 7    1  0.2641580E-009  0.9404017E+02  0.7561462E-02  0.1293353E+00
         -1   -1    0    0    0  501 -0.00000000000E+00  0.00000000000E+00  0.64709596859E+02  0.64709596859E+02  0.00000000000E+00 0.  1.
          1   -1    0    0  501    0  0.00000000000E+00 -0.00000000000E+00 -0.20737957339E+03  0.20737957339E+03  0.00000000000E+00 0. -1.
         25    2    1    2    0    0  0.82692118671E+01  0.36237444131E+01 -0.13246318622E+03  0.18240858406E+03  0.12507951250E+03 0.  0.
          5    1    3    3  502    0 -0.44089692465E+02 -0.92106778289E+01 -0.11809401193E+03  0.12646108343E+03  0.41800000000E+01 0. -1.
         -5    1    3    3    0  502  0.52358904332E+02  0.12834422242E+02 -0.14369174285E+02  0.55947500630E+02  0.41800000000E+01 0. -1.
        -11    1    1    2    0    0  0.38818905623E+02  0.93554896741E+01 -0.79702810811E+00  0.39938300848E+02  0.00000000000E+00 0. -1.
         11    1    1    2    0    0 -0.47088117490E+02 -0.12979234087E+02 -0.94097622044E+01  0.49742285342E+02  0.00000000000E+00 0.  1.
</event>
<event>
 7    1  0.2641580E-009  0.1528567E+03  0.7561462E-02  0.1197006E+00
         -2   -1    0    0    0  501 -0.00000000000E+00  0.00000000000E+00  0.62851892095E+02  0.62851892095E+02  0.00000000000E+00 0.  1.
          2   -1    0    0  501    0  0.00000000000E+00 -0.00000000000E+00 -0.39392031248E+03  0.39392031248E+03  0.00000000000E+00 0. -1.
         25    2    1    2    0    0 -0.77293910906E+02  0.79481260620E+02 -0.15552020396E+03  0.22831216930E+03  0.12509313873E+03 0.  0.
          5    1    3    3  502    0 -0.22496255545E+01  0.88078882562E+02 -0.60995514947E+02  0.10724213543E+03  0.41800000000E+01 0.  1.
         -5    1    3    3    0  502 -0.75044285351E+02 -0.85976219423E+01 -0.94524689011E+02  0.12107003386E+03  0.41800000000E+01 0.  1.
        -11    1    1    2    0    0 -0.13476220540E+02 -0.41192243572E+02 -0.30018594621E+02  0.52721205160E+02  0.00000000000E+00 0.  1.
         11    1    1    2    0    0  0.90770131445E+02 -0.38289017048E+02 -0.14552962181E+03  0.17573883012E+03  0.00000000000E+00 0. -1.
</event>
<event>
 7    1  0.2641580E-009  0.1425785E+03  0.7561462E-02  0.1209901E+00
          2   -1    0    0  501    0  0.00000000000E+00  0.00000000000E+00  0.41530285184E+03  0.41530285184E+03  0.00000000000E+00 0. -1.
         -2   -1    0    0    0  501 -0.00000000000E+00 -0.00000000000E+00 -0.59320769884E+02  0.59320769884E+02  0.00000000000E+00 0.  1.
         25    2    1    2    0    0  0.63692513775E+02  0.92507996252E+02  0.21616096832E+03  0.27384030186E+03  0.12509388880E+03 0.  0.
          5    1    3    3  502    0  0.85306188930E+02  0.73900910811E+02  0.21740223381E+03  0.24498917151E+03  0.41800000000E+01 0. -1.
         -5    1    3    3    0  502 -0.21613675155E+02  0.18607085441E+02 -0.12412654975E+01  0.28851130348E+02  0.41800000000E+01 0. -1.
        -11    1    1    2    0    0 -0.79331625127E+02 -0.40479729545E+02  0.77041163344E+02  0.11776016346E+03  0.00000000000E+00 0.  1.
         11    1    1    2    0    0  0.15639111352E+02 -0.52028266707E+02  0.62779950293E+02  0.83023156404E+02  0.00000000000E+00 0. -1.
</event>
<event>
 7    1  0.2641580E-009  0.1295890E+03  0.7561462E-02  0.1228067E+00
          1   -1    0    0  501    0  0.00000000000E+00  0.00000000000E+00  0.13263749320E+03  0.13263749320E+03  0.00000000000E+00 0. -1.
         -1   -1    0    0    0  501 -0.00000000000E+00 -0.00000000000E+00 -0.15969681625E+03  0.15969681625E+03  0.00000000000E+00 0.  1.
         25    2    1    2    0    0 -0.30849335430E+02 -0.66893056134E+02  0.48461317270E+02  0.15301562446E+03  0.12505566601E+03 0.  0.
          5    1    3    3  502    0  0.44643285286E+02 -0.34036471135E+01  0.25336364156E+02  0.51614062846E+02  0.41800000000E+01 0.  1.
         -5    1    3    3    0  502 -0.75492620716E+02 -0.63489409021E+02  0.23124953114E+02  0.10140156161E+03  0.41800000000E+01 0.  1.
        -11    1    1    2    0    0 -0.96322920040E+01 -0.18567590112E+02 -0.23232627329E+02  0.31261660615E+02  0.00000000000E+00 0. -1.
         11    1    1    2    0    0  0.40481627434E+02  0.85460646246E+02 -0.52288012986E+02  0.10805702438E+03  0.00000000000E+00 0.  1.
</event>
<event>
 7    1  0.2641580E-009  0.1260196E+03  0.7561462E-02  0.1233484E+00
         -2   -1    0    0    0  501 -0.00000000000E+00  0.00000000000E+00  0.38628734452E+02  0.38628734452E+02  0.00000000000E+00 0.  1.
          2   -1    0    0  501    0  0.00000000000E+00 -0.00000000000E+00 -0.60266293051E+03  0.60266293051E+03  0.00000000000E+00 0. -1.
         25    2    1    2    0    0  0.48414509700E+02  0.65628534083E+02 -0.44971036738E+03  0.47385405790E+03  0.12508870622E+03 0.  0.
          5    1    3    3  502    0  0.15745721969E+02  0.96083982383E+02 -0.23318199693E+03  0.25272786852E+03  0.41800000000E+01 0.  1.
         -5    1    3    3    0  502  0.32668787731E+02 -0.30455448299E+02 -0.21652837044E+03  0.22112618938E+03  0.41800000000E+01 0.  1.
        -11    1    1    2    0    0 -0.62272196868E+02 -0.25533747936E+02 -0.10383245560E+03  0.12373753522E+03  0.00000000000E+00 0. -1.
         11    1    1    2    0    0  0.13857687168E+02 -0.40094786148E+02 -0.10491373075E+02  0.43700071841E+02  0.00000000000E+00 0.  1.
</event>
<event>
 7    1  0.2641580E-009  0.1359814E+03  0.7561462E-02  0.1218841E+00
          1   -1    0    0  501    0  0.00000000000E+00  0.00000000000E+00  0.52808202113E+03  0.52808202113E+03  0.00000000000E+00 0. -1.
         -1   -1    0    0    0  501 -0.00000000000E+00 -0.00000000000E+00 -0.45854374583E+02  0.45854374583E+02  0.00000000000E+00 0.  1.
         25    2    1    2    0    0 -0.99985362247E+02 -0.49895252578E+02  0.26276604749E+03  0.31173924529E+03  0.12509497369E+03 0.  0.
          5    1    3    3  502    0 -0.42447196506E+02  0.17135010979E+02  0.19494371705E+03  0.20028953620E+03  0.41800000000E+01 0. -1.
         -5    1    3    3    0  502 -0.57538165741E+02 -0.67030263557E+02  0.67822330439E+02  0.11144970909E+03  0.41800000000E+01 0. -1.
        -11    1    1    2    0    0  0.11273014247E+03  0.35178506194E+02  0.15500387990E+03  0.19486358075E+03  0.00000000000E+00 0.  1.
         11    1    1    2    0    0 -0.12744780220E+02  0.14716746384E+02  0.64457719152E+02  0.67333569676E+02  0.00000000000E+00 0. -1.
</event>
<event>
 7    1  0.3350161E-009  0.5818250E+02  0.7561462E-02  0.1405621E+00
         -2   -1    0    0    0  501 -0.00000000000E+00  0.00000000000E+00  0.68980884348E+02  0.68980884348E+02  0.00000000000E+00 0.  1.
          2   -1    0    0  501    0  0.00000000000E+00 -0.00000000000E+00 -0.21646100389E+03  0.21646100389E+03  0.00000000000E+00 0. -1.
         25    2    1    2    0    0 -0.51141053777E+02  0.13678042145E+02 -0.62923069608E+02  0.14969957387E+03  0.12509257975E+03 0.  0.
          5    1    3    3  502    0 -0.12406712366E+02  0.20053598329E+02  0.35972731766E+02  0.43215542903E+02  0.41800000000E+01 0.  1.
         -5    1    3    3    0  502 -0.38734341411E+02 -0.63755561837E+01 -0.98895801374E+02  0.10648403097E+03  0.41800000000E+01 0.  1.
        -11    1    1    2    0    0  0.29018212545E+02 -0.77015366033E+01  0.15014409570E+02  0.33567883760E+02  0.00000000000E+00 0.  1.
         11    1    1    2    0    0  0.22122841232E+02 -0.59765055421E+01 -0.99571459503E+02  0.10217443061E+03  0.00000000000E+00 0. -1.
</event>
<event>
 7    1  0.2641580E-009  0.1894044E+03  0.7561462E-02  0.1159000E+00
          2   -1    0    0  501    0  0.00000000000E+00  0.00000000000E+00  0.91150655846E+03  0.91150655846E+03  0.00000000000E+00 0. -1.
         -2   -1    0    0    0  501 -0.00000000000E+00 -0.00000000000E+00 -0.45272860077E+02  0.45272860077E+02  0.00000000000E+00 0.  1.
         25    2    1    2    0    0 -0.16365694229E+03  0.32510141590E+02  0.50134540556E+03  0.54298786830E+03  0.12509238737E+03 0.  0.
          5    1    3    3  502    0 -0.10557132714E+03 -0.17717660175E+02  0.40907976522E+03  0.42287462363E+03  0.41800000000E+01 0.  1.
         -5    1    3    3    0  502 -0.58085615154E+02  0.50227801765E+02  0.92265640337E+02  0.12011324467E+03  0.41800000000E+01 0.  1.
        -11    1    1    2    0    0  0.11768628610E+03 -0.68698310955E+02  0.24340463576E+03  0.27895400440E+03  0.00000000000E+00 0.  1.
         11    1    1    2    0    0  0.45970656195E+02  0.36188169365E+02  0.12148365707E+03  0.13483754584E+03  0.00000000000E+00 0. -1.
</event>
<event>
 7    1  0.2641580E-009  0.1071248E+03  0.7561462E-02  0.1265989E+00
          1   -1    0    0  501    0  0.00000000000E+00  0.00000000000E+00  0.38021230141E+03  0.38021230141E+03  0.00000000000E+00 0. -1.
         -1   -1    0    0    0  501 -0.00000000000E+00 -0.00000000000E+00 -0.34792406794E+02  0.34792406794E+02  0.00000000000E+00 0.  1.
         25    2    1    2    0    0  0.41428569597E+00  0.52426155841E+01  0.25997037807E+03  0.28854361561E+03  0.12508062993E+03 0.  0.
          5    1    3    3  502    0  0.10065458824E+02  0.64195167046E+02  0.12738675826E+03  0.14306359255E+03  0.41800000000E+01 0.  1.
         -5    1    3    3    0  502 -0.96511731276E+01 -0.58952551462E+02  0.13258361981E+03  0.14548002305E+03  0.41800000000E+01 0.  1.
        -11    1    1    2    0    0 -0.24375443777E+02  0.34859902315E+02  0.59133101217E+02  0.72842972951E+02  0.00000000000E+00 0.  1.
         11    1    1    2    0    0  0.23961158081E+02 -0.40102517899E+02  0.26316415326E+02  0.53618119643E+02  0.00000000000E+00 0. -1.
</event>
<event>
 7    1  0.2641580E-009  0.1761640E+03  0.7561462E-02  0.1171568E+00
         -2   -1    0    0    0  501 -0.00000000000E+00  0.00000000000E+00  0.10428999155E+03  0.10428999155E+03  0.00000000000E+00 0.  1.
          2   -1    0    0  501    0  0.00000000000E+00 -0.00000000000E+00 -0.39229253903E+03  0.39229253903E+03  0.00000000000E+00 0. -1.
         25    2    1    2    0    0  0.14912183222E+03 -0.45553145847E+02 -0.22804003487E+03  0.30325273033E+03  0.12509017150E+03 0.  0.
          5    1    3    3  502    0  0.73629127741E+01 -0.36962934290E+02 -0.42330983097E+01  0.38155766499E+02  0.41800000000E+01 0.  1.
         -5    1    3    3    0  502  0.14175891945E+03 -0.85902115564E+01 -0.22380693656E+03  0.26509696383E+03  0.41800000000E+01 0.  1.
        -11    1    1    2    0    0 -0.20492925129E+02  0.38368141997E+02  0.12838952752E+02  0.45353202846E+02  0.00000000000E+00 0.  1.
         11    1    1    2    0    0 -0.12862890709E+03  0.71850038493E+01 -0.72801465365E+02  0.14797659741E+03  0.00000000000E+00 0. -1.
</event>
<event>
 7    1  0.2641580E-009  0.8473607E+02  0.7561462E-02  0.1316124E+00
         -1   -1    0    0    0  501 -0.00000000000E+00  0.00000000000E+00  0.27391889349E+03  0.27391889349E+03  0.00000000000E+00 0.  1.
          1   -1    0    0  501    0  0.00000000000E+00 -0.00000000000E+00 -0.68407089683E+02  0.68407089683E+02  0.00000000000E+00 0. -1.
         25    2    1    2    0    0  0.51982340867E+02  0.37964038878E+02  0.17966722268E+03  0.22819261264E+03  0.12509246799E+03 0.  0.
          5    1    3    3  502    0  0.59856254508E+02  0.96241575305E+01  0.18780282288E+03  0.19738988904E+03  0.41800000000E+01 0.  1.
         -5    1    3    3    0  502 -0.78739136414E+01  0.28339881347E+02 -0.81356001975E+01  0.30802723603E+02  0.41800000000E+01 0.  1.
        -11    1    1    2    0    0 -0.88377513225E+00 -0.26641667467E+02  0.49867970683E+02  0.56545326986E+02  0.00000000000E+00 0.  1.
         11    1    1    2    0    0 -0.51098565734E+02 -0.11322371410E+02 -0.24023389554E+02  0.57588043552E+02  0.00000000000E+00 0. -1.
</event>
<event>
 7    1  0.2641580E-009  0.1208295E+03  0.7561462E-02  0.1241735E+00
         -2   -1    0    0    0  501 -0.00000000000E+00  0.00000000000E+00  0.80936919059E+02  0.80936919059E+02  0.00000000000E+00 0.  1.
          2   -1    0    0  501    0  0.00000000000E+00 -0.00000000000E+00 -0.24813296300E+03  0.24813296300E+03  0.00000000000E+00 0. -1.
         25    2    1    2    0    0 -0.49432870090E+02 -0.77653050800E+02 -0.10676317655E+03  0.18846583798E+03  0.12508953303E+03 0.  0.
          5    1    3    3  502    0 -0.68749995030E+02 -0.60208316352E+02 -0.12608804377E+03  0.15577955692E+03  0.41800000000E+01 0.  1.
         -5    1    3    3    0  502  0.19317124941E+02 -0.17444734448E+02  0.19324867220E+02  0.32686281052E+02  0.41800000000E+01 0.  1.
        -11    1    1    2    0    0  0.56688491393E+02  0.91813097354E+02 -0.62278426540E+02  0.12458664581E+03  0.00000000000E+00 0. -1.
         11    1    1    2    0    0 -0.72556213036E+01 -0.14160046554E+02  0.18455591424E+01  0.16017398274E+02  0.00000000000E+00 0.  1.
</event>
<event>
 7    1  0.2641580E-009  0.1257894E+03  0.7561462E-02  0.1233841E+00
          2   -1    0    0  501    0  0.00000000000E+00  0.00000000000E+00  0.18756508284E+03  0.18756508284E+03  0.00000000000E+00 0. -1.
         -2   -1    0    0    0  501 -0.00000000000E+00 -0.00000000000E+00 -0.11680221572E+03  0.11680221572E+03  0.00000000000E+00 0.  1.
         25    2    1    2    0    0 -0.82318683004E+02 -0.47594267288E+02  0.68029107741E+02  0.17122053715E+03  0.12508770120E+03 0.  0.
          5    1    3    3  502    0  0.23897632590E+02 -0.43837884438E+02  0.14579900779E+02  0.52181441741E+02  0.41800000000E+01 0. -1.
         -5    1    3    3    0  502 -0.10621631559E+03 -0.37563828496E+01  0.53449206962E+02  0.11903909541E+03  0.41800000000E+01 0. -1.
        -11    1    1    2    0    0  0.36883671046E+02  0.20113383093E+02  0.47702111666E+02  0.63564493443E+02  0.00000000000E+00 0. -1.
         11    1    1    2    0    0  0.45435011958E+02  0.27480884195E+02 -0.44968352285E+02  0.69582267963E+02  0.00000000000E+00 0.  1.
</event>
<event>
 7    1  0.2641580E-009  0.1342185E+03  0.7561462E-02  0.1221327E+00
         -1   -1    0    0    0  501 -0.00000000000E+00  0.00000000000E+00  0.11444832655E+03  0.11444832655E+03  0.00000000000E+00 0.  1.
          1   -1    0    0  501    0  0.00000000000E+00 -0.00000000000E+00 -0.28157017328E+03  0.28157017328E+03  0.00000000000E+00 0. -1.
         25    2    1    2    0    0  0.88031994465E+02  0.60954114406E+02 -0.19114252515E+03  0.25229707215E+03  0.12511319508E+03 0.  0.
          5    1    3    3  502    0 -0.19281932179E+02  0.37686874141E+02 -0.10296293568E+03  0.11140436219E+03  0.41800000000E+01 0. -1.
         -5    1    3    3    0  502  0.10731392664E+03  0.23267240265E+02 -0.88179589470E+02  0.14089270996E+03  0.41800000000E+01 0. -1.
        -11    1    1    2    0    0 -0.24523405762E+02 -0.43846795904E+02  0.51946641472E+02  0.72266122778E+02  0.00000000000E+00 0.  1.
         11    1    1    2    0    0 -0.63508588703E+02 -0.17107318502E+02 -0.27925963055E+02  0.71455304897E+02  0.00000000000E+00 0. -1.
</event>
<event>
 7    1  0.2641580E-009  0.1000537E+03  0.7561462E-02  0.1280183E+00
         -2   -1    0    0    0  501 -0.00000000000E+00  0.00000000000E+00  0.45836588041E+02  0.45836588041E+02  0.00000000000E+00 0.  1.
          2   -1    0    0  501    0  0.00000000000E+00 -0.00000000000E+00 -0.29730379948E+03  0.29730379948E+03  0.00000000000E+00 0. -1.
         25    2    1    2    0    0 -0.17843687832E+02 -0.23370190366E+02 -0.87622697862E+02  0.15552467913E+03  0.12508247537E+03 0.  0.
          5    1    3    3  502    0  0.39774729749E+02  0.18456907405E+02 -0.68916333154E+02  0.81790096790E+02  0.41800000000E+01 0. -1.
         -5    1    3    3    0  502 -0.57618417581E+02 -0.41827097771E+02 -0.18706364708E+02  0.73734582342E+02  0.41800000000E+01 0. -1.
        -11    1    1    2    0    0  0.93119777857E+01  0.53047530542E+02 -0.13505289296E+03  0.14539613930E+03  0.00000000000E+00 0. -1.
         11    1    1    2    0    0  0.85317100466E+01 -0.29677340176E+02 -0.28791620617E+02  0.42219569088E+02  0.00000000000E+00 0.  1.
</event>
<event>
 7    1  0.2641580E-009  0.1357793E+03  0.7561462E-02  0.1219124E+00
          4   -1    0    0  501    0  0.00000000000E+00  0.00000000000E+00  0.40661171715E+03  0.40661171715E+03  0.00000000000E+00 0. -1.
         -4   -1    0    0    0  501 -0.00000000000E+00 -0.00000000000E+00 -0.77382806247E+02  0.77382806247E+02  0.00000000000E+00 0.  1.
         25    2    1    2    0    0 -0.10809563821E+03 -0.59679673016E+02  0.84000311906E+02  0.19480837655E+03  0.12509164961E+03 0.  0.
          5    1    3    3  502    0 -0.91077668954E+02 -0.39466963057E+02 -0.73509286288E+01  0.99620738336E+02  0.41800000000E+01 0.  1.
         -5    1    3    3    0  502 -0.17017969261E+02 -0.20212709959E+02  0.91351240535E+02  0.95187638215E+02  0.41800000000E+01 0.  1.
        -11    1    1    2    0    0  0.13466840656E+02 -0.18381709938E+02  0.81346233672E+02  0.84477528314E+02  0.00000000000E+00 0. -1.
         11    1    1    2    0    0  0.94628797559E+02  0.78061382953E+02  0.16388236532E+03  0.20470861853E+03  0.00000000000E+00 0.  1.
</event>
<event>
 7    1  0.2641580E-009  0.7678108E+02  0.7561462E-02  0.1338443E+00
         -2   -1    0    0    0  501 -0.00000000000E+00  0.00000000000E+00  0.17319776720E+02  0.17319776720E+02  0.00000000000E+00 0.  1.
          2   -1    0    0  501    0  0.00000000000E+00 -0.00000000000E+00 -0.10568699021E+04  0.10568699021E+04  0.00000000000E+00 0. -1.
         25    2    1    2    0    0 -0.59740912120E+01  0.15010044141E+02 -0.88652818929E+03  0.89545558015E+03  0.12508986542E+03 0.  0.
          5    1    3    3  502    0 -0.13783175349E+02 -0.30524094812E+02 -0.71051142664E+02  0.78660241296E+02  0.41800000000E+01 0.  1.
         -5    1    3    3    0  502  0.78090841372E+01  0.45534138953E+02 -0.81547704663E+03  0.81679533886E+03  0.41800000000E+01 0.  1.
        -11    1    1    2    0    0  0.38480930712E+02 -0.23991634918E+01 -0.13311062822E+03  0.13858202394E+03  0.00000000000E+00 0. -1.
         11    1    1    2    0    0 -0.32506839500E+02 -0.12610880649E+02 -0.19911307897E+02  0.40152074755E+02  0.00000000000E+00 0.  1.
</event>
<event>
 7    1  0.2641580E-009  0.8540443E+02  0.7561462E-02  0.1314378E+00
          2   -1    0    0  501    0  0.00000000000E+00  0.00000000000E+00  0.44622861600E+02  0.44622861600E+02  0.00000000000E+00 0. -1.
         -2   -1    0    0    0  501 -0.00000000000E+00 -0.00000000000E+00 -0.33844134394E+03  0.33844134394E+03  0.00000000000E+00 0.  1.
         25    2    1    2    0    0 -0.23319606153E+02 -0.26150021347E+01 -0.24035878506E+03  0.27196674125E+03  0.12507166155E+03 0.  0.
          5    1    3    3  502    0  0.51194288155E+02 -0.95642666203E+01 -0.10258832005E+03  0.11512673950E+03  0.41800000000E+01 0. -1.
         -5    1    3    3    0  502 -0.74513894309E+02  0.69492644856E+01 -0.13777046501E+03  0.15684000176E+03  0.41800000000E+01 0. -1.
        -11    1    1    2    0    0  0.32945779783E+02 -0.18468240282E+01 -0.77820023931E+02  0.84526867262E+02  0.00000000000E+00 0.  1.
         11    1    1    2    0    0 -0.96261736293E+01  0.44618261629E+01  0.24360326656E+02  0.26570597024E+02  0.00000000000E+00 0. -1.
</event>
<event>
 7    1  0.2641580E-009  0.1521508E+03  0.7561462E-02  0.1197855E+00
         -2   -1    0    0    0  501 -0.00000000000E+00  0.00000000000E+00  0.25363073893E+03  0.25363073893E+03  0.00000000000E+00 0.  1.
          2   -1    0    0  501    0  0.00000000000E+00 -0.00000000000E+00 -0.95659892258E+02  0.95659892258E+02  0.00000000000E+00 0. -1.
         25    2    1    2    0    0  0.77293648286E+02  0.43916526748E+01  0.58932168168E+02  0.15847571954E+03  0.12509180054E+03 0.  0.
          5    1    3    3  502    0  0.10351339196E+02 -0.52332164187E+02  0.15120980333E+01  0.53530967413E+02  0.41800000000E+01 0.  1.
         -5    1    3    3    0  502  0.66942309089E+02  0.56723816862E+02  0.57420070135E+02  0.10494475213E+03  0.41800000000E+01 0.  1.
        -11    1    1    2    0    0  0.41263589029E+02  0.12682949928E+02  0.29903657820E+02  0.52514471809E+02  0.00000000000E+00 0. -1.
         11    1    1    2    0    0 -0.11855723731E+03 -0.17074602602E+02  0.69135020685E+02  0.13830043984E+03  0.00000000000E+00 0.  1.
</event>
<event>
 7    1  0.2641580E-009  0.1642584E+03  0.7561462E-02  0.1183971E+00
         -2   -1    0    0    0  501 -0.00000000000E+00  0.00000000000E+00  0.29245376235E+02  0.29245376235E+02  0.00000000000E+00 0.  1.
          2   -1    0    0  501    0  0.00000000000E+00 -0.00000000000E+00 -0.11121641623E+04  0.11121641623E+04  0.00000000000E+00 0. -1.
         25    2    1    2    0    0 -0.87752610384E+02  0.11243940159E+03 -0.52267713789E+03  0.55604092643E+03  0.12508789604E+03 0.  0.
          5    1    3    3  502    0 -0.88155591463E+02  0.38087494461E+02 -0.16732570862E+03  0.19297002541E+03  0.41800000000E+01 0. -1.
         -5    1    3    3    0  502  0.40298107873E+00  0.74351907126E+02 -0.35535142927E+03  0.36307090102E+03  0.41800000000E+01 0. -1.
        -11    1    1    2    0    0  0.99181309003E+02 -0.10404312370E+03 -0.54830101293E+03  0.56682969614E+03  0.00000000000E+00 0. -1.
         11    1    1    2    0    0 -0.11428698619E+02 -0.83962778914E+01 -0.11940635205E+02  0.18538915924E+02  0.00000000000E+00 0.  1.
</event>
<event>
 7    1  0.2641580E-009  0.1075967E+03  0.7561462E-02  0.1265086E+00
         -1   -1    0    0    0  501 -0.00000000000E+00  0.00000000000E+00  0.35428197731E+02  0.35428197731E+02  0.00000000000E+00 0.  1.
          1   -1    0    0  501    0  0.00000000000E+00 -0.00000000000E+00 -0.43903643111E+03  0.43903643111E+03  0.00000000000E+00 0. -1.
         25    2    1    2    0    0  0.62044878427E+02 -0.66461034793E+01 -0.24596741380E+03  0.28291547977E+03  0.12508981738E+03 0.  0.
          5    1    3    3  502    0  0.28344134092E+02 -0.55027123001E+02 -0.54656767748E+02  0.82681369509E+02  0.41800000000E+01 0. -1.
         -5    1    3    3    0  502  0.33700744335E+02  0.48381019522E+02 -0.19131064606E+03  0.20023411026E+03  0.41800000000E+01 0. -1.
        -11    1    1    2    0    0  0.11948586737E+02 -0.12828924866E+02 -0.14096525163E+01  0.17587983354E+02  0.00000000000E+00 0.  1.
         11    1    1    2    0    0 -0.73993465164E+02  0.19475028345E+02 -0.15623116706E+03  0.17396116571E+03  0.00000000000E+00 0. -1.
</event>
<event>
 7    1  0.2641580E-009  0.1558739E+03  0.7561462E-02  0.1193435E+00
         -1   -1    0    0    0  501 -0.00000000000E+00  0.00000000000E+00  0.42914532343E+02  0.42914532343E+02  0.00000000000E+00 0.  1.
          1   -1    0    0  501    0  0.00000000000E+00 -0.00000000000E+00 -0.93066441803E+03  0.93066441803E+03  0.00000000000E+00 0. -1.
         25    2    1    2    0    0 -0.12034561517E+03  0.25468220591E+02 -0.73748890803E+03  0.75806877028E+03  0.12508666460E+03 0.  0.
          5    1    3    3  502    0 -0.79197439460E+02 -0.32787275471E+02 -0.22838568598E+03  0.24397691245E+03  0.41800000000E+01 0. -1.
         -5    1    3    3    0  502 -0.41148175714E+02  0.58255496061E+02 -0.50910322204E+03  0.51409185782E+03  0.41800000000E+01 0. -1.
        -11    1    1    2    0    0  0.52524579779E+01 -0.38318479443E+02 -0.38100190764E+02  0.54291055597E+02  0.00000000000E+00 0.  1.
         11    1    1    2    0    0  0.11509315720E+03  0.12850258852E+02 -0.11216078690E+03  0.16121912449E+03  0.00000000000E+00 0. -1.
</event>
<event>
 7    1  0.2641580E-009  0.1401959E+03  0.7561462E-02  0.1213066E+00
          2   -1    0    0  501    0  0.00000000000E+00  0.00000000000E+00  0.15912397316E+03  0.15912397316E+03  0.00000000000E+00 0.  1.
         -2   -1    0    0    0  501 -0.00000000000E+00 -0.00000000000E+00 -0.15884570492E+03  0.15884570492E+03  0.00000000000E+00 0. -1.
         25    2    1    2    0    0 -0.68478491077E+02 -0.58618467969E+02  0.68569791573E+02  0.16874544919E+03  0.12509109392E+03 0.  0.
          5    1    3    3  502    0  0.34534578651E+02 -0.29400601106E+02  0.31410237755E+02  0.55327279925E+02  0.41800000000E+01 0. -1.
         -5    1    3    3    0  502 -0.10301306973E+03 -0.29217866862E+02  0.37159553818E+02  0.11341816926E+03  0.41800000000E+01 0. -1.
        -11    1    1    2    0    0 -0.21664040184E+02  0.20467550661E+02  0.11954415992E+00  0.29803784290E+02  0.00000000000E+00 0.  1.
         11    1    1    2    0    0  0.90142531261E+02  0.38150917308E+02 -0.68411067488E+02  0.11942044460E+03  0.00000000000E+00 0. -1.
</event>
<event>
 7    1  0.2641580E-009  0.1829393E+03  0.7561462E-02  0.1164988E+00
         -1   -1    0    0    0  501 -0.00000000000E+00  0.00000000000E+00  0.88502655212E+02  0.88502655212E+02  0.00000000000E+00 0.  1.
          1   -1    0    0  501    0  0.00000000000E+00 -0.00000000000E+00 -0.46841357225E+03  0.46841357225E+03  0.00000000000E+00 0. -1.
         25    2    1    2    0    0 -0.13826700962E+03 -0.97797896936E+02 -0.23202773135E+03  0.31330856663E+03  0.12507275969E+03 0.  0.
          5    1    3    3  502    0  0.12944133130E+01 -0.26753132005E+02 -0.11395951278E+03  0.11713944054E+03  0.41800000000E+01 0. -1.
         -5    1    3    3    0  502 -0.13956142293E+03 -0.71044764930E+02 -0.11806821857E+03  0.19616912609E+03  0.41800000000E+01 0. -1.
        -11    1    1    2    0    0  0.12570477217E+03  0.10815520912E+03 -0.10144339710E+03  0.19439650671E+03  0.00000000000E+00 0.  1.
         11    1    1    2    0    0  0.12562237450E+02 -0.10357312187E+02 -0.46439788590E+02  0.49211154119E+02  0.00000000000E+00 0. -1.
</event>
<event>
 7    1  0.2641580E-009  0.1194938E+03  0.7561462E-02  0.1243934E+00
          2   -1    0    0  501    0  0.00000000000E+00  0.00000000000E+00  0.60676296219E+03  0.60676296219E+03  0.00000000000E+00 0. -1.
         -2   -1    0    0    0  501 -0.00000000000E+00 -0.00000000000E+00 -0.32042224783E+02  0.32042224783E+02  0.00000000000E+00 0.  1.
         25    2    1    2    0    0  0.40740304196E+02 -0.50664439046E+02  0.42652679372E+03  0.44922945735E+03  0.12512130842E+03 0.  0.
          5    1    3    3  502    0 -0.30047968423E+02 -0.58088180038E+02  0.25898501286E+03  0.26714757411E+03  0.41800000000E+01 0. -1.
         -5    1    3    3    0  502  0.70788272619E+02  0.74237409912E+01  0.16754178085E+03  0.18208188323E+03  0.41800000000E+01 0. -1.
        -11    1    1    2    0    0  0.38906545446E+01 -0.19014393596E+02 -0.49278553579E+00  0.19414612903E+02  0.00000000000E+00 0.  1.
         11    1    1    2    0    0 -0.44630958741E+02  0.69678832642E+02  0.14868672922E+03  0.17016111672E+03  0.00000000000E+00 0. -1.
</event>
<event>
 7    1  0.2641580E-009  0.1667919E+03  0.7561462E-02  0.1181235E+00
          2   -1    0    0  501    0  0.00000000000E+00  0.00000000000E+00  0.21090507296E+03  0.21090507296E+03  0.00000000000E+00 0. -1.
         -2   -1    0    0    0  501 -0.00000000000E+00 -0.00000000000E+00 -0.15438596060E+03  0.15438596060E+03  0.00000000000E+00 0.  1.
         25    2    1    2    0    0 -0.11582293120E+03  0.48341560956E+02 -0.35056668212E+02  0.18063805128E+03  0.12509707302E+03 0.  0.
          5    1    3    3  502    0 -0.24364946108E+02  0.75977308712E+02 -0.28316444208E+02  0.84767301777E+02  0.41800000000E+01 0.  1.
         -5    1    3    3    0  502 -0.91457985090E+02 -0.27635747756E+02 -0.67402240042E+01  0.95870749503E+02  0.41800000000E+01 0.  1.
        -11    1    1    2    0    0  0.54003808074E+02 -0.73587332063E+02  0.37309848287E+02  0.98607968775E+02  0.00000000000E+00 0. -1.
         11    1    1    2    0    0  0.61819123124E+02  0.25245771107E+02  0.54265932286E+02  0.86045013507E+02  0.00000000000E+00 0.  1.
</event>
<event>
 7    1  0.2641580E-009  0.1402730E+03  0.7561462E-02  0.1212962E+00
          1   -1    0    0  501    0  0.00000000000E+00  0.00000000000E+00  0.11547362696E+03  0.11547362696E+03  0.00000000000E+00 0. -1.
         -1   -1    0    0    0  501 -0.00000000000E+00 -0.00000000000E+00 -0.25038394876E+03  0.25038394876E+03  0.00000000000E+00 0.  1.
         25    2    1    2    0    0  0.35036498648E+02  0.10614973991E+03  0.98705221848E+00  0.16778785668E+03  0.12512580491E+03 0.  0.
          5    1    3    3  502    0  0.61736154405E+02  0.93829510703E+02  0.39516105289E+02  0.11913993796E+03  0.41800000000E+01 0.  1.
         -5    1    3    3    0  502 -0.26699655757E+02  0.12320229210E+02 -0.38529053070E+02  0.48647918720E+02  0.41800000000E+01 0.  1.
        -11    1    1    2    0    0 -0.19321894429E+01 -0.10531704551E+03 -0.76916001072E+02  0.13042808230E+03  0.00000000000E+00 0.  1.
         11    1    1    2    0    0 -0.33104309205E+02 -0.83269440297E+00 -0.58981372946E+02  0.67641636753E+02  0.00000000000E+00 0. -1.
</event>
<event>
 7    1  0.2641580E-009  0.1261666E+03  0.7561462E-02  0.1233257E+00
         -1   -1    0    0    0  501 -0.00000000000E+00  0.00000000000E+00  0.25742672330E+03  0.25742672330E+03  0.00000000000E+00 0.  1.
          1   -1    0    0  501    0  0.00000000000E+00 -0.00000000000E+00 -0.85567911457E+02  0.85567911457E+02  0.00000000000E+00 0. -1.
         25    2    1    2    0    0 -0.22653403369E+02  0.96688023983E+02  0.10311765909E+03  0.19011103823E+03  0.12508878678E+03 0.  0.
          5    1    3    3  502    0  0.43091871102E+02  0.60447096627E+02  0.84690323198E+02  0.11269731181E+03  0.41800000000E+01 0. -1.
         -5    1    3    3    0  502 -0.65745274471E+02  0.36240927356E+02  0.18427335887E+02  0.77413726423E+02  0.41800000000E+01 0. -1.
        -11    1    1    2    0    0  0.28774229056E+02 -0.79405637469E+02  0.28684865601E+01  0.84507039557E+02  0.00000000000E+00 0. -1.
         11    1    1    2    0    0 -0.61208256867E+01 -0.17282386514E+02  0.65872666202E+02  0.68376556971E+02  0.00000000000E+00 0.  1.
</event>
<event>
 7    1  0.2641580E-009  0.2250193E+03  0.7561462E-02  0.1130195E+00
          1   -1    0    0  501    0  0.00000000000E+00  0.00000000000E+00  0.62845095153E+02  0.62845095153E+02  0.00000000000E+00 0. -1.
         -1   -1    0    0    0  501 -0.00000000000E+00 -0.00000000000E+00 -0.95803558289E+03  0.95803558289E+03  0.00000000000E+00 0.  1.
         25    2    1    2    0    0  0.16287232528E+03  0.14353662167E+03 -0.39256530070E+03  0.46570649408E+03  0.12507944358E+03 0.  0.
          5    1    3    3  502    0  0.87522417230E+02  0.47333872487E+02 -0.72798238957E+02  0.12336014347E+03  0.41800000000E+01 0.  1.
         -5    1    3    3    0  502  0.75349908046E+02  0.96202749186E+02 -0.31976706175E+03  0.34234635060E+03  0.41800000000E+01 0.  1.
        -11    1    1    2    0    0 -0.15292597954E+03 -0.98147445498E+02 -0.33361005205E+03  0.37988806655E+03  0.00000000000E+00 0.  1.
         11    1    1    2    0    0 -0.99463457389E+01 -0.45389176175E+02 -0.16901513497E+03  0.17528611741E+03  0.00000000000E+00 0. -1.
</event>
<event>
 7    1  0.2641580E-009  0.1993791E+03  0.7561462E-02  0.1150264E+00
          2   -1    0    0  501    0  0.00000000000E+00  0.00000000000E+00  0.71007447010E+03  0.71007447010E+03  0.00000000000E+00 0. -1.
         -2   -1    0    0    0  501 -0.00000000000E+00 -0.00000000000E+00 -0.72894348352E+02  0.72894348352E+02  0.00000000000E+00 0.  1.
         25    2    1    2    0    0  0.17980785255E+03 -0.61973354402E+02  0.42518108575E+03  0.48228360194E+03  0.12508779527E+03 0.  0.
          5    1    3    3  502    0  0.12992255897E+03 -0.73102145262E+02  0.18980626664E+03  0.24138700509E+03  0.41800000000E+01 0.  1.
         -5    1    3    3    0  502  0.49885293580E+02  0.11128790859E+02  0.23537481911E+03  0.24089659685E+03  0.41800000000E+01 0.  1.
        -11    1    1    2    0    0 -0.65308471786E+02  0.51862181552E+02  0.14600160276E+03  0.16814086466E+03  0.00000000000E+00 0.  1.
         11    1    1    2    0    0 -0.11449938077E+03  0.10111172850E+02  0.65997433242E+02  0.13254435185E+03  0.00000000000E+00 0. -1.
</event>
<event>
 7    1  0.2641580E-009  0.1243013E+03  0.7561462E-02  0.1236165E+00
         -2   -1    0    0    0  501 -0.00000000000E+00  0.00000000000E+00  0.44718499530E+02  0.44718499530E+02  0.00000000000E+00 0.  1.
          2   -1    0    0  501    0  0.00000000000E+00 -0.00000000000E+00 -0.36156981648E+03  0.36156981648E+03  0.00000000000E+00 0. -1.
         25    2    1    2    0    0  0.23121508022E+02  0.59231280178E+02 -0.20175224231E+03  0.24575186408E+03  0.12508821982E+03 0.  0.
          5    1    3    3  502    0 -0.50975597481E+02  0.15325271587E+02 -0.65487534293E+02  0.84495355112E+02  0.41800000000E+01 0. -1.
         -5    1    3    3    0  502  0.74097105503E+02  0.43906008592E+02 -0.13626470801E+03  0.16125650897E+03  0.41800000000E+01 0. -1.
        -11    1    1    2    0    0  0.34177468084E+02 -0.21855480262E+02 -0.25927221972E+02  0.48145427418E+02  0.00000000000E+00 0.  1.
         11    1    1    2    0    0 -0.57298976106E+02 -0.37375799917E+02 -0.89171852673E+02  0.11239102451E+03  0.00000000000E+00 0. -1.
</event>
<event>
 7    1  0.2641580E-009  0.1134034E+03  0.7561462E-02  0.1254394E+00
         -3   -1    0    0    0  501 -0.00000000000E+00  0.00000000000E+00  0.13098011972E+03  0.13098011972E+03  0.00000000000E+00 0.  1.
          3   -1    0    0  501    0  0.00000000000E+00 -0.00000000000E+00 -0.13008290360E+03  0.13008290360E+03  0.00000000000E+00 0. -1.
         25    2    1    2    0    0  0.40401004578E+02  0.49719260858E+02 -0.24353661909E+02  0.14263564297E+03  0.12509028629E+03 0.  0.
          5    1    3    3  502    0  0.73041015188E+02  0.61921050043E+02  0.62774009299E+01  0.96052509080E+02  0.41800000000E+01 0. -1.
         -5    1    3    3    0  502 -0.32640010610E+02 -0.12201789185E+02 -0.30631062839E+02  0.46583133886E+02  0.41800000000E+01 0. -1.
        -11    1    1    2    0    0 -0.38027320410E+02 -0.67741793067E+02 -0.10430283757E+02  0.78382513641E+02  0.00000000000E+00 0. -1.
         11    1    1    2    0    0 -0.23736841678E+01  0.18022532209E+02  0.35681161790E+02  0.40044866718E+02  0.00000000000E+00 0.  1.
</event>
<event>
 7    1  0.2641580E-009  0.4388596E+03  0.7561462E-02  0.1031097E+00
         -2   -1    0    0    0  501 -0.00000000000E+00  0.00000000000E+00  0.18875316650E+04  0.18875316650E+04  0.00000000000E+00 0.  1.
          2   -1    0    0  501    0  0.00000000000E+00 -0.00000000000E+00 -0.13910807201E+03  0.13910807201E+03  0.00000000000E+00 0. -1.
         25    2    1    2    0    0 -0.37797926857E+03 -0.21293749175E+03  0.13746958212E+04  0.14469439688E+04  0.12509014820E+03 0.  0.
          5    1    3    3  502    0 -0.13228360036E+03 -0.95271669666E+02  0.34162913712E+03  0.37855459540E+03  0.41800000000E+01 0. -1.
         -5    1    3    3    0  502 -0.24569566821E+03 -0.11766582208E+03  0.10330666841E+04  0.10683893734E+04  0.41800000000E+01 0. -1.
        -11    1    1    2    0    0  0.11794924465E+03  0.22969664130E+02  0.11878121909E+03  0.16896333269E+03  0.00000000000E+00 0. -1.
         11    1    1    2    0    0  0.26003002391E+03  0.18996782762E+03  0.25494655277E+03  0.41073243558E+03  0.00000000000E+00 0.  1.
</event>
<event>
 7    1  0.2641580E-009  0.9450435E+02  0.7561462E-02  0.1292296E+00
         -1   -1    0    0    0  501 -0.00000000000E+00  0.00000000000E+00  0.37291979758E+02  0.37291979758E+02  0.00000000000E+00 0.  1.
          1   -1    0    0  501    0  0.00000000000E+00 -0.00000000000E+00 -0.34376811786E+03  0.34376811786E+03  0.00000000000E+00 0. -1.
         25    2    1    2    0    0  0.13747330200E+02  0.40002112775E+01 -0.12509880118E+03  0.17747940339E+03  0.12507692750E+03 0.  0.
          5    1    3    3  502    0  0.45904378938E+02 -0.27528672264E+02 -0.11083809838E+02  0.54821191549E+02  0.41800000000E+01 0.  1.
         -5    1    3    3    0  502 -0.32157048738E+02  0.31528883542E+02 -0.11401499134E+03  0.12265821184E+03  0.41800000000E+01 0.  1.
        -11    1    1    2    0    0 -0.38992494014E+02 -0.33398630309E+02 -0.12536687608E+03  0.13547227286E+03  0.00000000000E+00 0. -1.
         11    1    1    2    0    0  0.25245163815E+02  0.29398419031E+02 -0.56010460835E+02  0.68108421363E+02  0.00000000000E+00 0.  1.
</event>
<event>
 7    1  0.4652184E-009  0.1323246E+03  0.7561462E-02  0.1224047E+00
          2   -1    0    0  501    0  0.00000000000E+00  0.00000000000E+00  0.10851258534E+04  0.10851258534E+04  0.00000000000E+00 0. -1.
         -2   -1    0    0    0  501 -0.00000000000E+00 -0.00000000000E+00 -0.20460205769E+02  0.20460205769E+02  0.00000000000E+00 0.  1.
         25    2    1    2    0    0  0.10135104542E+03  0.29295716487E+01  0.62519585836E+03  0.64559967968E+03  0.12509383796E+03 0.  0.
          5    1    3    3  502    0  0.11492051413E+03  0.35556647607E+02  0.54035506932E+03  0.55359919896E+03  0.41800000000E+01 0. -1.
         -5    1    3    3    0  502 -0.13569468712E+02 -0.32627075959E+02  0.84840789046E+02  0.92000480720E+02  0.41800000000E+01 0. -1.
        -11    1    1    2    0    0 -0.28973485970E+02 -0.18882876912E+02  0.36594735396E+02  0.50350775450E+02  0.00000000000E+00 0.  1.
         11    1    1    2    0    0 -0.72377559451E+02  0.15953305263E+02  0.40287505390E+03  0.40963560406E+03  0.00000000000E+00 0. -1.
</event>
<event>
 7    1  0.2641580E-009  0.9936470E+02  0.7561462E-02  0.1281638E+00
         -2   -1    0    0    0  501 -0.00000000000E+00  0.00000000000E+00  0.45639426744E+02  0.45639426744E+02  0.00000000000E+00 0.  1.
          2   -1    0    0  501    0  0.00000000000E+00 -0.00000000000E+00 -0.32017024496E+03  0.32017024496E+03  0.00000000000E+00 0. -1.
         25    2    1    2    0    0 -0.75661363199E+00  0.51845660923E+02 -0.16161329183E+03  0.21084097576E+03  0.12508603416E+03 0.  0.
          5    1    3    3  502    0 -0.24715419482E+02  0.71342146367E+02 -0.40499116965E+02  0.85779978336E+02  0.41800000000E+01 0. -1.
         -5    1    3    3    0  502  0.23958805850E+02 -0.19496485444E+02 -0.12111417487E+03  0.12506099742E+03  0.41800000000E+01 0. -1.
        -11    1    1    2    0    0 -0.28687375990E+02  0.38469575096E+01 -0.41023708401E+01  0.29233440951E+02  0.00000000000E+00 0.  1.
         11    1    1    2    0    0  0.29443989622E+02 -0.55692618432E+02 -0.10881515554E+03  0.12573525499E+03  0.00000000000E+00 0. -1.
</event>
<event>
 7    1  0.2641580E-009  0.1253257E+03  0.7561462E-02  0.1234561E+00
          3   -1    0    0  501    0  0.00000000000E+00  0.00000000000E+00  0.27985126275E+03  0.27985126275E+03  0.00000000000E+00 0.  1.
         -3   -1    0    0    0  501 -0.00000000000E+00 -0.00000000000E+00 -0.58863693761E+02  0.58863693761E+02  0.00000000000E+00 0. -1.
         25    2    1    2    0    0  0.72493239144E+02  0.10457739315E+02  0.13845249409E+03  0.20045123746E+03  0.12508785491E+03 0.  0.
          5    1    3    3  502    0  0.65384955378E+02  0.63050502475E+02  0.97218278609E+02  0.13311432811E+03  0.41800000000E+01 0.  1.
         -5    1    3    3    0  502  0.71082837660E+01 -0.52592763159E+02  0.41234215479E+02  0.67336909351E+02  0.41800000000E+01 0.  1.
        -11    1    1    2    0    0  0.11765527649E+02 -0.18416133308E+02  0.34809639611E+02  0.41101005057E+02  0.00000000000E+00 0.  1.
         11    1    1    2    0    0 -0.84258766794E+02  0.79583939923E+01  0.47725435287E+02  0.97162713990E+02  0.00000000000E+00 0. -1.
</event>
<event>
 7    1  0.2641580E-009  0.9638325E+02  0.7561462E-02  0.1288091E+00
         -2   -1    0    0    0  501 -0.00000000000E+00  0.00000000000E+00  0.21194522225E+02  0.21194522225E+02  0.00000000000E+00 0.  1.
          2   -1    0    0  501    0  0.00000000000E+00 -0.00000000000E+00 -0.57275830148E+03  0.57275830148E+03  0.00000000000E+00 0. -1.
         25    2    1    2    0    0  0.21227628228E+02  0.11204783978E+02 -0.29074096041E+03  0.31741703840E+03  0.12508841203E+03 0.  0.
          5    1    3    3  502    0  0.36884478206E+02  0.55096070534E+02 -0.93473083010E+02  0.11467663828E+03  0.41800000000E+01 0.  1.
         -5    1    3    3    0  502 -0.15656849978E+02 -0.43891286556E+02 -0.19726787739E+03  0.20274040011E+03  0.41800000000E+01 0.  1.
        -11    1    1    2    0    0 -0.31214404252E+02 -0.39032881964E+02 -0.88000817893E+02  0.10120300814E+03  0.00000000000E+00 0.  1.
         11    1    1    2    0    0  0.99867760238E+01  0.27828097986E+02 -0.17282200096E+03  0.17533277717E+03  0.00000000000E+00 0. -1.
</event>
<event>
 7    1  0.2641580E-009  0.2129079E+03  0.7561462E-02  0.1139284E+00
          2   -1    0    0  501    0  0.00000000000E+00  0.00000000000E+00  0.97052837941E+03  0.97052837941E+03  0.00000000000E+00 0. -1.
         -2   -1    0    0    0  501 -0.00000000000E+00 -0.00000000000E+00 -0.57855897183E+02  0.57855897183E+02  0.00000000000E+00 0.  1.
         25    2    1    2    0    0 -0.77687274434E+02 -0.19474708857E+03  0.48646756328E+03  0.54429785291E+03  0.12509085276E+03 0.  0.
          5    1    3    3  502    0 -0.73110363361E+02 -0.11786272326E+03  0.17454737637E+03  0.22298207498E+03  0.41800000000E+01 0. -1.
         -5    1    3    3    0  502 -0.45769110736E+01 -0.76884365312E+02  0.31192018691E+03  0.32131577793E+03  0.41800000000E+01 0. -1.
        -11    1    1    2    0    0  0.42049187357E+02  0.91549864183E+02  0.10809865327E+03  0.14776613492E+03  0.00000000000E+00 0.  1.
         11    1    1    2    0    0  0.35638087077E+02  0.10319722439E+03  0.31810626567E+03  0.33632028876E+03  0.00000000000E+00 0. -1.
</event>
<event>
 7    1  0.2641580E-009  0.1314338E+03  0.7561462E-02  0.1225344E+00
          1   -1    0    0  501    0  0.00000000000E+00  0.00000000000E+00  0.40511775260E+03  0.40511775260E+03  0.00000000000E+00 0. -1.
         -1   -1    0    0    0  501 -0.00000000000E+00 -0.00000000000E+00 -0.83438428793E+02  0.83438428793E+02  0.00000000000E+00 0.  1.
         25    2    1    2    0    0  0.96133095860E+02 -0.41127316018E+02  0.30765623386E+03  0.34818556212E+03  0.12509116352E+03 0.  0.
          5    1    3    3  502    0 -0.14126581021E+02  0.23788622774E+02  0.10346512697E+03  0.10718191901E+03  0.41800000000E+01 0. -1.
         -5    1    3    3    0  502  0.11025967688E+03 -0.64915938792E+02  0.20419110689E+03  0.24100364310E+03  0.41800000000E+01 0. -1.
        -11    1    1    2    0    0 -0.13369045628E+02 -0.20387666125E+01  0.41027118529E+02  0.43198523182E+02  0.00000000000E+00 0. -1.
         11    1    1    2    0    0 -0.82764050231E+02  0.43166082630E+02 -0.27004028580E+02  0.97172096097E+02  0.00000000000E+00 0.  1.
</event>
<event>
 7    1  0.2641580E-009  0.1509930E+03  0.7561462E-02  0.1199258E+00
         -2   -1    0    0    0  501 -0.00000000000E+00  0.00000000000E+00  0.12791257615E+03  0.12791257615E+03  0.00000000000E+00 0.  1.
          2   -1    0    0  501    0  0.00000000000E+00 -0.00000000000E+00 -0.21481035327E+03  0.21481035327E+03  0.00000000000E+00 0. -1.
         25    2    1    2    0    0 -0.17747437877E+02 -0.11881285287E+03 -0.73368648402E+02  0.18831416012E+03  0.12509116186E+03 0.  0.
          5    1    3    3  502    0  0.20014802797E+02 -0.11213616930E+03 -0.91044249244E+02  0.14588228308E+03  0.41800000000E+01 0. -1.
         -5    1    3    3    0  502 -0.37762240674E+02 -0.66766835655E+01  0.17675600841E+02  0.42431877041E+02  0.41800000000E+01 0. -1.
        -11    1    1    2    0    0  0.18168569237E+02  0.13350101003E+03 -0.44321423627E+00  0.13473237557E+03  0.00000000000E+00 0.  1.
         11    1    1    2    0    0 -0.42113136051E+00 -0.14688157166E+02 -0.13085914478E+02  0.19676393732E+02  0.00000000000E+00 0. -1.
</event>
<event>
 7    1  0.2641580E-009  0.9068843E+02  0.7561462E-02  0.1301193E+00
         -2   -1    0    0    0  501 -0.00000000000E+00  0.00000000000E+00  0.14788710072E+02  0.14788710072E+02  0.00000000000E+00 0.  1.
          2   -1    0    0  501    0  0.00000000000E+00 -0.00000000000E+00 -0.13149721770E+04  0.13149721770E+04  0.00000000000E+00 0. -1.
         25    2    1    2    0    0  0.25635569547E+02 -0.28512687938E+02 -0.10840337348E+04  0.10919003657E+04  0.12508842715E+03 0.  0.
          5    1    3    3  502    0  0.20257189209E+02 -0.52926450220E+02 -0.10362812978E+04  0.10378381201E+04  0.41800000000E+01 0. -1.
         -5    1    3    3    0  502  0.53783803383E+01  0.24413762282E+02 -0.47752436930E+02  0.54062245575E+02  0.41800000000E+01 0. -1.
        -11    1    1    2    0    0  0.25116044381E+02 -0.17572162311E+02 -0.62549273429E+02  0.69656357787E+02  0.00000000000E+00 0.  1.
         11    1    1    2    0    0 -0.50751613929E+02  0.46084850249E+02 -0.15360045871E+03  0.16820416361E+03  0.00000000000E+00 0. -1.
</event>
<event>
 7    1  0.2641580E-009  0.1068100E+03  0.7561462E-02  0.1266594E+00
         -1   -1    0    0    0  501 -0.00000000000E+00  0.00000000000E+00  0.37220507286E+03  0.37220507286E+03  0.00000000000E+00 0.  1.
          1   -1    0    0  501    0  0.00000000000E+00 -0.00000000000E+00 -0.36811859979E+02  0.36811859979E+02  0.00000000000E+00 0. -1.
         25    2    1    2    0    0 -0.35579695395E+02 -0.11931811943E+02  0.22808270981E+03  0.26282567474E+03  0.12508928781E+03 0.  0.
          5    1    3    3  502    0 -0.46534380974E+02  0.43995466731E+02  0.71168595578E+02  0.95830533246E+02  0.41800000000E+01 0.  1.
         -5    1    3    3    0  502  0.10954685580E+02 -0.55927278675E+02  0.15691411423E+03  0.16699514149E+03  0.41800000000E+01 0.  1.
        -11    1    1    2    0    0  0.19406641830E+02  0.48542081772E+02  0.33098442810E+02  0.61874537302E+02  0.00000000000E+00 0. -1.
         11    1    1    2    0    0  0.16173053564E+02 -0.36610269829E+02  0.74212060261E+02  0.84316720801E+02  0.00000000000E+00 0.  1.
</event>
<event>
 7    1  0.2641580E-009  0.1017682E+03  0.7561462E-02  0.1276621E+00
          1   -1    0    0  501    0  0.00000000000E+00  0.00000000000E+00  0.35037338906E+03  0.35037338906E+03  0.00000000000E+00 0. -1.
         -1   -1    0    0    0  501 -0.00000000000E+00 -0.00000000000E+00 -0.36105704789E+02  0.36105704789E+02  0.00000000000E+00 0.  1.
         25    2    1    2    0    0  0.18528216495E+02  0.64081179001E+01  0.21804161437E+03  0.25213881237E+03  0.12508987300E+03 0.  0.
          5    1    3    3  502    0 -0.38147704262E+02  0.33754440657E+02  0.15398927061E+03  0.16224912163E+03  0.41800000000E+01 0. -1.
         -5    1    3    3    0  502  0.56675920757E+02 -0.27346322757E+02  0.64052343757E+02  0.89889690748E+02  0.41800000000E+01 0. -1.
        -11    1    1    2    0    0  0.31851245558E+02 -0.19450370514E+02  0.60957943641E+02  0.71475098109E+02  0.00000000000E+00 0.  1.
         11    1    1    2    0    0 -0.50379462053E+02  0.13042252614E+02  0.35268126263E+02  0.62865183369E+02  0.00000000000E+00 0. -1.
</event>
<event>
 7    1  0.2641580E-009  0.2218757E+03  0.7561462E-02  0.1132492E+00
          1   -1    0    0  501    0  0.00000000000E+00  0.00000000000E+00  0.10210397020E+04  0.10210397020E+04  0.00000000000E+00 0. -1.
         -1   -1    0    0    0  501 -0.00000000000E+00 -0.00000000000E+00 -0.55732060449E+02  0.55732060449E+02  0.00000000000E+00 0.  1.
         25    2    1    2    0    0  0.21151663154E+03  0.18932037946E+02  0.48663182817E+03  0.54548665196E+03  0.12508974301E+03 0.  0.
          5    1    3    3  502    0  0.12563709064E+03  0.28844374340E+02  0.41027122064E+03  0.43006583608E+03  0.41800000000E+01 0. -1.
         -5    1    3    3    0  502  0.85879540898E+02 -0.99123363932E+01  0.76360607524E+02  0.11542081588E+03  0.41800000000E+01 0. -1.
        -11    1    1    2    0    0 -0.27289153529E+02  0.26969710514E+02  0.11168433443E+03  0.11809087070E+03  0.00000000000E+00 0. -1.
         11    1    1    2    0    0 -0.18422747801E+03 -0.45901748460E+02  0.36699147892E+03  0.41319423975E+03  0.00000000000E+00 0.  1.
</event>
<event>
 7    1  0.2641580E-009  0.8667232E+02  0.7561462E-02  0.1311116E+00
          2   -1    0    0  501    0  0.00000000000E+00  0.00000000000E+00  0.43015336015E+03  0.43015336015E+03  0.00000000000E+00 0. -1.
         -2   -1    0    0    0  501 -0.00000000000E+00 -0.00000000000E+00 -0.30041486699E+02  0.30041486699E+02  0.00000000000E+00 0.  1.
         25    2    1    2    0    0 -0.31240717494E+02  0.11427226769E+02  0.24295289055E+03  0.27528034837E+03  0.12508636709E+03 0.  0.
          5    1    3    3  502    0 -0.67496030885E+02 -0.97932985622E+01  0.21252866267E+03  0.22324320311E+03  0.41800000000E+01 0.  1.
         -5    1    3    3    0  502  0.36255313391E+02  0.21220525331E+02  0.30424227886E+02  0.52037145261E+02  0.41800000000E+01 0.  1.
        -11    1    1    2    0    0 -0.54325205500E+01  0.16068097372E+02 -0.39472412181E+01  0.17414842690E+02  0.00000000000E+00 0.  1.
         11    1    1    2    0    0  0.36673238044E+02 -0.27495324141E+02  0.16110622412E+03  0.16749965578E+03  0.00000000000E+00 0. -1.
</event>
<event>
 7    1  0.2641580E-009  0.1609611E+03  0.7561462E-02  0.1187616E+00
          3   -1    0    0  501    0  0.00000000000E+00  0.00000000000E+00  0.14337995645E+03  0.14337995645E+03  0.00000000000E+00 0. -1.
         -3   -1    0    0    0  501 -0.00000000000E+00 -0.00000000000E+00 -0.21028085037E+03  0.21028085037E+03  0.00000000000E+00 0.  1.
         25    2    1    2    0    0  0.12520524161E+03  0.52585184194E+01  0.15061955672E+02  0.17770490307E+03  0.12509262778E+03 0.  0.
          5    1    3    3  502    0  0.32753721302E+02  0.57206651219E+02 -0.14314188808E+02  0.67585320921E+02  0.41800000000E+01 0.  1.
         -5    1    3    3    0  502  0.92451520307E+02 -0.51948132800E+02  0.29376144480E+02  0.11011958215E+03  0.41800000000E+01 0.  1.
        -11    1    1    2    0    0 -0.12145944418E+03 -0.29680726473E+02 -0.84812348423E+02  0.15108433588E+03  0.00000000000E+00 0. -1.
         11    1    1    2    0    0 -0.37457974290E+01  0.24422208053E+02  0.28494988271E+01  0.24871567867E+02  0.00000000000E+00 0.  1.
</event>
<event>
 7    1  0.2641580E-009  0.9201522E+02  0.7561462E-02  0.1298044E+00
          1   -1    0    0  501    0  0.00000000000E+00  0.00000000000E+00  0.19273500816E+03  0.19273500816E+03  0.00000000000E+00 0. -1.
         -1   -1    0    0    0  501 -0.00000000000E+00 -0.00000000000E+00 -0.13915722308E+03  0.13915722308E+03  0.00000000000E+00 0.  1.
         25    2    1    2    0    0 -0.24454756592E+02 -0.21120441161E+02 -0.89922708598E+02  0.15740705603E+03  0.12508708811E+03 0.  0.
          5    1    3    3  502    0 -0.59684864809E+02  0.29768646709E+02 -0.41001272183E+02  0.78403011006E+02  0.41800000000E+01 0. -1.
         -5    1    3    3    0  502  0.35230108217E+02 -0.50889087869E+02 -0.48921436414E+02  0.79004045023E+02  0.41800000000E+01 0. -1.
        -11    1    1    2    0    0  0.28838051664E+02  0.32216102701E+02  0.15315289030E+03  0.15913930471E+03  0.00000000000E+00 0. -1.
         11    1    1    2    0    0 -0.43832950719E+01 -0.11095661540E+02 -0.96523966303E+01  0.15345870500E+02  0.00000000000E+00 0.  1.
</event>
<event>
 7    1  0.2641580E-009  0.1459596E+03  0.7561462E-02  0.1205528E+00
         -1   -1    0    0    0  501 -0.00000000000E+00  0.00000000000E+00  0.76660811944E+03  0.76660811944E+03  0.00000000000E+00 0.  1.
          1   -1    0    0  501    0  0.00000000000E+00 -0.00000000000E+00 -0.33268469061E+02  0.33268469061E+02  0.00000000000E+00 0. -1.
         25    2    1    2    0    0 -0.10869100788E+02 -0.11747328325E+03  0.38711980461E+03  0.42358764228E+03  0.12508652184E+03 0.  0.
          5    1    3    3  502    0 -0.37469202992E+02  0.11427971071E+02  0.10809317427E+03  0.11504845248E+03  0.41800000000E+01 0.  1.
         -5    1    3    3    0  502  0.26600102205E+02 -0.12890125432E+03  0.27902663034E+03  0.30853918980E+03  0.41800000000E+01 0.  1.
        -11    1    1    2    0    0  0.19190868396E+02  0.93899823603E+02  0.33579284491E+03  0.34920237828E+03  0.00000000000E+00 0.  1.
         11    1    1    2    0    0 -0.83217676085E+01  0.23573459644E+02  0.10427000858E+02  0.27086567937E+02  0.00000000000E+00 0. -1.
</event>
<event>
 7    1  0.2641580E-009  0.1666808E+03  0.7561462E-02  0.1181354E+00
         -1   -1    0    0    0  501 -0.00000000000E+00  0.00000000000E+00  0.17229142625E+03  0.17229142625E+03  0.00000000000E+00 0.  1.
          1   -1    0    0  501    0  0.00000000000E+00 -0.00000000000E+00 -0.18050553686E+03  0.18050553686E+03  0.00000000000E+00 0. -1.
         25    2    1    2    0    0  0.51171384131E+02  0.12837482419E+03  0.43863958503E+01  0.18645339715E+03  0.12508806018E+03 0.  0.
          5    1    3    3  502    0  0.91017751364E+02  0.69834512323E+02 -0.49455639666E+01  0.11490440017E+03  0.41800000000E+01 0. -1.
         -5    1    3    3    0  502 -0.39846367233E+02  0.58540311868E+02  0.93319598169E+01  0.71548996984E+02  0.41800000000E+01 0. -1.
        -11    1    1    2    0    0 -0.34104684484E+02 -0.23609275273E+02 -0.39031257218E+02  0.56955828698E+02  0.00000000000E+00 0. -1.
         11    1    1    2    0    0 -0.17066699647E+02 -0.10476554892E+03  0.26430750758E+02  0.10938773726E+03  0.00000000000E+00 0.  1.
</event>
<event>
 7    1  0.2641580E-009  0.1238059E+03  0.7561462E-02  0.1236947E+00
          1   -1    0    0  501    0  0.00000000000E+00  0.00000000000E+00  0.98308396066E+03  0.98308396066E+03  0.00000000000E+00 0. -1.
         -1   -1    0    0    0  501 -0.00000000000E+00 -0.00000000000E+00 -0.18928176162E+02  0.18928176162E+02  0.00000000000E+00 0.  1.
         25    2    1    2    0    0 -0.62342563799E+01  0.69187280006E+02  0.36797050460E+03  0.39481091848E+03  0.12509046099E+03 0.  0.
          5    1    3    3  502    0 -0.57033340053E+02  0.55667719438E+02  0.28926673905E+03  0.30007401684E+03  0.41800000000E+01 0. -1.
         -5    1    3    3    0  502  0.50799083673E+02  0.13519560569E+02  0.78703765555E+02  0.94736901641E+02  0.41800000000E+01 0. -1.
        -11    1    1    2    0    0 -0.42559150292E+02 -0.25736980951E+02  0.24761723963E+03  0.25256280570E+03  0.00000000000E+00 0. -1.
         11    1    1    2    0    0  0.48793406672E+02 -0.43450299056E+02  0.34856804027E+03  0.35463841264E+03  0.00000000000E+00 0.  1.
</event>
<event>
 7    1  0.2641580E-009  0.1035249E+03  0.7561462E-02  0.1273053E+00
          2   -1    0    0  501    0  0.00000000000E+00  0.00000000000E+00  0.19448485469E+03  0.19448485469E+03  0.00000000000E+00 0. -1.
         -2   -1    0    0    0  501 -0.00000000000E+00 -0.00000000000E+00 -0.94006640464E+02  0.94006640464E+02  0.00000000000E+00 0.  1.
         25    2    1    2    0    0 -0.80116416936E+02  0.87904785393E+01  0.49988709001E+02  0.15697496165E+03  0.12508538996E+03 0.  0.
          5    1    3    3  502    0 -0.45994316101E+01 -0.71624381438E+01  0.75104030481E+02  0.75700350632E+02  0.41800000000E+01 0. -1.
         -5    1    3    3    0  502 -0.75516985326E+02  0.15952916683E+02 -0.25115321480E+02  0.81274611020E+02  0.41800000000E+01 0. -1.
        -11    1    1    2    0    0  0.22225920474E+02 -0.46252591614E+02  0.12608357437E+02  0.52841881583E+02  0.00000000000E+00 0.  1.
         11    1    1    2    0    0  0.57890496462E+02  0.37462113075E+02  0.37881147785E+02  0.78674651916E+02  0.00000000000E+00 0. -1.
</event>
<event>
 7    1  0.2641580E-009  0.2400679E+03  0.7561462E-02  0.1119748E+00
         -2   -1    0    0    0  501 -0.00000000000E+00  0.00000000000E+00  0.15285041712E+04  0.15285041712E+04  0.00000000000E+00 0.  1.
          2   -1    0    0  501    0  0.00000000000E+00 -0.00000000000E+00 -0.48250257054E+02  0.48250257054E+02  0.00000000000E+00 0. -1.
         25    2    1    2    0    0 -0.75892269689E+01  0.22778204563E+03  0.10451176045E+04  0.10769686171E+04  0.12509331807E+03 0.  0.
          5    1    3    3  502    0 -0.55251118313E+02  0.83532120962E+02  0.54968765086E+03  0.55875243822E+03  0.41800000000E+01 0.  1.
         -5    1    3    3    0  502  0.47661891344E+02  0.14424992467E+03  0.49542995368E+03  0.51821617888E+03  0.41800000000E+01 0.  1.
        -11    1    1    2    0    0  0.30772638601E+01 -0.62097372075E+02  0.47631042484E+02  0.78321576718E+02  0.00000000000E+00 0. -1.
         11    1    1    2    0    0  0.45119631088E+01 -0.16568467356E+03  0.38750526717E+03  0.42146423448E+03  0.00000000000E+00 0.  1.
</event>
<event>
 7    1  0.2641580E-009  0.1043518E+03  0.7561462E-02  0.1271402E+00
          1   -1    0    0  501    0  0.00000000000E+00  0.00000000000E+00  0.24855416964E+03  0.24855416964E+03  0.00000000000E+00 0. -1.
         -1   -1    0    0    0  501 -0.00000000000E+00 -0.00000000000E+00 -0.94316086756E+02  0.94316086756E+02  0.00000000000E+00 0.  1.
         25    2    1    2    0    0 -0.32729562346E+02 -0.97237907513E+02  0.11877873705E+03  0.20070446214E+03  0.12508979909E+03 0.  0.
          5    1    3    3  502    0 -0.51001233037E+01 -0.25141281439E+02 -0.25878946421E+02  0.36678161867E+02  0.41800000000E+01 0. -1.
         -5    1    3    3    0  502 -0.27629439042E+02 -0.72096626074E+02  0.14465768347E+03  0.16402630027E+03  0.41800000000E+01 0. -1.
        -11    1    1    2    0    0  0.34367846491E+02  0.68819331006E+02 -0.20303059422E+02  0.79557924901E+02  0.00000000000E+00 0.  1.
         11    1    1    2    0    0 -0.16382841453E+01  0.28418576506E+02  0.55762405254E+02  0.62607869356E+02  0.00000000000E+00 0. -1.
</event>
<event>
 7    1  0.2641580E-009  0.7451879E+02  0.7561462E-02  0.1345368E+00
          1   -1    0    0  501    0  0.00000000000E+00  0.00000000000E+00  0.10322729110E+03  0.10322729110E+03  0.00000000000E+00 0. -1.
         -1   -1    0    0    0  501 -0.00000000000E+00 -0.00000000000E+00 -0.14833438991E+03  0.14833438991E+03  0.00000000000E+00 0.  1.
         25    2    1    2    0    0  0.22075748071E+01 -0.20074383757E+02 -0.80068657092E+02  0.14988864650E+03  0.12509101579E+03 0.  0.
          5    1    3    3  502    0 -0.34079198664E+02 -0.56281507924E+02 -0.16204703118E+02  0.67890092936E+02  0.41800000000E+01 0.  1.
         -5    1    3    3    0  502  0.36286773471E+02  0.36207124167E+02 -0.63863953974E+02  0.81998553564E+02  0.41800000000E+01 0.  1.
        -11    1    1    2    0    0  0.11064603755E+02  0.10991500793E+02 -0.30504629552E+02  0.34260341067E+02  0.00000000000E+00 0.  1.
         11    1    1    2    0    0 -0.13272178562E+02  0.90828829639E+01  0.65466187836E+02  0.67412693438E+02  0.00000000000E+00 0. -1.
</event>
<event>
 7    1  0.2641580E-009  0.1646891E+03  0.7561462E-02  0.1183502E+00
         -2   -1    0    0    0  501 -0.00000000000E+00  0.00000000000E+00  0.65932153572E+02  0.65932153572E+02  0.00000000000E+00 0.  1.
          2   -1    0    0  501    0  0.00000000000E+00 -0.00000000000E+00 -0.52200738315E+03  0.52200738315E+03  0.00000000000E+00 0. -1.
         25    2    1    2    0    0  0.91356222491E+02 -0.10687199622E+03 -0.32545408553E+03  0.37594543769E+03  0.12508807844E+03 0.  0.
          5    1    3    3  502    0 -0.16143452972E+02 -0.36041950197E+02 -0.16744079991E+03  0.17208581325E+03  0.41800000000E+01 0.  1.
         -5    1    3    3    0  502  0.10749967546E+03 -0.70830046018E+02 -0.15801328562E+03  0.20385962444E+03  0.41800000000E+01 0.  1.
        -11    1    1    2    0    0  0.64984037895E+01  0.44160545983E+02 -0.64003010157E+02  0.78030560567E+02  0.00000000000E+00 0. -1.
         11    1    1    2    0    0 -0.97854626281E+02  0.62711450233E+02 -0.66618133886E+02  0.13396353846E+03  0.00000000000E+00 0.  1.
</event>
<event>
 7    1  0.2641580E-009  0.1129546E+03  0.7561462E-02  0.1255194E+00
         -1   -1    0    0    0  501 -0.00000000000E+00  0.00000000000E+00  0.27838177729E+02  0.27838177729E+02  0.00000000000E+00 0. -1.
          1   -1    0    0  501    0  0.00000000000E+00 -0.00000000000E+00 -0.53352139604E+03  0.53352139604E+03  0.00000000000E+00 0.  1.
         25    2    1    2    0    0  0.49703078243E+02  0.30169861648E+02 -0.29729646113E+03  0.32773743389E+03  0.12508406467E+03 0.  0.
          5    1    3    3  502    0  0.20392950025E+02 -0.44278192055E+02 -0.60821466917E+02  0.78058657049E+02  0.41800000000E+01 0.  1.
         -5    1    3    3    0  502  0.29310128219E+02  0.74448053703E+02 -0.23647499421E+03  0.24967877684E+03  0.41800000000E+01 0.  1.
        -11    1    1    2    0    0 -0.50443113248E+02  0.14265172348E+02 -0.64990176500E+02  0.83496861365E+02  0.00000000000E+00 0. -1.
         11    1    1    2    0    0  0.74003500481E+00 -0.44435033995E+02 -0.14339658068E+03  0.15012527851E+03  0.00000000000E+00 0.  1.
</event>
<event>
 7    1  0.2641580E-009  0.1967156E+03  0.7561462E-02  0.1152540E+00
          1   -1    0    0  501    0  0.00000000000E+00  0.00000000000E+00  0.11532604587E+04  0.11532604587E+04  0.00000000000E+00 0. -1.
         -1   -1    0    0    0  501 -0.00000000000E+00 -0.00000000000E+00 -0.36896905800E+02  0.36896905800E+02  0.00000000000E+00 0.  1.
         25    2    1    2    0    0  0.65684496691E+02  0.16135491499E+03  0.62143344803E+03  0.65740673460E+03  0.12511683608E+03 0.  0.
          5    1    3    3  502    0  0.35854997193E+02  0.17425623189E+03  0.47223878310E+03  0.50465607679E+03  0.41800000000E+01 0. -1.
         -5    1    3    3    0  502  0.29829499498E+02 -0.12901316903E+02  0.14919466492E+03  0.15275065781E+03  0.41800000000E+01 0. -1.
        -11    1    1    2    0    0  0.65811380517E+01 -0.46821333188E+02  0.23443830882E+03  0.23915866964E+03  0.00000000000E+00 0. -1.
         11    1    1    2    0    0 -0.72265634742E+02 -0.11453358180E+03  0.26049179608E+03  0.29359196030E+03  0.00000000000E+00 0.  1.
</event>
<event>
 7    1  0.2641580E-009  0.1038359E+03  0.7561462E-02  0.1272430E+00
          2   -1    0    0  501    0  0.00000000000E+00  0.00000000000E+00  0.17773698553E+03  0.17773698553E+03  0.00000000000E+00 0. -1.
         -2   -1    0    0    0  501 -0.00000000000E+00 -0.00000000000E+00 -0.88222939661E+02  0.88222939661E+02  0.00000000000E+00 0.  1.
         25    2    1    2    0    0 -0.10336491263E+02 -0.51611572723E+02  0.85523597879E+02  0.16040648859E+03  0.12508140668E+03 0.  0.
          5    1    3    3  502    0  0.13383399463E+02 -0.71611747820E+02  0.10169740728E+03  0.12516865763E+03  0.41800000000E+01 0. -1.
         -5    1    3    3    0  502 -0.23719890726E+02  0.20000175097E+02 -0.16173809399E+02  0.35237830955E+02  0.41800000000E+01 0. -1.
        -11    1    1    2    0    0  0.47695758795E+02  0.12500371279E+02 -0.85228466967E+01  0.50037821745E+02  0.00000000000E+00 0.  1.
         11    1    1    2    0    0 -0.37359267532E+02  0.39111201444E+02  0.12513294687E+02  0.55515614856E+02  0.00000000000E+00 0. -1.
</event>
<event>
 7    1  0.2641580E-009  0.9157055E+02  0.7561462E-02  0.1299092E+00
         -1   -1    0    0    0  501 -0.00000000000E+00  0.00000000000E+00  0.33046151394E+02  0.33046151394E+02  0.00000000000E+00 0.  1.
          1   -1    0    0  501    0  0.00000000000E+00 -0.00000000000E+00 -0.43443017634E+03  0.43443017634E+03  0.00000000000E+00 0. -1.
         25    2    1    2    0    0  0.18066576710E+02 -0.58202029135E+02 -0.20525351314E+03  0.24797215263E+03  0.12508919392E+03 0.  0.
          5    1    3    3  502    0 -0.38266336793E+02 -0.85320055066E+01 -0.14877073963E+03  0.15390683227E+03  0.41800000000E+01 0. -1.
         -5    1    3    3    0  502  0.56332913503E+02 -0.49670023628E+02 -0.56482773504E+02  0.94065320356E+02  0.41800000000E+01 0. -1.
        -11    1    1    2    0    0 -0.24522004735E+02  0.26355563233E+02 -0.17936096103E+03  0.18293796427E+03  0.00000000000E+00 0. -1.
         11    1    1    2    0    0  0.64554280250E+01  0.31846465902E+02 -0.16769550776E+02  0.36566210833E+02  0.00000000000E+00 0.  1.
</event>
<event>
 7    1  0.2641580E-009  0.1316851E+03  0.7561462E-02  0.1224976E+00
         -1   -1    0    0    0  501 -0.00000000000E+00  0.00000000000E+00  0.72985251223E+02  0.72985251223E+02  0.00000000000E+00 0.  1.
          1   -1    0    0  501    0  0.00000000000E+00 -0.00000000000E+00 -0.28226741182E+03  0.28226741182E+03  0.00000000000E+00 0. -1.
         25    2    1    2    0    0  0.11688877744E+02 -0.75510677993E+02 -0.46320191652E+02  0.15372531000E+03  0.12508964156E+03 0.  0.
          5    1    3    3  502    0 -0.52722882384E+02 -0.57383337774E+02 -0.35808362607E+02  0.85861871710E+02  0.41800000000E+01 0. -1.
         -5    1    3    3    0  502  0.64411760128E+02 -0.18127340219E+02 -0.10511829046E+02  0.67863438287E+02  0.41800000000E+01 0. -1.
        -11    1    1    2    0    0 -0.13809729221E+02  0.96352889344E+02 -0.13908864551E+03  0.16976524738E+03  0.00000000000E+00 0.  1.
         11    1    1    2    0    0  0.21208514776E+01 -0.20842211351E+02 -0.23873323436E+02  0.31762105674E+02  0.00000000000E+00 0. -1.
</event>
<event>
 7    1  0.2641580E-009  0.9326444E+02  0.7561462E-02  0.1295134E+00
          1   -1    0    0  501    0  0.00000000000E+00  0.00000000000E+00  0.44945475458E+02  0.44945475458E+02  0.00000000000E+00 0. -1.
         -1   -1    0    0    0  501 -0.00000000000E+00 -0.00000000000E+00 -0.28495282761E+03  0.28495282761E+03  0.00000000000E+00 0.  1.
         25    2    1    2    0    0  0.15571402290E+02 -0.56911957705E+01 -0.97094850384E+02  0.15921694449E+03  0.12509103550E+03 0.  0.
          5    1    3    3  502    0  0.55427201803E+02  0.28313269938E+02 -0.19234729617E+02  0.65278351524E+02  0.41800000000E+01 0. -1.
         -5    1    3    3    0  502 -0.39855799513E+02 -0.34004465708E+02 -0.77860120767E+02  0.93938592968E+02  0.41800000000E+01 0. -1.
        -11    1    1    2    0    0  0.27739501499E+02 -0.10485661247E+01 -0.80922159844E+01  0.28914760831E+02  0.00000000000E+00 0. -1.
         11    1    1    2    0    0 -0.43310903789E+02  0.67397618952E+01 -0.13482028579E+03  0.14176659775E+03  0.00000000000E+00 0.  1.
</event>
<event>
 7    1  0.2821185E-009  0.4526375E+02  0.7561462E-02  0.1472702E+00
          4   -1    0    0  501    0  0.00000000000E+00  0.00000000000E+00  0.29305174229E+03  0.29305174229E+03  0.00000000000E+00 0. -1.
         -4   -1    0    0    0  501 -0.00000000000E+00 -0.00000000000E+00 -0.48605672434E+02  0.48605672434E+02  0.00000000000E+00 0.  1.
         25    2    1    2    0    0 -0.34659584216E+02  0.16867451511E+02  0.18631931410E+03  0.22767111415E+03  0.12503380228E+03 0.  0.
          5    1    3    3  502    0 -0.24002255061E+02  0.25861046873E+02  0.20268030118E+03  0.20577093789E+03  0.41800000000E+01 0.  1.
         -5    1    3    3    0  502 -0.10657329155E+02 -0.89935953621E+01 -0.16360987077E+02  0.21900176264E+02  0.41800000000E+01 0.  1.
        -11    1    1    2    0    0  0.20878947519E+02 -0.16571021776E+02 -0.20833856715E+02  0.33831624227E+02  0.00000000000E+00 0.  1.
         11    1    1    2    0    0  0.13780636697E+02 -0.29642973474E+00  0.78960612472E+02  0.80154676348E+02  0.00000000000E+00 0. -1.
</event>
<event>
 7    1  0.2641580E-009  0.1129837E+03  0.7561462E-02  0.1255142E+00
          1   -1    0    0  501    0  0.00000000000E+00  0.00000000000E+00  0.62188273554E+03  0.62188273554E+03  0.00000000000E+00 0. -1.
         -1   -1    0    0    0  501 -0.00000000000E+00 -0.00000000000E+00 -0.44310678277E+02  0.44310678277E+02  0.00000000000E+00 0.  1.
         25    2    1    2    0    0  0.79920053175E+02 -0.36069455645E+02  0.48749989943E+03  0.51087317030E+03  0.12508806360E+03 0.  0.
          5    1    3    3  502    0  0.33823058912E+02  0.10424278514E+02  0.24499130983E+02  0.43247482188E+02  0.41800000000E+01 0.  1.
         -5    1    3    3    0  502  0.46096994263E+02 -0.46493734159E+02  0.46300076845E+03  0.46762568811E+03  0.41800000000E+01 0.  1.
        -11    1    1    2    0    0 -0.70443716228E+02 -0.15634410062E+02  0.64851258251E+02  0.97017718128E+02  0.00000000000E+00 0.  1.
         11    1    1    2    0    0 -0.94763369475E+01  0.51703865708E+02  0.25220899577E+02  0.58302525387E+02  0.00000000000E+00 0. -1.
</event>
<event>
 7    1  0.2641580E-009  0.1260005E+03  0.7561462E-02  0.1233514E+00
          3   -1    0    0  501    0  0.00000000000E+00  0.00000000000E+00  0.10117583974E+03  0.10117583974E+03  0.00000000000E+00 0. -1.
         -3   -1    0    0    0  501 -0.00000000000E+00 -0.00000000000E+00 -0.16319596896E+03  0.16319596896E+03  0.00000000000E+00 0.  1.
         25    2    1    2    0    0 -0.40827280186E+02 -0.50506497848E+02 -0.56436967855E+02  0.15182263640E+03  0.12508880226E+03 0.  0.
          5    1    3    3  502    0  0.44559564318E+02 -0.24025169956E+02 -0.13500883856E+02  0.52559583603E+02  0.41800000000E+01 0. -1.
         -5    1    3    3    0  502 -0.85386844504E+02 -0.26481327892E+02 -0.42936083999E+02  0.99263052796E+02  0.41800000000E+01 0. -1.
        -11    1    1    2    0    0 -0.82722231674E+00  0.66928498951E+02 -0.94955515550E+01  0.67603799951E+02  0.00000000000E+00 0.  1.
         11    1    1    2    0    0  0.41654502502E+02 -0.16422001102E+02  0.39123901837E+01  0.44945372352E+02  0.00000000000E+00 0. -1.
</event>
<event>
 7    1  0.2641580E-009  0.9653764E+02  0.7561462E-02  0.1287750E+00
          3   -1    0    0  501    0  0.00000000000E+00  0.00000000000E+00  0.20341107249E+02  0.20341107249E+02  0.00000000000E+00 0. -1.
         -3   -1    0    0    0  501 -0.00000000000E+00 -0.00000000000E+00 -0.89919379202E+03  0.89919379202E+03  0.00000000000E+00 0.  1.
         25    2    1    2    0    0  0.10353306827E+02 -0.37753678220E+02 -0.72170620935E+03  0.73351205381E+03  0.12509016459E+03 0.  0.
          5    1    3    3  502    0  0.26194874348E+02 -0.72854259155E+02 -0.29387211278E+03  0.30392796118E+03  0.41800000000E+01 0. -1.
         -5    1    3    3    0  502 -0.15841567521E+02  0.35100580935E+02 -0.42783409657E+03  0.42958409262E+03  0.41800000000E+01 0. -1.
        -11    1    1    2    0    0 -0.35905806091E+02  0.65893373066E+01 -0.13538858578E+03  0.14022380481E+03  0.00000000000E+00 0.  1.
         11    1    1    2    0    0  0.25552499264E+02  0.31164340913E+02 -0.21757889646E+02  0.45799040657E+02  0.00000000000E+00 0. -1.
</event>
<event>
 7    1  0.2641580E-009  0.9180010E+02  0.7561462E-02  0.1298550E+00
          1   -1    0    0  501    0  0.00000000000E+00  0.00000000000E+00  0.83684857145E+02  0.83684857145E+02  0.00000000000E+00 0. -1.
         -1   -1    0    0    0  501 -0.00000000000E+00 -0.00000000000E+00 -0.20559662753E+03  0.20559662753E+03  0.00000000000E+00 0.  1.
         25    2    1    2    0    0 -0.24648031730E+02  0.41001147502E+02 -0.13648297886E+03  0.19121750328E+03  0.12509160834E+03 0.  0.
          5    1    3    3  502    0 -0.42399169503E+02 -0.17622669149E+02 -0.11863781059E+03  0.12728177617E+03  0.41800000000E+01 0. -1.
         -5    1    3    3    0  502  0.17751137773E+02  0.58623816651E+02 -0.17845168269E+02  0.63935727113E+02  0.41800000000E+01 0. -1.
        -11    1    1    2    0    0  0.30160332102E+02  0.42993034013E+01 -0.23626261233E+02  0.38552948812E+02  0.00000000000E+00 0.  1.
         11    1    1    2    0    0 -0.55123003715E+01 -0.45300450903E+02  0.38197469706E+02  0.59511032585E+02  0.00000000000E+00 0. -1.
</event>
<event>
 7    1  0.2641580E-009  0.1069609E+03  0.7561462E-02  0.1266304E+00
          2   -1    0    0  501    0  0.00000000000E+00  0.00000000000E+00  0.42384818556E+02  0.42384818556E+02  0.00000000000E+00 0. -1.
         -2   -1    0    0    0  501 -0.00000000000E+00 -0.00000000000E+00 -0.41466486587E+03  0.41466486587E+03  0.00000000000E+00 0.  1.
         25    2    1    2    0    0  0.23492206494E+02  0.71027373992E+02 -0.22488373843E+03  0.26798757680E+03  0.12509146209E+03 0.  0.
          5    1    3    3  502    0 -0.37626724326E+02  0.58442713776E+02 -0.60990050085E+02  0.92566623501E+02  0.41800000000E+01 0.  1.
         -5    1    3    3    0  502  0.61118930820E+02  0.12584660216E+02 -0.16389368834E+03  0.17542095330E+03  0.41800000000E+01 0.  1.
        -11    1    1    2    0    0 -0.31700641109E+02 -0.50325250937E+02 -0.24768607875E+02  0.64428607502E+02  0.00000000000E+00 0. -1.
         11    1    1    2    0    0  0.82084346156E+01 -0.20702123055E+02 -0.12262770101E+03  0.12463350012E+03  0.00000000000E+00 0.  1.
</event>
<event>
 7    1  0.2641580E-009  0.8403216E+02  0.7561462E-02  0.1317983E+00
          1   -1    0    0  501    0  0.00000000000E+00  0.00000000000E+00  0.37033359130E+02  0.37033359130E+02  0.00000000000E+00 0. -1.
         -1   -1    0    0    0  501 -0.00000000000E+00 -0.00000000000E+00 -0.33000979265E+03  0.33000979265E+03  0.00000000000E+00 0.  1.
         25    2    1    2    0    0  0.16809787748E+02  0.10538440289E+01 -0.14394925788E+03  0.19145211610E+03  0.12509534110E+03 0.  0.
          5    1    3    3  502    0  0.20070381533E+02  0.59451856020E+02 -0.48447054773E+02  0.79384714620E+02  0.41800000000E+01 0. -1.
         -5    1    3    3    0  502 -0.32605937849E+01 -0.58398011991E+02 -0.95502203108E+02  0.11206740148E+03  0.41800000000E+01 0. -1.
        -11    1    1    2    0    0 -0.17437761184E+02 -0.20596069415E+02 -0.15323322977E+03  0.15559144031E+03  0.00000000000E+00 0.  1.
         11    1    1    2    0    0  0.62797343582E+00  0.19542225386E+02  0.42060541328E+01  0.19999595372E+02  0.00000000000E+00 0. -1.
</event>
<event>
 7    1  0.2641580E-009  0.1213160E+03  0.7561462E-02  0.1240942E+00
          2   -1    0    0  501    0  0.00000000000E+00  0.00000000000E+00  0.10479949847E+03  0.10479949847E+03  0.00000000000E+00 0. -1.
         -2   -1    0    0    0  501 -0.00000000000E+00 -0.00000000000E+00 -0.28602227558E+03  0.28602227558E+03  0.00000000000E+00 0.  1.
         25    2    1    2    0    0 -0.15236881772E+02  0.10255181432E+03 -0.19347952905E+03  0.25264848298E+03  0.12509152892E+03 0.  0.
          5    1    3    3  502    0  0.17175704496E+02  0.80152899889E+02 -0.19645970374E+03  0.21291636804E+03  0.41800000000E+01 0.  1.
         -5    1    3    3    0  502 -0.32412586268E+02  0.22398914435E+02  0.29801746970E+01  0.39732114941E+02  0.41800000000E+01 0.  1.
        -11    1    1    2    0    0  0.29621914291E+02 -0.16945815236E+02 -0.26402700373E+02  0.43147665606E+02  0.00000000000E+00 0.  1.
         11    1    1    2    0    0 -0.14385032519E+02 -0.85605999087E+02  0.38659452315E+02  0.95025625458E+02  0.00000000000E+00 0. -1.
</event>
<event>
 7    1  0.3173138E-009  0.1083999E+03  0.7561462E-02  0.1263562E+00
          1   -1    0    0  501    0  0.00000000000E+00  0.00000000000E+00  0.20335230127E+03  0.20335230127E+03  0.00000000000E+00 0. -1.
         -1   -1    0    0    0  501 -0.00000000000E+00 -0.00000000000E+00 -0.12173338455E+03  0.12173338455E+03  0.00000000000E+00 0.  1.
         25    2    1    2    0    0  0.84672526636E+01  0.96767788541E+02 -0.17011365317E+02  0.15928633538E+03  0.12508817219E+03 0.  0.
          5    1    3    3  502    0 -0.22949930020E+02  0.19566726148E+02  0.45687992783E+02  0.54903744359E+02  0.41800000000E+01 0. -1.
         -5    1    3    3    0  502  0.31417182684E+02  0.77201062393E+02 -0.62699358100E+02  0.10438259102E+03  0.41800000000E+01 0. -1.
        -11    1    1    2    0    0  0.13155055831E+02 -0.42221880354E+02 -0.71862206438E+01  0.44803844051E+02  0.00000000000E+00 0.  1.
         11    1    1    2    0    0 -0.21622308494E+02 -0.54545908186E+02  0.10581650268E+03  0.12099550638E+03  0.00000000000E+00 0. -1.
</event>
<event>
 7    1  0.2641580E-009  0.1131132E+03  0.7561462E-02  0.1254911E+00
         -1   -1    0    0    0  501 -0.00000000000E+00  0.00000000000E+00  0.23741656648E+02  0.23741656648E+02  0.00000000000E+00 0.  1.
          1   -1    0    0  501    0  0.00000000000E+00 -0.00000000000E+00 -0.13235104546E+04  0.13235104546E+04  0.00000000000E+00 0. -1.
         25    2    1    2    0    0  0.27538858658E+02 -0.84732867244E+02 -0.11002273581E+04  0.11108943171E+04  0.12509155413E+03 0.  0.
          5    1    3    3  502    0 -0.37409007381E+02 -0.13646343405E+02 -0.60818782193E+03  0.60950435245E+03  0.41800000000E+01 0.  1.
         -5    1    3    3    0  502  0.64947866039E+02 -0.71086523839E+02 -0.49203953613E+03  0.50138996469E+03  0.41800000000E+01 0.  1.
        -11    1    1    2    0    0 -0.17464611740E+02  0.68597467124E+02 -0.20474567156E+03  0.21663659705E+03  0.00000000000E+00 0. -1.
         11    1    1    2    0    0 -0.10074246918E+02  0.16135400120E+02  0.52042316261E+01  0.19721197094E+02  0.00000000000E+00 0.  1.
</event>
<event>
 7    1  0.2641580E-009  0.2014046E+03  0.7561462E-02  0.1148559E+00
         -2   -1    0    0    0  501 -0.00000000000E+00  0.00000000000E+00  0.72546767774E+02  0.72546767774E+02  0.00000000000E+00 0.  1.
          2   -1    0    0  501    0  0.00000000000E+00 -0.00000000000E+00 -0.80601374761E+03  0.80601374761E+03  0.00000000000E+00 0. -1.
         25    2    1    2    0    0 -0.13503055008E+03  0.13968721519E+03 -0.54620943420E+03  0.59307531157E+03  0.12509121326E+03 0.  0.
          5    1    3    3  502    0 -0.73268920521E+01  0.42942758188E+02 -0.27173615142E+03  0.27523766497E+03  0.41800000000E+01 0. -1.
         -5    1    3    3    0  502 -0.12770365803E+03  0.96744457003E+02 -0.27447328278E+03  0.31783764659E+03  0.41800000000E+01 0. -1.
        -11    1    1    2    0    0  0.13189869290E+03 -0.11834311651E+03 -0.11788578629E+03  0.21283659700E+03  0.00000000000E+00 0.  1.
         11    1    1    2    0    0  0.31318571806E+01 -0.21344098682E+02 -0.69371759339E+02  0.72648606812E+02  0.00000000000E+00 0. -1.
</event>
<event>
 7    1  0.2641580E-009  0.1413277E+03  0.7561462E-02  0.1211554E+00
         -1   -1    0    0    0  501 -0.00000000000E+00  0.00000000000E+00  0.31762825056E+02  0.31762825056E+02  0.00000000000E+00 0.  1.
          1   -1    0    0  501    0  0.00000000000E+00 -0.00000000000E+00 -0.71054655780E+03  0.71054655780E+03  0.00000000000E+00 0. -1.
         25    2    1    2    0    0  0.69574220349E+02  0.76701998596E+02 -0.34397932256E+03  0.38039476729E+03  0.12511848748E+03 0.  0.
          5    1    3    3  502    0 -0.19375428843E+02  0.49362802486E+02 -0.21381951941E+03  0.22033690747E+03  0.41800000000E+01 0.  1.
         -5    1    3    3    0  502  0.88949649192E+02  0.27339196110E+02 -0.13015980314E+03  0.16005785982E+03  0.41800000000E+01 0.  1.
        -11    1    1    2    0    0  0.67798962752E+01  0.15310617810E+02 -0.58498122227E+02  0.60847451182E+02  0.00000000000E+00 0.  1.
         11    1    1    2    0    0 -0.76354116624E+02 -0.92012616406E+02 -0.27630628795E+03  0.30106716438E+03  0.00000000000E+00 0. -1.
</event>
<event>
 7    1  0.2641580E-009  0.1270036E+03  0.7561462E-02  0.1231971E+00
         -4   -1    0    0    0  501 -0.00000000000E+00  0.00000000000E+00  0.44915367799E+02  0.44915367799E+02  0.00000000000E+00 0.  1.
          4   -1    0    0  501    0  0.00000000000E+00 -0.00000000000E+00 -0.39835529347E+03  0.39835529347E+03  0.00000000000E+00 0. -1.
         25    2    1    2    0    0  0.56764261315E+02  0.60580057843E+02 -0.18630521945E+03  0.23926704938E+03  0.12508781457E+03 0.  0.
          5    1    3    3  502    0 -0.30559311569E+02 -0.26395468306E+01 -0.88087544124E+02  0.93368766516E+02  0.41800000000E+01 0.  1.
         -5    1    3    3    0  502  0.87323572884E+02  0.63219604673E+02 -0.98217675328E+02  0.14589828287E+03  0.41800000000E+01 0.  1.
        -11    1    1    2    0    0  0.17068763055E+02 -0.31466717715E+02 -0.36324631618E+02  0.50999763315E+02  0.00000000000E+00 0.  1.
         11    1    1    2    0    0 -0.73833024370E+02 -0.29113340128E+02 -0.13081007461E+03  0.15300384858E+03  0.00000000000E+00 0. -1.
</event>
<event>
 7    1  0.2641580E-009  0.1108177E+03  0.7561462E-02  0.1259063E+00
         -1   -1    0    0    0  501 -0.00000000000E+00  0.00000000000E+00  0.11710500218E+03  0.11710500218E+03  0.00000000000E+00 0.  1.
          1   -1    0    0  501    0  0.00000000000E+00 -0.00000000000E+00 -0.11979914663E+03  0.11979914663E+03  0.00000000000E+00 0. -1.
         25    2    1    2    0    0  0.42812838314E+02 -0.16804498784E+02 -0.12086739232E+02  0.13382464264E+03  0.12509042892E+03 0.  0.
          5    1    3    3  502    0  0.16032666242E+02  0.52634349812E+02 -0.20379218110E+02  0.58823516537E+02  0.41800000000E+01 0.  1.
         -5    1    3    3    0  502  0.26780172072E+02 -0.69438848596E+02  0.82924788779E+01  0.75001126101E+02  0.41800000000E+01 0.  1.
        -11    1    1    2    0    0 -0.65225231201E+02  0.23958790521E+01 -0.14983452783E+02  0.66966968566E+02  0.00000000000E+00 0. -1.
         11    1    1    2    0    0  0.22412392887E+02  0.14408619731E+02  0.24376047559E+02  0.36112537603E+02  0.00000000000E+00 0.  1.
</event>
<event>
 7    1  0.2641580E-009  0.2195965E+03  0.7561462E-02  0.1134184E+00
          2   -1    0    0  501    0  0.00000000000E+00  0.00000000000E+00  0.20560462499E+03  0.20560462499E+03  0.00000000000E+00 0. -1.
         -2   -1    0    0    0  501 -0.00000000000E+00 -0.00000000000E+00 -0.28881475954E+03  0.28881475954E+03  0.00000000000E+00 0.  1.
         25    2    1    2    0    0 -0.19872517738E+03 -0.88468832138E+02 -0.44954924181E+02  0.25492422112E+03  0.12508790078E+03 0.  0.
          5    1    3    3  502    0 -0.16130148933E+03 -0.74465399144E+02  0.19705456783E+02  0.17879889137E+03  0.41800000000E+01 0.  1.
         -5    1    3    3    0  502 -0.37423688049E+02 -0.14003432994E+02 -0.64660380964E+02  0.76125329748E+02  0.41800000000E+01 0.  1.
        -11    1    1    2    0    0  0.81791060959E+02  0.58606096976E+02 -0.59582513677E+02  0.11693813831E+03  0.00000000000E+00 0.  1.
         11    1    1    2    0    0  0.11693411642E+03  0.29862735162E+02  0.21327303304E+02  0.12255702510E+03  0.00000000000E+00 0. -1.
</event>
<event>
 7    1  0.2719863E-009  0.1959618E+03  0.7561462E-02  0.1153191E+00
         -2   -1    0    0    0  501 -0.00000000000E+00  0.00000000000E+00  0.38911843787E+02  0.38911843787E+02  0.00000000000E+00 0.  1.
          2   -1    0    0  501    0  0.00000000000E+00 -0.00000000000E+00 -0.12991798672E+04  0.12991798672E+04  0.00000000000E+00 0. -1.
         25    2    1    2    0    0 -0.83485301114E+02  0.17612108780E+03 -0.57377169848E+03  0.61874875930E+03  0.12509049557E+03 0.  0.
          5    1    3    3  502    0 -0.64803344764E+02  0.10666305936E+03 -0.50106231964E+03  0.51638880922E+03  0.41800000000E+01 0. -1.
         -5    1    3    3    0  502 -0.18681956350E+02  0.69458028441E+02 -0.72709378843E+02  0.10235995008E+03  0.41800000000E+01 0. -1.
        -11    1    1    2    0    0  0.53804922580E+02 -0.12011709484E+03 -0.58545447048E+03  0.60006668227E+03  0.00000000000E+00 0. -1.
         11    1    1    2    0    0  0.29680378534E+02 -0.56003992959E+02 -0.10104185449E+03  0.11927626946E+03  0.00000000000E+00 0.  1.
</event>
<event>
 7    1  0.2641580E-009  0.8745723E+02  0.7561462E-02  0.1309129E+00
          1   -1    0    0  501    0  0.00000000000E+00  0.00000000000E+00  0.17026481435E+03  0.17026481435E+03  0.00000000000E+00 0. -1.
         -1   -1    0    0    0  501 -0.00000000000E+00 -0.00000000000E+00 -0.10072328254E+03  0.10072328254E+03  0.00000000000E+00 0.  1.
         25    2    1    2    0    0 -0.47923120668E+01  0.57665313232E+02 -0.99617686005E+01  0.13818514758E+03  0.12509054150E+03 0.  0.
          5    1    3    3  502    0 -0.20997183466E+02  0.24336914293E+02 -0.64458377230E+02  0.72149302878E+02  0.41800000000E+01 0.  1.
         -5    1    3    3    0  502  0.16204871399E+02  0.33328398940E+02  0.54496608629E+02  0.66035844698E+02  0.41800000000E+01 0.  1.
        -11    1    1    2    0    0 -0.41023186776E+02 -0.35771283532E+02  0.50913073499E+02  0.74529374289E+02  0.00000000000E+00 0. -1.
         11    1    1    2    0    0  0.45815498843E+02 -0.21894029700E+02  0.28590226918E+02  0.58273575023E+02  0.00000000000E+00 0.  1.
</event>
<event>
 7    1  0.2641580E-009  0.2386225E+03  0.7561462E-02  0.1120714E+00
          2   -1    0    0  501    0  0.00000000000E+00  0.00000000000E+00  0.16994293015E+04  0.16994293015E+04  0.00000000000E+00 0. -1.
         -2   -1    0    0    0  501 -0.00000000000E+00 -0.00000000000E+00 -0.34891545847E+02  0.34891545847E+02  0.00000000000E+00 0.  1.
         25    2    1    2    0    0 -0.11205107511E+03  0.18763377783E+03  0.88389960801E+03  0.91906893226E+03  0.12508919690E+03 0.  0.
          5    1    3    3  502    0 -0.85521588508E+02  0.32644035143E+02  0.39489039196E+03  0.40538311409E+03  0.41800000000E+01 0.  1.
         -5    1    3    3    0  502 -0.26529486603E+02  0.15498974269E+03  0.48900921606E+03  0.51368581817E+03  0.41800000000E+01 0.  1.
        -11    1    1    2    0    0  0.22243079295E+02 -0.10137649331E+03  0.26046239562E+03  0.28037939921E+03  0.00000000000E+00 0.  1.
         11    1    1    2    0    0  0.89807995817E+02 -0.86257284521E+02  0.52017575203E+03  0.53487251588E+03  0.00000000000E+00 0. -1.
</event>
<event>
 7    1  0.2641580E-009  0.1382868E+03  0.7561462E-02  0.1215653E+00
          1   -1    0    0  501    0  0.00000000000E+00  0.00000000000E+00  0.52957238816E+03  0.52957238816E+03  0.00000000000E+00 0. -1.
         -1   -1    0    0    0  501 -0.00000000000E+00 -0.00000000000E+00 -0.92951555482E+02  0.92951555482E+02  0.00000000000E+00 0.  1.
         25    2    1    2    0    0  0.39230401607E+02  0.82869400013E+02  0.46719625972E+03  0.49226605918E+03  0.12508863280E+03 0.  0.
          5    1    3    3  502    0  0.71226798875E+02  0.94178734895E+02  0.31905625755E+03  0.34023118444E+03  0.41800000000E+01 0.  1.
         -5    1    3    3    0  502 -0.31996397269E+02 -0.11309334882E+02  0.14814000217E+03  0.15203487474E+03  0.41800000000E+01 0.  1.
        -11    1    1    2    0    0 -0.65480188393E+02 -0.51384063343E+02 -0.32168667137E+02  0.89234523492E+02  0.00000000000E+00 0.  1.
         11    1    1    2    0    0  0.26249786786E+02 -0.31485336670E+02  0.15932400978E+01  0.41023360973E+02  0.00000000000E+00 0. -1.
</event>
<event>
 7    1  0.2641580E-009  0.1362240E+03  0.7561462E-02  0.1218502E+00
          3   -1    0    0  501    0  0.00000000000E+00  0.00000000000E+00  0.76532510711E+03  0.76532510711E+03  0.00000000000E+00 0. -1.
         -3   -1    0    0    0  501 -0.00000000000E+00 -0.00000000000E+00 -0.40535456611E+02  0.40535456611E+02  0.00000000000E+00 0.  1.
         25    2    1    2    0    0  0.87899187228E+02  0.81625846915E+02  0.22624242620E+03  0.28499557781E+03  0.12509115860E+03 0.  0.
          5    1    3    3  502    0 -0.17567467034E+02 -0.10139172219E+01 -0.40448240511E+01  0.18533130543E+02  0.41800000000E+01 0.  1.
         -5    1    3    3    0  502  0.10546665426E+03  0.82639764137E+02  0.23028725025E+03  0.26646244727E+03  0.41800000000E+01 0.  1.
        -11    1    1    2    0    0 -0.33430584326E+02 -0.25045520382E+02  0.48466959120E+02  0.63983811906E+02  0.00000000000E+00 0. -1.
         11    1    1    2    0    0 -0.54468602902E+02 -0.56580326533E+02  0.45008026519E+03  0.45688117401E+03  0.00000000000E+00 0.  1.
</event>
<event>
 7    1  0.2641580E-009  0.1453364E+03  0.7561462E-02  0.1206324E+00
          2   -1    0    0  501    0  0.00000000000E+00  0.00000000000E+00  0.26686373955E+03  0.26686373955E+03  0.00000000000E+00 0. -1.
         -2   -1    0    0    0  501 -0.00000000000E+00 -0.00000000000E+00 -0.82789636287E+02  0.82789636287E+02  0.00000000000E+00 0.  1.
         25    2    1    2    0    0 -0.88665027441E+02  0.45617582543E+02  0.11927041363E+03  0.19953812597E+03  0.12509029227E+03 0.  0.
          5    1    3    3  502    0  0.72061606635E+01 -0.34071226396E+02  0.29914123759E+02  0.46098854865E+02  0.41800000000E+01 0. -1.
         -5    1    3    3    0  502 -0.95871188104E+02  0.79688808938E+02  0.89356289872E+02  0.15343927111E+03  0.41800000000E+01 0. -1.
        -11    1    1    2    0    0  0.78369819454E+02  0.56477327162E+01  0.19563537271E+02  0.80971954877E+02  0.00000000000E+00 0. -1.
         11    1    1    2    0    0  0.10295207987E+02 -0.51265315259E+02  0.45240152361E+02  0.69143294988E+02  0.00000000000E+00 0.  1.
</event>
<event>
 7    1  0.2641580E-009  0.1014224E+03  0.7561462E-02  0.1277333E+00
         -1   -1    0    0    0  501 -0.00000000000E+00  0.00000000000E+00  0.13793346740E+03  0.13793346740E+03  0.00000000000E+00 0.  1.
          1   -1    0    0  501    0  0.00000000000E+00 -0.00000000000E+00 -0.11988214372E+03  0.11988214372E+03  0.00000000000E+00 0. -1.
         25    2    1    2    0    0 -0.48263340586E+02 -0.42208218206E+02 -0.18508725019E+02  0.14178312020E+03  0.12509594934E+03 0.  0.
          5    1    3    3  502    0 -0.88817872560E+02 -0.17431582378E+02  0.58968550310E-02  0.90608757772E+02  0.41800000000E+01 0. -1.
         -5    1    3    3    0  502  0.40554531973E+02 -0.24776635828E+02 -0.18514621874E+02  0.51174362425E+02  0.41800000000E+01 0. -1.
        -11    1    1    2    0    0  0.30773891018E+02  0.22151743240E+02 -0.27384180714E+02  0.46772058436E+02  0.00000000000E+00 0. -1.
         11    1    1    2    0    0  0.17489449568E+02  0.20056474966E+02  0.63944229406E+02  0.69260432490E+02  0.00000000000E+00 0.  1.
</event>
<event>
 7    1  0.2670562E-009  0.1779666E+03  0.7561462E-02  0.1169786E+00
         -2   -1    0    0    0  501 -0.00000000000E+00  0.00000000000E+00  0.41635887303E+02  0.41635887303E+02  0.00000000000E+00 0.  1.
          2   -1    0    0  501    0  0.00000000000E+00 -0.00000000000E+00 -0.84942343439E+03  0.84942343439E+03  0.00000000000E+00 0. -1.
         25    2    1    2    0    0 -0.10922612451E+03  0.10087048512E+03 -0.50816778640E+03  0.54403408672E+03  0.12503354485E+03 0.  0.
          5    1    3    3  502    0  0.11466650595E+02 -0.19377676631E+02 -0.44673288263E+02  0.50201130582E+02  0.41800000000E+01 0. -1.
         -5    1    3    3    0  502 -0.12069277510E+03  0.12024816175E+03 -0.46349449814E+03  0.49383295614E+03  0.41800000000E+01 0. -1.
        -11    1    1    2    0    0  0.72486215662E+02 -0.22243174394E+02 -0.20529146248E+03  0.21884605282E+03  0.00000000000E+00 0. -1.
         11    1    1    2    0    0  0.36739908847E+02 -0.78627310727E+02 -0.94328298206E+02  0.12817918215E+03  0.00000000000E+00 0.  1.
</event>
<event>
 7    1  0.2641580E-009  0.8668175E+02  0.7561462E-02  0.1311092E+00
          1   -1    0    0  501    0  0.00000000000E+00  0.00000000000E+00  0.27929703548E+02  0.27929703548E+02  0.00000000000E+00 0. -1.
         -1   -1    0    0    0  501 -0.00000000000E+00 -0.00000000000E+00 -0.41820651596E+03  0.41820651596E+03  0.00000000000E+00 0.  1.
         25    2    1    2    0    0  0.11404143692E-01  0.82846914674E+01 -0.21438402110E+03  0.24834320297E+03  0.12508078076E+03 0.  0.
          5    1    3    3  502    0 -0.45800333384E+02 -0.29589584218E+02 -0.15437526438E+03  0.16377548255E+03  0.41800000000E+01 0. -1.
         -5    1    3    3    0  502  0.45811737528E+02  0.37874275685E+02 -0.60008756728E+02  0.84567720426E+02  0.41800000000E+01 0. -1.
        -11    1    1    2    0    0 -0.26799595308E+02 -0.15999285867E+02 -0.16489849153E+03  0.16782642213E+03  0.00000000000E+00 0.  1.
         11    1    1    2    0    0  0.26788191165E+02  0.77145944000E+01 -0.10994299781E+02  0.29966594406E+02  0.00000000000E+00 0. -1.
</event>
<event>
 7    1  0.2641580E-009  0.1007885E+03  0.7561462E-02  0.1278647E+00
         -1   -1    0    0    0  501 -0.00000000000E+00  0.00000000000E+00  0.12437764185E+03  0.12437764185E+03  0.00000000000E+00 0.  1.
          1   -1    0    0  501    0  0.00000000000E+00 -0.00000000000E+00 -0.13374369384E+03  0.13374369384E+03  0.00000000000E+00 0. -1.
         25    2    1    2    0    0 -0.22132109782E+02  0.50840218380E+02 -0.48188734934E+02  0.14506495637E+03  0.12508848589E+03 0.  0.
          5    1    3    3  502    0 -0.54445716417E+02  0.25744163239E+01 -0.64538287306E+02  0.84579114348E+02  0.41800000000E+01 0. -1.
         -5    1    3    3    0  502  0.32313606635E+02  0.48265802056E+02  0.16349552372E+02  0.60485842018E+02  0.41800000000E+01 0. -1.
        -11    1    1    2    0    0  0.39481821520E+02 -0.51668655826E+01  0.49011418283E+02  0.63147682876E+02  0.00000000000E+00 0.  1.
         11    1    1    2    0    0 -0.17349711739E+02 -0.45673352797E+02 -0.10188735346E+02  0.49908696448E+02  0.00000000000E+00 0. -1.
</event>
<event>
 7    1  0.2641580E-009  0.1052791E+03  0.7561462E-02  0.1269571E+00
          2   -1    0    0  501    0  0.00000000000E+00  0.00000000000E+00  0.91612216508E+03  0.91612216508E+03  0.00000000000E+00 0. -1.
         -2   -1    0    0    0  501 -0.00000000000E+00 -0.00000000000E+00 -0.13116159341E+02  0.13116159341E+02  0.00000000000E+00 0.  1.
         25    2    1    2    0    0  0.67462881583E+01 -0.98903003084E+01  0.51874319144E+03  0.53374589116E+03  0.12508735835E+03 0.  0.
          5    1    3    3  502    0  0.27490368992E+02 -0.60219673581E+02  0.35490963058E+03  0.36105463264E+03  0.41800000000E+01 0. -1.
         -5    1    3    3    0  502 -0.20744080834E+02  0.50329373273E+02  0.16383356086E+03  0.17269125852E+03  0.41800000000E+01 0. -1.
        -11    1    1    2    0    0  0.34480166287E+02 -0.18925731513E+02  0.22697559894E+03  0.23035838968E+03  0.00000000000E+00 0. -1.
         11    1    1    2    0    0 -0.41226454445E+02  0.28816031821E+02  0.15728721535E+03  0.16513404358E+03  0.00000000000E+00 0.  1.
</event>
<event>
 7    1  0.2641580E-009  0.1358961E+03  0.7561462E-02  0.1218960E+00
         -2   -1    0    0    0  501 -0.00000000000E+00  0.00000000000E+00  0.14449485530E+02  0.14449485530E+02  0.00000000000E+00 0.  1.
          2   -1    0    0  501    0  0.00000000000E+00 -0.00000000000E+00 -0.13583626172E+04  0.13583626172E+04  0.00000000000E+00 0. -1.
         25    2    1    2    0    0  0.18979134779E+02  0.86188943014E+02 -0.74948866078E+03  0.76496418743E+03  0.12509282135E+03 0.  0.
          5    1    3    3  502    0  0.83587867917E+01  0.11447692797E+03 -0.47066347020E+03  0.48447539766E+03  0.41800000000E+01 0. -1.
         -5    1    3    3    0  502  0.10620347987E+02 -0.28287984960E+02 -0.27882519058E+03  0.28048878977E+03  0.41800000000E+01 0. -1.
        -11    1    1    2    0    0  0.23630272112E+02  0.64224733291E+01 -0.93342581045E+02  0.96501167660E+02  0.00000000000E+00 0.  1.
         11    1    1    2    0    0 -0.42609406891E+02 -0.92611416343E+02 -0.50108188982E+03  0.51134674762E+03  0.00000000000E+00 0. -1.
</event>
<event>
 7    1  0.2641580E-009  0.1389459E+03  0.7561462E-02  0.1214754E+00
          1   -1    0    0  501    0  0.00000000000E+00  0.00000000000E+00  0.80156018383E+03  0.80156018383E+03  0.00000000000E+00 0. -1.
         -1   -1    0    0    0  501 -0.00000000000E+00 -0.00000000000E+00 -0.28883755738E+02  0.28883755738E+02  0.00000000000E+00 0.  1.
         25    2    1    2    0    0 -0.55820387007E+02 -0.90210093624E+02  0.37493546451E+03  0.40924031079E+03  0.12508897964E+03 0.  0.
          5    1    3    3  502    0  0.19239960758E+02  0.29676181721E+01  0.51637934944E+01  0.20569881158E+02  0.41800000000E+01 0. -1.
         -5    1    3    3    0  502 -0.75060347766E+02 -0.93177711796E+02  0.36977167102E+03  0.38867042963E+03  0.41800000000E+01 0. -1.
        -11    1    1    2    0    0  0.66443819677E+01 -0.18113725418E+02  0.45715158157E+02  0.49619860395E+02  0.00000000000E+00 0.  1.
         11    1    1    2    0    0  0.49176005040E+02  0.10832381904E+03  0.35202580543E+03  0.37158376839E+03  0.00000000000E+00 0. -1.
</event>
<event>
 7    1  0.2641580E-009  0.1154426E+03  0.7561462E-02  0.1250810E+00
          1   -1    0    0  501    0  0.00000000000E+00  0.00000000000E+00  0.26418006372E+02  0.26418006372E+02  0.00000000000E+00 0. -1.
         -1   -1    0    0    0  501 -0.00000000000E+00 -0.00000000000E+00 -0.89841965696E+03  0.89841965696E+03  0.00000000000E+00 0.  1.
         25    2    1    2    0    0 -0.98086867868E+02  0.36801145915E+02 -0.55562577880E+03  0.57908781825E+03  0.12508931684E+03 0.  0.
          5    1    3    3  502    0 -0.46025441629E+02  0.24926337623E+02 -0.56637343476E+02  0.77232924718E+02  0.41800000000E+01 0.  1.
         -5    1    3    3    0  502 -0.52061426238E+02  0.11874808292E+02 -0.49898843532E+03  0.50185489353E+03  0.41800000000E+01 0.  1.
        -11    1    1    2    0    0  0.85228052572E+02 -0.55802700650E+02 -0.30189297437E+03  0.31861752983E+03  0.00000000000E+00 0.  1.
         11    1    1    2    0    0  0.12858815296E+02  0.19001554735E+02 -0.14482897422E+02  0.27132315251E+02  0.00000000000E+00 0. -1.
</event>
<event>
 7    1  0.2641580E-009  0.8956792E+02  0.7561462E-02  0.1303901E+00
         -1   -1    0    0    0  501 -0.00000000000E+00  0.00000000000E+00  0.25405051955E+02  0.25405051955E+02  0.00000000000E+00 0.  1.
          1   -1    0    0  501    0  0.00000000000E+00 -0.00000000000E+00 -0.51071754645E+03  0.51071754645E+03  0.00000000000E+00 0. -1.
         25    2    1    2    0    0  0.18942718997E+02 -0.17108298595E+02 -0.34017183689E+03  0.36333976065E+03  0.12508949825E+03 0.  0.
          5    1    3    3  502    0  0.50526410630E+02 -0.54722909637E+02 -0.15982275270E+03  0.17637545093E+03  0.41800000000E+01 0.  1.
         -5    1    3    3    0  502 -0.31583691633E+02  0.37614611042E+02 -0.18034908419E+03  0.18696430972E+03  0.41800000000E+01 0.  1.
        -11    1    1    2    0    0  0.49519000116E+01  0.28390505687E+02 -0.14343724089E+03  0.14630373953E+03  0.00000000000E+00 0. -1.
         11    1    1    2    0    0 -0.23894619009E+02 -0.11282207092E+02 -0.17034167196E+01  0.26479098228E+02  0.00000000000E+00 0.  1.
</event>
<event>
 7    1  0.2641580E-009  0.8929462E+02  0.7561462E-02  0.1304569E+00
          1   -1    0    0  501    0  0.00000000000E+00  0.00000000000E+00  0.30036450467E+03  0.30036450467E+03  0.00000000000E+00 0. -1.
         -1   -1    0    0    0  501 -0.00000000000E+00 -0.00000000000E+00 -0.93473713777E+02  0.93473713777E+02  0.00000000000E+00 0.  1.
         25    2    1    2    0    0 -0.64914563434E+02 -0.14070764123E+02  0.23748589680E+03  0.27651202568E+03  0.12508981660E+03 0.  0.
          5    1    3    3  502    0 -0.42461146447E+01 -0.51522969963E+01  0.20833994837E+03  0.20848880579E+03  0.41800000000E+01 0.  1.
         -5    1    3    3    0  502 -0.60668448790E+02 -0.89184671263E+01  0.29145948436E+02  0.68023219893E+02  0.41800000000E+01 0.  1.
        -11    1    1    2    0    0  0.44937791285E+02 -0.34550259464E+02 -0.35921639119E+00  0.56685576217E+02  0.00000000000E+00 0. -1.
         11    1    1    2    0    0  0.19976772149E+02  0.48621023587E+02 -0.30235889520E+02  0.60640616547E+02  0.00000000000E+00 0.  1.
</event>
<event>
 7    1  0.2706288E-009  0.1053382E+03  0.7561462E-02  0.1269455E+00
          2   -1    0    0  501    0  0.00000000000E+00  0.00000000000E+00  0.38617722999E+03  0.38617722999E+03  0.00000000000E+00 0.  1.
         -2   -1    0    0    0  501 -0.00000000000E+00 -0.00000000000E+00 -0.39953452256E+02  0.39953452256E+02  0.00000000000E+00 0. -1.
         25    2    1    2    0    0 -0.45083780694E+02  0.40081224494E+02  0.20419498904E+03  0.24694925898E+03  0.12509712677E+03 0.  0.
          5    1    3    3  502    0  0.14155662320E+02 -0.22326444631E+02  0.16154024541E+01  0.26812960125E+02  0.41800000000E+01 0.  1.
         -5    1    3    3    0  502 -0.59239443014E+02  0.62407669125E+02  0.20257958659E+03  0.22013629886E+03  0.41800000000E+01 0.  1.
        -11    1    1    2    0    0  0.33116508714E+02 -0.63414447657E+02  0.13375232370E+03  0.15168315468E+03  0.00000000000E+00 0.  1.
         11    1    1    2    0    0  0.11967271980E+02  0.23333223163E+02  0.82764649969E+01  0.27498268576E+02  0.00000000000E+00 0. -1.
</event>
<event>
 7    1  0.2641580E-009  0.9984499E+02  0.7561462E-02  0.1280622E+00
         -1   -1    0    0    0  501 -0.00000000000E+00  0.00000000000E+00  0.62303189716E+02  0.62303189716E+02  0.00000000000E+00 0.  1.
          1   -1    0    0  501    0  0.00000000000E+00 -0.00000000000E+00 -0.22172678490E+03  0.22172678490E+03  0.00000000000E+00 0. -1.
         25    2    1    2    0    0  0.40340131954E+02 -0.76262951704E-01 -0.50291964729E+02  0.14072969456E+03  0.12509289809E+03 0.  0.
          5    1    3    3  502    0  0.30155027326E+02  0.60078468154E+02 -0.11544270665E+02  0.68333671011E+02  0.41800000000E+01 0. -1.
         -5    1    3    3    0  502  0.10185104629E+02 -0.60154731105E+02 -0.38747694064E+02  0.72396023550E+02  0.41800000000E+01 0. -1.
        -11    1    1    2    0    0  0.11320137067E+02  0.13686701233E+02  0.39846942803E+01  0.18202996521E+02  0.00000000000E+00 0.  1.
         11    1    1    2    0    0 -0.51660269021E+02 -0.13610438281E+02 -0.11311632473E+03  0.12509728353E+03  0.00000000000E+00 0. -1.
</event>
