<event>
 8    1  0.6597859E-009  0.1216856E+03  0.7561462E-02  0.1240342E+00
         -2   -1    0    0    0  501 -0.00000000000E+00  0.00000000000E+00  0.12382109044E+02  0.12382109044E+02  0.00000000000E+00 0.  1.
          2   -1    0    0  501    0  0.00000000000E+00 -0.00000000000E+00 -0.14438733653E+04  0.14438733653E+04  0.00000000000E+00 0. -1.
         25    2    1    2    0    0  0.42939483762E+02  0.44632100940E+01 -0.10585649181E+04  0.10668040533E+04  0.12508989922E+03 0.  0.
         23    2    1    2    0    0 -0.42939483762E+02 -0.44632100940E+01 -0.37292633814E+03  0.38945142098E+03  0.10360808906E+03 0.  0.
          5    1    3    3  502    0  0.74556681854E+02  0.39887102317E+02 -0.68197790420E+03  0.68721249549E+03  0.41800000000E+01 0. -1.
         -5    1    3    3    0  502 -0.31617198092E+02 -0.35423892223E+02 -0.37658701387E+03  0.37959155782E+03  0.41800000000E+01 0. -1.
        -11    1    4    4    0    0 -0.36773645550E+01 -0.50447586105E+02 -0.19845239833E+03  0.20479706139E+03  0.00000000000E+00 0. -1.
         11    1    4    4    0    0 -0.39262119207E+02  0.45984376011E+02 -0.17447393981E+03  0.18465435959E+03  0.00000000000E+00 0.  1.
</event>
<event>
 8    1  0.6597859E-009  0.1165314E+03  0.7561462E-02  0.1248931E+00
          3   -1    0    0  501    0  0.00000000000E+00  0.00000000000E+00  0.25708277365E+02  0.25708277365E+02  0.00000000000E+00 0. -1.
         -3   -1    0    0    0  501 -0.00000000000E+00 -0.00000000000E+00 -0.11714402200E+04  0.11714402200E+04  0.00000000000E+00 0.  1.
         25    2    1    2    0    0 -0.82022020346E+02 -0.59035576764E+02 -0.93937990983E+03  0.95304488234E+03  0.12508845517E+03 0.  0.
         23    2    1    2    0    0  0.82022020346E+02  0.59035576764E+02 -0.20635203280E+03  0.24410361502E+03  0.82417245042E+02 0.  0.
          5    1    3    3  502    0 -0.40616317734E+02 -0.39549744320E+02 -0.85563341783E+03  0.85751961240E+03  0.41800000000E+01 0. -1.
         -5    1    3    3    0  502 -0.41405702612E+02 -0.19485832444E+02 -0.83746491996E+02  0.95525269936E+02  0.41800000000E+01 0. -1.
        -11    1    4    4    0    0 -0.24186041755E+01 -0.16677473218E+02 -0.30645615421E+02  0.34973439974E+02  0.00000000000E+00 0.  1.
         11    1    4    4    0    0  0.84440624521E+02  0.75713049981E+02 -0.17570641738E+03  0.20913017505E+03  0.00000000000E+00 0. -1.
</event>
<event>
 8    1  0.6597859E-009  0.1650606E+03  0.7561462E-02  0.1183099E+00
          3   -1    0    0  501    0  0.00000000000E+00  0.00000000000E+00  0.24401668776E+03  0.24401668776E+03  0.00000000000E+00 0. -1.
         -3   -1    0    0    0  501 -0.00000000000E+00 -0.00000000000E+00 -0.14055678063E+03  0.14055678063E+03  0.00000000000E+00 0.  1.
         25    2    1    2    0    0  0.93113996965E+02  0.97617101039E+02  0.11967877370E+03  0.21947217893E+03  0.12508282699E+03 0.  0.
         23    2    1    2    0    0 -0.93113996965E+02 -0.97617101039E+02 -0.16218866565E+02  0.16510128945E+03  0.93787362148E+02 0.  0.
          5    1    3    3  502    0  0.36599917298E+02 -0.20230979590E+02  0.65725656306E+02  0.78013978095E+02  0.41800000000E+01 0.  1.
         -5    1    3    3    0  502  0.56514079667E+02  0.11784808063E+03  0.53953117391E+02  0.14145820084E+03  0.41800000000E+01 0.  1.
        -11    1    4    4    0    0 -0.77394892543E+01 -0.65744819596E+02 -0.30451299588E+02  0.72866745805E+02  0.00000000000E+00 0.  1.
         11    1    4    4    0    0 -0.85374507711E+02 -0.31872281443E+02  0.14232433023E+02  0.92234543643E+02  0.00000000000E+00 0. -1.
</event>
<event>
 8    1  0.6597859E-009  0.2031730E+03  0.7561462E-02  0.1147089E+00
          2   -1    0    0  501    0  0.00000000000E+00  0.00000000000E+00  0.24147906837E+03  0.24147906837E+03  0.00000000000E+00 0. -1.
         -2   -1    0    0    0  501 -0.00000000000E+00 -0.00000000000E+00 -0.20588748996E+03  0.20588748996E+03  0.00000000000E+00 0.  1.
         25    2    1    2    0    0 -0.25376100079E+02  0.19118775617E+03  0.43089078956E+02  0.23388357317E+03  0.12509257575E+03 0.  0.
         23    2    1    2    0    0  0.25376100079E+02 -0.19118775617E+03 -0.74975005488E+01  0.21348298516E+03  0.91225368590E+02 0.  0.
          5    1    3    3  502    0 -0.74324599089E+01  0.12650724511E+03 -0.34303294839E+02  0.13135262830E+03  0.41800000000E+01 0. -1.
         -5    1    3    3    0  502 -0.17943640170E+02  0.64680511065E+02  0.77392373795E+02  0.10253094487E+03  0.41800000000E+01 0. -1.
        -11    1    4    4    0    0  0.51765345695E+02 -0.63568987747E+02  0.74129468854E+01  0.82314148235E+02  0.00000000000E+00 0. -1.
         11    1    4    4    0    0 -0.26389245616E+02 -0.12761876843E+03 -0.14910447434E+02  0.13116883693E+03  0.00000000000E+00 0.  1.
</event>
<event>
 8    1  0.6597859E-009  0.9305943E+02  0.7561462E-02  0.1295608E+00
          1   -1    0    0  501    0  0.00000000000E+00  0.00000000000E+00  0.88995688385E+02  0.88995688385E+02  0.00000000000E+00 0. -1.
         -1   -1    0    0    0  501 -0.00000000000E+00 -0.00000000000E+00 -0.18428492748E+03  0.18428492748E+03  0.00000000000E+00 0.  1.
         25    2    1    2    0    0 -0.21522301577E+02  0.46886626930E+02 -0.99252325040E+02  0.16780893202E+03  0.12508896190E+03 0.  0.
         23    2    1    2    0    0  0.21522301577E+02 -0.46886626930E+02  0.39630859415E+01  0.10547168385E+03  0.91907588335E+02 0.  0.
          5    1    3    3  502    0 -0.48459049129E+02  0.54618500969E+02 -0.95734506608E+01  0.73760310792E+02  0.41800000000E+01 0. -1.
         -5    1    3    3    0  502  0.26936747553E+02 -0.77318740381E+01 -0.89678874379E+02  0.94048621227E+02  0.41800000000E+01 0. -1.
        -11    1    4    4    0    0  0.41424304662E+02 -0.49532116521E+02 -0.25829607676E+02  0.69545468699E+02  0.00000000000E+00 0.  1.
         11    1    4    4    0    0 -0.19902003086E+02  0.26454895907E+01  0.29792693618E+02  0.35926215150E+02  0.00000000000E+00 0. -1.
</event>
<event>
 8    1  0.6597859E-009  0.9847123E+02  0.7561462E-02  0.1283544E+00
          2   -1    0    0  501    0  0.00000000000E+00  0.00000000000E+00  0.17703128009E+03  0.17703128009E+03  0.00000000000E+00 0. -1.
         -2   -1    0    0    0  501 -0.00000000000E+00 -0.00000000000E+00 -0.94263504445E+02  0.94263504445E+02  0.00000000000E+00 0.  1.
         25    2    1    2    0    0 -0.67639007691E+02 -0.12931412110E+02  0.59355323551E+02  0.15462964513E+03  0.12508003813E+03 0.  0.
         23    2    1    2    0    0  0.67639007691E+02  0.12931412110E+02  0.23412452090E+02  0.11666513940E+03  0.91215980278E+02 0.  0.
          5    1    3    3  502    0 -0.67347640126E+02  0.83070001056E+01  0.92648709418E+02  0.11491721646E+03  0.41800000000E+01 0.  1.
         -5    1    3    3    0  502 -0.29136756573E+00 -0.21238412216E+02 -0.33293385868E+02  0.39712428672E+02  0.41800000000E+01 0.  1.
        -11    1    4    4    0    0 -0.13411421996E+02  0.21985731665E+02 -0.11182447373E+02  0.28076427231E+02  0.00000000000E+00 0.  1.
         11    1    4    4    0    0  0.81050429687E+02 -0.90543195553E+01  0.34594899463E+02  0.88588712170E+02  0.00000000000E+00 0. -1.
</event>
<event>
 8    1  0.6597859E-009  0.1137554E+03  0.7561462E-02  0.1253769E+00
         -1   -1    0    0    0  501 -0.00000000000E+00  0.00000000000E+00  0.88332413648E+02  0.88332413648E+02  0.00000000000E+00 0.  1.
          1   -1    0    0  501    0  0.00000000000E+00 -0.00000000000E+00 -0.21901472625E+03  0.21901472625E+03  0.00000000000E+00 0. -1.
         25    2    1    2    0    0 -0.82614186995E+01  0.80254304158E+02 -0.10389238074E+03  0.18149452081E+03  0.12505050953E+03 0.  0.
         23    2    1    2    0    0  0.82614186995E+01 -0.80254304158E+02 -0.26789931864E+02  0.12585261909E+03  0.92801815213E+02 0.  0.
          5    1    3    3  502    0 -0.24256629331E+02  0.86286847860E+02 -0.15119220847E+02  0.90993776816E+02  0.41800000000E+01 0. -1.
         -5    1    3    3    0  502  0.15995210631E+02 -0.60325437022E+01 -0.88773159892E+02  0.90500743996E+02  0.41800000000E+01 0. -1.
        -11    1    4    4    0    0  0.48860686783E+02 -0.44124332828E+02 -0.27876053824E+02  0.71494040572E+02  0.00000000000E+00 0. -1.
         11    1    4    4    0    0 -0.40599268084E+02 -0.36129971330E+02  0.10861219602E+01  0.54358578515E+02  0.00000000000E+00 0.  1.
</event>
<event>
 8    1  0.6597859E-009  0.5568889E+02  0.7561462E-02  0.1416869E+00
          2   -1    0    0  501    0  0.00000000000E+00  0.00000000000E+00  0.19696572169E+03  0.19696572169E+03  0.00000000000E+00 0. -1.
         -2   -1    0    0    0  501 -0.00000000000E+00 -0.00000000000E+00 -0.68756234377E+02  0.68756234377E+02  0.00000000000E+00 0.  1.
         25    2    1    2    0    0  0.16370713741E+02  0.16438566366E+02  0.31246882912E+02  0.13100338265E+03  0.12508913559E+03 0.  0.
         23    2    1    2    0    0 -0.16370713741E+02 -0.16438566366E+02  0.96962604398E+02  0.13471857341E+03  0.90604197681E+02 0.  0.
          5    1    3    3  502    0 -0.23610122640E+02  0.12545368822E+02  0.69989189957E+02  0.75038545301E+02  0.41800000000E+01 0.  1.
         -5    1    3    3    0  502  0.39980836381E+02  0.38931975436E+01 -0.38742307045E+02  0.55964837353E+02  0.41800000000E+01 0.  1.
        -11    1    4    4    0    0 -0.32248000368E+00 -0.25498781503E+02  0.10949932233E+03  0.11242950432E+03  0.00000000000E+00 0. -1.
         11    1    4    4    0    0 -0.16048233737E+02  0.90602151375E+01 -0.12536717930E+02  0.22289069089E+02  0.00000000000E+00 0.  1.
</event>
<event>
 8    1  0.6597859E-009  0.1053068E+03  0.7561462E-02  0.1269516E+00
          1   -1    0    0  501    0  0.00000000000E+00  0.00000000000E+00  0.13548593005E+02  0.13548593005E+02  0.00000000000E+00 0. -1.
         -1   -1    0    0    0  501 -0.00000000000E+00 -0.00000000000E+00 -0.13382331101E+04  0.13382331101E+04  0.00000000000E+00 0.  1.
         25    2    1    2    0    0  0.50204372964E+02 -0.17991011434E+02 -0.10342416356E+04  0.10431429970E+04  0.12508955168E+03 0.  0.
         23    2    1    2    0    0 -0.50204372964E+02  0.17991011434E+02 -0.29044288150E+03  0.30863870606E+03  0.89758720490E+02 0.  0.
          5    1    3    3  502    0  0.73694645742E+02 -0.41362873700E+02 -0.92619756150E+03  0.93005439812E+03  0.41800000000E+01 0.  1.
         -5    1    3    3    0  502 -0.23490272778E+02  0.23371862266E+02 -0.10804407407E+03  0.11308859890E+03  0.41800000000E+01 0.  1.
        -11    1    4    4    0    0 -0.69631246855E+02  0.21469913843E+02 -0.27212581524E+03  0.28171249007E+03  0.00000000000E+00 0.  1.
         11    1    4    4    0    0  0.19426873891E+02 -0.34789024092E+01 -0.18317066264E+02  0.26926215993E+02  0.00000000000E+00 0. -1.
</event>
<event>
 8    1  0.6597859E-009  0.1446218E+03  0.7561462E-02  0.1207242E+00
         -2   -1    0    0    0  501 -0.00000000000E+00  0.00000000000E+00  0.93072014113E+02  0.93072014113E+02  0.00000000000E+00 0.  1.
          2   -1    0    0  501    0  0.00000000000E+00 -0.00000000000E+00 -0.26390568374E+03  0.26390568374E+03  0.00000000000E+00 0. -1.
         25    2    1    2    0    0 -0.14271715028E+02  0.11088359430E+03 -0.74657907381E+02  0.18362925294E+03  0.12508815319E+03 0.  0.
         23    2    1    2    0    0  0.14271715028E+02 -0.11088359430E+03 -0.96175762248E+02  0.17334844491E+03  0.91110113469E+02 0.  0.
          5    1    3    3  502    0 -0.92724491447E+01 -0.19449428284E+02 -0.44612468532E+02  0.49719244989E+02  0.41800000000E+01 0. -1.
         -5    1    3    3    0  502 -0.49992658838E+01  0.13033302258E+03 -0.30045438849E+02  0.13391000795E+03  0.41800000000E+01 0. -1.
        -11    1    4    4    0    0  0.47174370380E+02 -0.63157866953E+02 -0.27527627002E+02  0.83499147463E+02  0.00000000000E+00 0.  1.
         11    1    4    4    0    0 -0.32902655351E+02 -0.47725727343E+02 -0.68648135246E+02  0.89849297450E+02  0.00000000000E+00 0. -1.
</event>
<event>
 8    1  0.6597859E-009  0.1132899E+03  0.7561462E-02  0.1254596E+00
         -1   -1    0    0    0  501 -0.00000000000E+00  0.00000000000E+00  0.18100269889E+02  0.18100269889E+02  0.00000000000E+00 0.  1.
          1   -1    0    0  501    0  0.00000000000E+00 -0.00000000000E+00 -0.87829059359E+03  0.87829059359E+03  0.00000000000E+00 0. -1.
         25    2    1    2    0    0  0.43360132765E+02 -0.44153974940E+02 -0.56143891795E+03  0.57852468340E+03  0.12508987209E+03 0.  0.
         23    2    1    2    0    0 -0.43360132765E+02  0.44153974940E+02 -0.29875140575E+03  0.31786618008E+03  0.89201072768E+02 0.  0.
          5    1    3    3  502    0  0.84026880639E+02 -0.17163066295E+02 -0.28052838270E+03  0.29337473207E+03  0.41800000000E+01 0.  1.
         -5    1    3    3    0  502 -0.40666747874E+02 -0.26990908645E+02 -0.28091053525E+03  0.28514995133E+03  0.41800000000E+01 0.  1.
        -11    1    4    4    0    0 -0.18045760319E+02 -0.17464639041E+02 -0.22571729800E+02  0.33766049051E+02  0.00000000000E+00 0.  1.
         11    1    4    4    0    0 -0.25314372446E+02  0.61618613981E+02 -0.27617967595E+03  0.28410013103E+03  0.00000000000E+00 0. -1.
</event>
<event>
 8    1  0.6597859E-009  0.1434775E+03  0.7561462E-02  0.1208725E+00
          2   -1    0    0  501    0  0.00000000000E+00  0.00000000000E+00  0.49561797747E+03  0.49561797747E+03  0.00000000000E+00 0. -1.
         -2   -1    0    0    0  501 -0.00000000000E+00 -0.00000000000E+00 -0.41903662993E+02  0.41903662993E+02  0.00000000000E+00 0.  1.
         25    2    1    2    0    0  0.92874145607E+02 -0.28153516177E+02  0.27115664479E+03  0.31399328180E+03  0.12509047769E+03 0.  0.
         23    2    1    2    0    0 -0.92874145607E+02  0.28153516177E+02  0.18255766969E+03  0.22352835866E+03  0.84967034600E+02 0.  0.
          5    1    3    3  502    0 -0.90083381844E+01 -0.52533886532E+02  0.93653628825E+02  0.10783985341E+03  0.41800000000E+01 0.  1.
         -5    1    3    3    0  502  0.10188248379E+03  0.24380370354E+02  0.17750301596E+03  0.20615342839E+03  0.41800000000E+01 0.  1.
        -11    1    4    4    0    0 -0.10529584178E+03  0.88151030062E+01  0.14342343624E+03  0.17814376890E+03  0.00000000000E+00 0.  1.
         11    1    4    4    0    0  0.12421696172E+02  0.19338413171E+02  0.39134233453E+02  0.45384589760E+02  0.00000000000E+00 0. -1.
</event>
<event>
 8    1  0.6597859E-009  0.1129061E+03  0.7561462E-02  0.1255281E+00
         -1   -1    0    0    0  501 -0.00000000000E+00  0.00000000000E+00  0.18419418700E+02  0.18419418700E+02  0.00000000000E+00 0.  1.
          1   -1    0    0  501    0  0.00000000000E+00 -0.00000000000E+00 -0.72844632207E+03  0.72844632207E+03  0.00000000000E+00 0. -1.
         25    2    1    2    0    0 -0.30075287688E+02 -0.12709709787E+02 -0.45049681439E+03  0.46869173850E+03  0.12513395346E+03 0.  0.
         23    2    1    2    0    0  0.30075287688E+02  0.12709709787E+02 -0.25953008898E+03  0.27817400227E+03  0.94651195457E+02 0.  0.
          5    1    3    3  502    0  0.38961127004E+02  0.28420653650E+02 -0.18848853268E+03  0.19460499048E+03  0.41800000000E+01 0.  1.
         -5    1    3    3    0  502 -0.69036414692E+02 -0.41130363437E+02 -0.26200828171E+03  0.27408674801E+03  0.41800000000E+01 0.  1.
        -11    1    4    4    0    0  0.25571169102E+02 -0.38123338579E+02 -0.15809982380E+03  0.16462936530E+03  0.00000000000E+00 0.  1.
         11    1    4    4    0    0  0.45041185865E+01  0.50833048367E+02 -0.10143026518E+03  0.11354463698E+03  0.00000000000E+00 0. -1.
</event>
<event>
 8    1  0.6597859E-009  0.1178300E+03  0.7561462E-02  0.1246720E+00
         -3   -1    0    0    0  501 -0.00000000000E+00  0.00000000000E+00  0.86581229067E+02  0.86581229067E+02  0.00000000000E+00 0.  1.
          3   -1    0    0  501    0  0.00000000000E+00 -0.00000000000E+00 -0.29376935118E+03  0.29376935118E+03  0.00000000000E+00 0. -1.
         25    2    1    2    0    0 -0.85862378505E+02  0.51982882938E+02 -0.41079795183E+02  0.16556554501E+03  0.12509928841E+03 0.  0.
         23    2    1    2    0    0  0.85862378505E+02 -0.51982882938E+02 -0.16610832693E+03  0.21478503524E+03  0.92011232601E+02 0.  0.
          5    1    3    3  502    0 -0.10210963308E+03  0.28045811522E+02  0.10279085175E+02  0.10647101345E+03  0.41800000000E+01 0.  1.
         -5    1    3    3    0  502  0.16247254579E+02  0.23937071417E+02 -0.51358880358E+02  0.59094531565E+02  0.41800000000E+01 0.  1.
        -11    1    4    4    0    0  0.71496089807E+02 -0.41458409869E+02 -0.17598171339E+03  0.19442235996E+03  0.00000000000E+00 0. -1.
         11    1    4    4    0    0  0.14366288698E+02 -0.10524473069E+02  0.98733864538E+01  0.20362675276E+02  0.00000000000E+00 0.  1.
</event>
<event>
 8    1  0.6597859E-009  0.9535714E+02  0.7561462E-02  0.1290374E+00
         -2   -1    0    0    0  501 -0.00000000000E+00  0.00000000000E+00  0.70759635451E+02  0.70759635451E+02  0.00000000000E+00 0.  1.
          2   -1    0    0  501    0  0.00000000000E+00 -0.00000000000E+00 -0.28491802966E+03  0.28491802966E+03  0.00000000000E+00 0. -1.
         25    2    1    2    0    0  0.44099620079E+02 -0.39884323649E+02 -0.19672492315E+03  0.24059061929E+03  0.12509042703E+03 0.  0.
         23    2    1    2    0    0 -0.44099620079E+02  0.39884323649E+02 -0.17433471051E+02  0.11508704582E+03  0.96982299616E+02 0.  0.
          5    1    3    3  502    0 -0.84987036263E+01  0.24318800739E+02 -0.13388132462E+03  0.13640129587E+03  0.41800000000E+01 0.  1.
         -5    1    3    3    0  502  0.52598323705E+02 -0.64203124388E+02 -0.62843598537E+02  0.10418932342E+03  0.41800000000E+01 0.  1.
        -11    1    4    4    0    0 -0.11254924737E+02  0.46641988945E+02  0.30303927902E+02  0.56749242372E+02  0.00000000000E+00 0.  1.
         11    1    4    4    0    0 -0.32844695342E+02 -0.67576652952E+01 -0.47737398953E+02  0.58337803448E+02  0.00000000000E+00 0. -1.
</event>
<event>
 8    1  0.6597859E-009  0.7890340E+02  0.7561462E-02  0.1332193E+00
         -2   -1    0    0    0  501 -0.00000000000E+00  0.00000000000E+00  0.55914763112E+02  0.55914763112E+02  0.00000000000E+00 0.  1.
          2   -1    0    0  501    0  0.00000000000E+00 -0.00000000000E+00 -0.22921400849E+03  0.22921400849E+03  0.00000000000E+00 0. -1.
         25    2    1    2    0    0 -0.10192587246E+02  0.22885783976E+02 -0.97645979980E+02  0.16065611197E+03  0.12509197003E+03 0.  0.
         23    2    1    2    0    0  0.10192587246E+02 -0.22885783976E+02 -0.75653265398E+02  0.12447265963E+03  0.95615785760E+02 0.  0.
          5    1    3    3  502    0 -0.17433292140E+02  0.43026686798E+02 -0.12041905633E+03  0.12912566351E+03  0.41800000000E+01 0. -1.
         -5    1    3    3    0  502  0.72407048939E+01 -0.20140902822E+02  0.22773076345E+02  0.31530448460E+02  0.41800000000E+01 0. -1.
        -11    1    4    4    0    0  0.34435814243E+02 -0.44938051461E+02 -0.71857775053E+02  0.91481110658E+02  0.00000000000E+00 0. -1.
         11    1    4    4    0    0 -0.24243226997E+02  0.22052267485E+02 -0.37954903455E+01  0.32991548970E+02  0.00000000000E+00 0.  1.
</event>
<event>
 8    1  0.6597859E-009  0.1053706E+03  0.7561462E-02  0.1269391E+00
          2   -1    0    0  501    0  0.00000000000E+00  0.00000000000E+00  0.10994911515E+03  0.10994911515E+03  0.00000000000E+00 0. -1.
         -2   -1    0    0    0  501 -0.00000000000E+00 -0.00000000000E+00 -0.14000398632E+03  0.14000398632E+03  0.00000000000E+00 0.  1.
         25    2    1    2    0    0  0.16611025652E+01  0.59223972865E+02 -0.24004939341E+02  0.14047815489E+03  0.12509051388E+03 0.  0.
         23    2    1    2    0    0 -0.16611025652E+01 -0.59223972865E+02 -0.60499318246E+01  0.10947494659E+03  0.91858173465E+02 0.  0.
          5    1    3    3  502    0 -0.34655473793E+02  0.82850860635E+02  0.17145143892E+01  0.89920403310E+02  0.41800000000E+01 0.  1.
         -5    1    3    3    0  502  0.36316576359E+02 -0.23626887770E+02 -0.25719453730E+02  0.50557751575E+02  0.41800000000E+01 0.  1.
        -11    1    4    4    0    0  0.19964880546E+02 -0.49926222666E+02 -0.40803638543E+02  0.67499341354E+02  0.00000000000E+00 0.  1.
         11    1    4    4    0    0 -0.21625983112E+02 -0.92977501987E+01  0.34753706718E+02  0.41975605236E+02  0.00000000000E+00 0. -1.
</event>
<event>
 8    1  0.6597859E-009  0.9207062E+02  0.7561462E-02  0.1297913E+00
         -1   -1    0    0    0  501 -0.00000000000E+00  0.00000000000E+00  0.48165207638E+02  0.48165207638E+02  0.00000000000E+00 0.  1.
          1   -1    0    0  501    0  0.00000000000E+00 -0.00000000000E+00 -0.22774980175E+03  0.22774980175E+03  0.00000000000E+00 0. -1.
         25    2    1    2    0    0 -0.38518781754E+01 -0.28568535771E+02 -0.10856881232E+03  0.16812491054E+03  0.12509116809E+03 0.  0.
         23    2    1    2    0    0  0.38518781754E+01  0.28568535771E+02 -0.71015781795E+02  0.10779009885E+03  0.75792255171E+02 0.  0.
          5    1    3    3  502    0  0.26734019378E+01  0.47997267194E+02 -0.60511993799E+02  0.77395468404E+02  0.41800000000E+01 0. -1.
         -5    1    3    3    0  502 -0.65252801133E+01 -0.76565802965E+02 -0.48056818517E+02  0.90729442136E+02  0.41800000000E+01 0. -1.
        -11    1    4    4    0    0 -0.17969329840E+02  0.32137530187E+02 -0.37819948704E+01  0.37013796706E+02  0.00000000000E+00 0.  1.
         11    1    4    4    0    0  0.21821208016E+02 -0.35689944160E+01 -0.67233786925E+02  0.70776302141E+02  0.00000000000E+00 0. -1.
</event>
<event>
 8    1  0.6597859E-009  0.1265594E+03  0.7561462E-02  0.1232652E+00
         -2   -1    0    0    0  501 -0.00000000000E+00  0.00000000000E+00  0.84969168577E+02  0.84969168577E+02  0.00000000000E+00 0.  1.
          2   -1    0    0  501    0  0.00000000000E+00 -0.00000000000E+00 -0.26398268001E+03  0.26398268001E+03  0.00000000000E+00 0. -1.
         25    2    1    2    0    0 -0.85836599581E+02 -0.24395652607E+02 -0.76784022741E+02  0.17177441662E+03  0.12509034481E+03 0.  0.
         23    2    1    2    0    0  0.85836599581E+02  0.24395652607E+02 -0.10222948869E+03  0.17717743196E+03  0.11392060544E+03 0.  0.
          5    1    3    3  502    0 -0.36546877154E+02 -0.58485469529E+02  0.61529778797E+01  0.69365379784E+02  0.41800000000E+01 0.  1.
         -5    1    3    3    0  502 -0.49289722427E+02  0.34089816922E+02 -0.82937000620E+02  0.10240903684E+03  0.41800000000E+01 0.  1.
        -11    1    4    4    0    0 -0.16240022959E+02  0.13827345114E+02 -0.64341114470E+02  0.67784311090E+02  0.00000000000E+00 0.  1.
         11    1    4    4    0    0  0.10207662254E+03  0.10568307493E+02 -0.37888374218E+02  0.10939312087E+03  0.00000000000E+00 0. -1.
</event>
<event>
 8    1  0.6597859E-009  0.2068352E+03  0.7561462E-02  0.1144097E+00
         -2   -1    0    0    0  501 -0.00000000000E+00  0.00000000000E+00  0.69891330250E+02  0.69891330250E+02  0.00000000000E+00 0. -1.
          2   -1    0    0  501    0  0.00000000000E+00 -0.00000000000E+00 -0.64072786643E+03  0.64072786643E+03  0.00000000000E+00 0.  1.
         25    2    1    2    0    0  0.12674938621E+03 -0.12852907546E+03 -0.33433624143E+03  0.40001691905E+03  0.12509069929E+03 0.  0.
         23    2    1    2    0    0 -0.12674938621E+03  0.12852907546E+03 -0.23650029475E+03  0.31060227763E+03  0.89197843640E+02 0.  0.
          5    1    3    3  502    0  0.14222787247E+03 -0.13479845230E+03 -0.32713069949E+03  0.38135463469E+03  0.41800000000E+01 0. -1.
         -5    1    3    3    0  502 -0.15478486263E+02  0.62693768393E+01 -0.72055419455E+01  0.18662284364E+02  0.41800000000E+01 0. -1.
        -11    1    4    4    0    0 -0.86041552062E+02  0.13413698406E+03 -0.19924163308E+03  0.25513350922E+03  0.00000000000E+00 0.  1.
         11    1    4    4    0    0 -0.40707834148E+02 -0.56079085979E+01 -0.37258661665E+02  0.55468768411E+02  0.00000000000E+00 0. -1.
</event>
<event>
 8    1  0.6597859E-009  0.1593439E+03  0.7561462E-02  0.1189440E+00
          1   -1    0    0  501    0  0.00000000000E+00  0.00000000000E+00  0.33301602020E+03  0.33301602020E+03  0.00000000000E+00 0. -1.
         -1   -1    0    0    0  501 -0.00000000000E+00 -0.00000000000E+00 -0.94299102246E+02  0.94299102246E+02  0.00000000000E+00 0.  1.
         25    2    1    2    0    0  0.34936797374E+02 -0.13542817403E+03  0.11793931256E+03  0.22162413930E+03  0.12508480139E+03 0.  0.
         23    2    1    2    0    0 -0.34936797374E+02  0.13542817403E+03  0.12077760539E+03  0.20569098315E+03  0.90333717132E+02 0.  0.
          5    1    3    3  502    0 -0.29221463916E+02 -0.98621439425E+02  0.31232850382E+02  0.10757809076E+03  0.41800000000E+01 0. -1.
         -5    1    3    3    0  502  0.64158261290E+02 -0.36806734609E+02  0.86706462177E+02  0.11404604854E+03  0.41800000000E+01 0. -1.
        -11    1    4    4    0    0 -0.39738904014E+01  0.59884106283E+02  0.13099197110E+00  0.60015957454E+02  0.00000000000E+00 0.  1.
         11    1    4    4    0    0 -0.30962906973E+02  0.75544067751E+02  0.12064661342E+03  0.14567502569E+03  0.00000000000E+00 0. -1.
</event>
<event>
 8    1  0.6597859E-009  0.1476834E+03  0.7561462E-02  0.1203349E+00
         -2   -1    0    0    0  501 -0.00000000000E+00  0.00000000000E+00  0.18053364358E+03  0.18053364358E+03  0.00000000000E+00 0.  1.
          2   -1    0    0  501    0  0.00000000000E+00 -0.00000000000E+00 -0.20376312309E+03  0.20376312309E+03  0.00000000000E+00 0. -1.
         25    2    1    2    0    0 -0.83938212033E+02 -0.91989828674E+02 -0.11002261808E+03  0.20798681118E+03  0.12508311284E+03 0.  0.
         23    2    1    2    0    0  0.83938212033E+02  0.91989828674E+02  0.86793138573E+02  0.17630995549E+03  0.89690576322E+02 0.  0.
          5    1    3    3  502    0 -0.94165821070E+02 -0.11281540615E+03 -0.11128052377E+03  0.18437826632E+03  0.41800000000E+01 0.  1.
         -5    1    3    3    0  502  0.10227609037E+02  0.20825577472E+02  0.12579056929E+01  0.23608544860E+02  0.41800000000E+01 0.  1.
        -11    1    4    4    0    0  0.28180607312E+02  0.36555177783E+02  0.86088798494E+02  0.97681671143E+02  0.00000000000E+00 0.  1.
         11    1    4    4    0    0  0.55757604721E+02  0.55434650891E+02  0.70434007952E+00  0.78628284342E+02  0.00000000000E+00 0. -1.
</event>
<event>
 8    1  0.6597859E-009  0.3326832E+03  0.7561462E-02  0.1069956E+00
          1   -1    0    0  501    0  0.00000000000E+00  0.00000000000E+00  0.32214315973E+03  0.32214315973E+03  0.00000000000E+00 0. -1.
         -1   -1    0    0    0  501 -0.00000000000E+00 -0.00000000000E+00 -0.36630921795E+03  0.36630921795E+03  0.00000000000E+00 0.  1.
         25    2    1    2    0    0 -0.30317011330E+03 -0.94700512248E+02  0.49850899192E+02  0.34498364846E+03  0.12509316902E+03 0.  0.
         23    2    1    2    0    0  0.30317011330E+03  0.94700512248E+02 -0.94016957411E+02  0.34346872921E+03  0.90836529249E+02 0.  0.
          5    1    3    3  502    0  0.50451470393E+01  0.84019489417E+01 -0.98576988706E+01  0.14515263749E+02  0.41800000000E+01 0. -1.
         -5    1    3    3    0  502 -0.30821526034E+03 -0.10310246119E+03  0.59708598062E+02  0.33046838471E+03  0.41800000000E+01 0. -1.
        -11    1    4    4    0    0  0.19980957731E+03  0.17307011455E+02 -0.67813441230E+02  0.21171221656E+03  0.00000000000E+00 0. -1.
         11    1    4    4    0    0  0.10336053600E+03  0.77393500792E+02 -0.26203516181E+02  0.13175651265E+03  0.00000000000E+00 0.  1.
</event>
<event>
 8    1  0.6597859E-009  0.8993678E+02  0.7561462E-02  0.1303005E+00
          4   -1    0    0  501    0  0.00000000000E+00  0.00000000000E+00  0.21347453095E+03  0.21347453095E+03  0.00000000000E+00 0. -1.
         -4   -1    0    0    0  501 -0.00000000000E+00 -0.00000000000E+00 -0.80459387696E+02  0.80459387696E+02  0.00000000000E+00 0.  1.
         25    2    1    2    0    0  0.15826020813E+02  0.95779375467E+01 -0.68369899364E+01  0.12663485532E+03  0.12508973710E+03 0.  0.
         23    2    1    2    0    0 -0.15826020813E+02 -0.95779375467E+01  0.13985213319E+03  0.16729906333E+03  0.89934184885E+02 0.  0.
          5    1    3    3  502    0 -0.19441028690E+00  0.66296696456E+02 -0.11290765516E+02  0.67381329330E+02  0.41800000000E+01 0. -1.
         -5    1    3    3    0  502  0.16020431100E+02 -0.56718758910E+02  0.44537755796E+01  0.59253525986E+02  0.41800000000E+01 0. -1.
        -11    1    4    4    0    0 -0.11370422027E+01  0.20686769753E+02 -0.26437242555E+01  0.20885990178E+02  0.00000000000E+00 0.  1.
         11    1    4    4    0    0 -0.14688978610E+02 -0.30264707300E+02  0.14249585745E+03  0.14641307315E+03  0.00000000000E+00 0. -1.
</event>
<event>
 8    1  0.6597859E-009  0.1009494E+03  0.7561462E-02  0.1278312E+00
         -1   -1    0    0    0  501 -0.00000000000E+00  0.00000000000E+00  0.25150638710E+03  0.25150638710E+03  0.00000000000E+00 0.  1.
          1   -1    0    0  501    0  0.00000000000E+00 -0.00000000000E+00 -0.54843405708E+02  0.54843405708E+02  0.00000000000E+00 0. -1.
         25    2    1    2    0    0  0.14792971806E+02 -0.91721870345E+01  0.16482141870E+03  0.20764640865E+03  0.12509184600E+03 0.  0.
         23    2    1    2    0    0 -0.14792971806E+02  0.91721870345E+01  0.31841562699E+02  0.98703384161E+02  0.91790587207E+02 0.  0.
          5    1    3    3  502    0 -0.46728186459E+02 -0.20997770993E+02  0.31509503620E+02  0.60288896281E+02  0.41800000000E+01 0. -1.
         -5    1    3    3    0  502  0.61521158265E+02  0.11825583959E+02  0.13331191508E+03  0.14735751237E+03  0.41800000000E+01 0. -1.
        -11    1    4    4    0    0  0.19695072042E+02  0.37975422563E+02  0.32565418722E+02  0.53763696657E+02  0.00000000000E+00 0.  1.
         11    1    4    4    0    0 -0.34488043849E+02 -0.28803235529E+02 -0.72385602300E+00  0.44939687504E+02  0.00000000000E+00 0. -1.
</event>
<event>
 8    1  0.6597859E-009  0.1124159E+03  0.7561462E-02  0.1256160E+00
          2   -1    0    0  501    0  0.00000000000E+00  0.00000000000E+00  0.37727236077E+02  0.37727236077E+02  0.00000000000E+00 0.  1.
         -2   -1    0    0    0  501 -0.00000000000E+00 -0.00000000000E+00 -0.39227392426E+03  0.39227392426E+03  0.00000000000E+00 0. -1.
         25    2    1    2    0    0  0.39620797033E+02  0.25570945326E+02 -0.24945595491E+03  0.28301892352E+03  0.12509099418E+03 0.  0.
         23    2    1    2    0    0 -0.39620797033E+02 -0.25570945326E+02 -0.10509073327E+03  0.14698223681E+03  0.91301888907E+02 0.  0.
          5    1    3    3  502    0  0.57348511407E+02  0.67057053434E+02 -0.16819198190E+03  0.18997767066E+03  0.41800000000E+01 0.  1.
         -5    1    3    3    0  502 -0.17727714374E+02 -0.41486108108E+02 -0.81263973018E+02  0.93041252859E+02  0.41800000000E+01 0.  1.
        -11    1    4    4    0    0 -0.81684978007E+01 -0.50437252646E+02 -0.23851062884E+02  0.56387179496E+02  0.00000000000E+00 0.  1.
         11    1    4    4    0    0 -0.31452299232E+02  0.24866307319E+02 -0.81239670383E+02  0.90595057319E+02  0.00000000000E+00 0. -1.
</event>
<event>
 8    1  0.6597859E-009  0.6071574E+02  0.7561462E-02  0.1394852E+00
         -1   -1    0    0    0  501 -0.00000000000E+00  0.00000000000E+00  0.97229705344E+02  0.97229705344E+02  0.00000000000E+00 0.  1.
          1   -1    0    0  501    0  0.00000000000E+00 -0.00000000000E+00 -0.14071988868E+03  0.14071988868E+03  0.00000000000E+00 0. -1.
         25    2    1    2    0    0  0.43693423285E+02  0.16934044702E+01 -0.32567125442E+02  0.13645767167E+03  0.12509234845E+03 0.  0.
         23    2    1    2    0    0 -0.43693423285E+02 -0.16934044702E+01 -0.10923057893E+02  0.10149192235E+03  0.90935769925E+02 0.  0.
          5    1    3    3  502    0  0.47987244877E+02  0.55715595132E+01 -0.77250283984E+02  0.91207986064E+02  0.41800000000E+01 0. -1.
         -5    1    3    3    0  502 -0.42938215925E+01 -0.38781550430E+01  0.44683158541E+02  0.45249685608E+02  0.41800000000E+01 0. -1.
        -11    1    4    4    0    0  0.11032203095E+02 -0.94694140361E+00 -0.38603095528E+02  0.40159745860E+02  0.00000000000E+00 0. -1.
         11    1    4    4    0    0 -0.54725626380E+02 -0.74646306655E+00  0.27680037635E+02  0.61332176492E+02  0.00000000000E+00 0.  1.
</event>
<event>
 8    1  0.6597859E-009  0.1037653E+03  0.7561462E-02  0.1272572E+00
          3   -1    0    0  501    0  0.00000000000E+00  0.00000000000E+00  0.11291512313E+03  0.11291512313E+03  0.00000000000E+00 0.  1.
         -3   -1    0    0    0  501 -0.00000000000E+00 -0.00000000000E+00 -0.13601206810E+03  0.13601206810E+03  0.00000000000E+00 0. -1.
         25    2    1    2    0    0  0.53499645970E+02 -0.20439455876E+02 -0.10564742920E+02  0.13798250134E+03  0.12509026104E+03 0.  0.
         23    2    1    2    0    0 -0.53499645970E+02  0.20439455876E+02 -0.12532202057E+02  0.11094468989E+03  0.94189620714E+02 0.  0.
          5    1    3    3  502    0  0.11299243718E+01 -0.50231026530E+02  0.35806533164E+02  0.61838604225E+02  0.41800000000E+01 0. -1.
         -5    1    3    3    0  502  0.52369721598E+02  0.29791570654E+02 -0.46371276084E+02  0.76143897116E+02  0.41800000000E+01 0. -1.
        -11    1    4    4    0    0 -0.63439663019E+02 -0.10426608942E+02 -0.33334301174E+02  0.72418786601E+02  0.00000000000E+00 0.  1.
         11    1    4    4    0    0  0.99400170491E+01  0.30866064818E+02  0.20802099118E+02  0.38525903286E+02  0.00000000000E+00 0. -1.
</event>
<event>
 8    1  0.6597859E-009  0.1414724E+03  0.7561462E-02  0.1211361E+00
         -1   -1    0    0    0  501 -0.00000000000E+00  0.00000000000E+00  0.47332830974E+02  0.47332830974E+02  0.00000000000E+00 0.  1.
          1   -1    0    0  501    0  0.00000000000E+00 -0.00000000000E+00 -0.43696944489E+03  0.43696944489E+03  0.00000000000E+00 0. -1.
         25    2    1    2    0    0 -0.11353512408E+02 -0.91811901703E+02 -0.24870381122E+03  0.29335859537E+03  0.12508937694E+03 0.  0.
         23    2    1    2    0    0  0.11353512408E+02  0.91811901703E+02 -0.14093280269E+03  0.19094368049E+03  0.89661065727E+02 0.  0.
          5    1    3    3  502    0  0.50013352900E+02 -0.76766002284E+02 -0.13492613543E+03  0.16314683263E+03  0.41800000000E+01 0. -1.
         -5    1    3    3    0  502 -0.61366865308E+02 -0.15045899419E+02 -0.11377767579E+03  0.13021176274E+03  0.41800000000E+01 0. -1.
        -11    1    4    4    0    0  0.33817276128E+02  0.98762420904E+02 -0.12327475611E+03  0.16153726951E+03  0.00000000000E+00 0.  1.
         11    1    4    4    0    0 -0.22463763721E+02 -0.69505192010E+01 -0.17658046581E+02  0.29406410980E+02  0.00000000000E+00 0. -1.
</event>
<event>
 8    1  0.6597859E-009  0.1564152E+03  0.7561462E-02  0.1192804E+00
          1   -1    0    0  501    0  0.00000000000E+00  0.00000000000E+00  0.54360102787E+03  0.54360102787E+03  0.00000000000E+00 0. -1.
         -1   -1    0    0    0  501 -0.00000000000E+00 -0.00000000000E+00 -0.10427139525E+03  0.10427139525E+03  0.00000000000E+00 0.  1.
         25    2    1    2    0    0 -0.93886466478E+02  0.97680922716E+02  0.44925389656E+03  0.48562530929E+03  0.12508655480E+03 0.  0.
         23    2    1    2    0    0  0.93886466478E+02 -0.97680922716E+02 -0.99242639478E+01  0.16224711383E+03  0.88709659455E+02 0.  0.
          5    1    3    3  502    0 -0.78826159470E+02  0.10721011149E+03  0.23111200698E+03  0.26671671038E+03  0.41800000000E+01 0. -1.
         -5    1    3    3    0  502 -0.15060307008E+02 -0.95291887768E+01  0.21814188958E+03  0.21890859891E+03  0.41800000000E+01 0. -1.
        -11    1    4    4    0    0  0.65007865101E+02 -0.60189759176E+01  0.25601310620E+01  0.65336091612E+02  0.00000000000E+00 0.  1.
         11    1    4    4    0    0  0.28878601377E+02 -0.91661946798E+02 -0.12484395010E+02  0.96911022217E+02  0.00000000000E+00 0. -1.
</event>
<event>
 8    1  0.6597859E-009  0.1560861E+03  0.7561462E-02  0.1193188E+00
         -2   -1    0    0    0  501 -0.00000000000E+00  0.00000000000E+00  0.52989553967E+02  0.52989553967E+02  0.00000000000E+00 0.  1.
          2   -1    0    0  501    0  0.00000000000E+00 -0.00000000000E+00 -0.72570863211E+03  0.72570863211E+03  0.00000000000E+00 0. -1.
         25    2    1    2    0    0  0.68388286144E+02  0.11859643490E+03 -0.17545559312E+03  0.25529313073E+03  0.12509134817E+03 0.  0.
         23    2    1    2    0    0 -0.68388286144E+02 -0.11859643490E+03 -0.49726348502E+03  0.52340505535E+03  0.89105591189E+02 0.  0.
          5    1    3    3  502    0  0.76907532079E+02  0.24722814135E+02 -0.40067147616E+02  0.90270896458E+02  0.41800000000E+01 0.  1.
         -5    1    3    3    0  502 -0.85192459354E+01  0.93873620761E+02 -0.13538844551E+03  0.16502223427E+03  0.41800000000E+01 0.  1.
        -11    1    4    4    0    0 -0.53669986289E+01 -0.10844588302E+02 -0.15293964321E+01  0.12196262672E+02  0.00000000000E+00 0.  1.
         11    1    4    4    0    0 -0.63021287515E+02 -0.10775184659E+03 -0.49573408859E+03  0.51120879268E+03  0.00000000000E+00 0. -1.
</event>
<event>
 8    1  0.6597859E-009  0.1674366E+03  0.7561462E-02  0.1180548E+00
         -1   -1    0    0    0  501 -0.00000000000E+00  0.00000000000E+00  0.33810949943E+03  0.33810949943E+03  0.00000000000E+00 0.  1.
          1   -1    0    0  501    0  0.00000000000E+00 -0.00000000000E+00 -0.89824435231E+02  0.89824435231E+02  0.00000000000E+00 0. -1.
         25    2    1    2    0    0  0.21299162555E+02 -0.13362741175E+03  0.11439671371E+03  0.21690870747E+03  0.12511130953E+03 0.  0.
         23    2    1    2    0    0 -0.21299162555E+02  0.13362741175E+03  0.13388835049E+03  0.21102522719E+03  0.91080275674E+02 0.  0.
          5    1    3    3  502    0  0.47587563565E+02 -0.14275828974E+03  0.74178092762E+02  0.16782242801E+03  0.41800000000E+01 0. -1.
         -5    1    3    3    0  502 -0.26288401010E+02  0.91308779918E+01  0.40218620950E+02  0.49086279465E+02  0.41800000000E+01 0. -1.
        -11    1    4    4    0    0  0.25067513282E+02  0.15952921638E+02  0.53390468267E+02  0.61101702371E+02  0.00000000000E+00 0.  1.
         11    1    4    4    0    0 -0.46366675837E+02  0.11767449011E+03  0.80497882221E+02  0.14992352482E+03  0.00000000000E+00 0. -1.
</event>
<event>
 8    1  0.6597859E-009  0.1105255E+03  0.7561462E-02  0.1259600E+00
         -1   -1    0    0    0  501 -0.00000000000E+00  0.00000000000E+00  0.12864967339E+03  0.12864967339E+03  0.00000000000E+00 0.  1.
          1   -1    0    0  501    0  0.00000000000E+00 -0.00000000000E+00 -0.10993834380E+03  0.10993834380E+03  0.00000000000E+00 0. -1.
         25    2    1    2    0    0 -0.21086923690E+02  0.82994376792E+01 -0.31249447651E+02  0.13090981387E+03  0.12508921765E+03 0.  0.
         23    2    1    2    0    0  0.21086923690E+02 -0.82994376792E+01  0.49960777235E+02  0.10767820332E+03  0.92655152002E+02 0.  0.
          5    1    3    3  502    0  0.50376219425E+02 -0.13279818425E+02 -0.15333185367E+02  0.54467385052E+02  0.41800000000E+01 0.  1.
         -5    1    3    3    0  502 -0.71463143115E+02  0.21579256104E+02 -0.15916262284E+02  0.76442428813E+02  0.41800000000E+01 0.  1.
        -11    1    4    4    0    0  0.31945148223E+02  0.36162003438E+02  0.16542954856E+02  0.51008355620E+02  0.00000000000E+00 0.  1.
         11    1    4    4    0    0 -0.10858224534E+02 -0.44461441117E+02  0.33417822379E+02  0.56669847704E+02  0.00000000000E+00 0. -1.
</event>
<event>
 8    1  0.6597859E-009  0.1144082E+03  0.7561462E-02  0.1252618E+00
          1   -1    0    0  501    0  0.00000000000E+00  0.00000000000E+00  0.24450511990E+03  0.24450511990E+03  0.00000000000E+00 0. -1.
         -1   -1    0    0    0  501 -0.00000000000E+00 -0.00000000000E+00 -0.69140219133E+02  0.69140219133E+02  0.00000000000E+00 0.  1.
         25    2    1    2    0    0 -0.14698475378E+02 -0.49679096651E+02  0.36815321137E+02  0.14029137120E+03  0.12506895354E+03 0.  0.
         23    2    1    2    0    0  0.14698475378E+02  0.49679096651E+02  0.13854957963E+03  0.17335396783E+03  0.90396649965E+02 0.  0.
          5    1    3    3  502    0 -0.21282402714E+02  0.39896285043E+02  0.14155051830E+02  0.47565661121E+02  0.41800000000E+01 0. -1.
         -5    1    3    3    0  502  0.65839273358E+01 -0.89575381694E+02  0.22660269306E+02  0.92725710080E+02  0.41800000000E+01 0. -1.
        -11    1    4    4    0    0 -0.30340951624E+02  0.34544943166E+02  0.30103891657E+02  0.54956080071E+02  0.00000000000E+00 0.  1.
         11    1    4    4    0    0  0.45039427003E+02  0.15134153484E+02  0.10844568797E+03  0.11839788776E+03  0.00000000000E+00 0. -1.
</event>
<event>
 8    1  0.6597859E-009  0.1594373E+03  0.7561462E-02  0.1189334E+00
         -1   -1    0    0    0  501 -0.00000000000E+00  0.00000000000E+00  0.60976535717E+02  0.60976535717E+02  0.00000000000E+00 0.  1.
          1   -1    0    0  501    0  0.00000000000E+00 -0.00000000000E+00 -0.57301461589E+03  0.57301461589E+03  0.00000000000E+00 0. -1.
         25    2    1    2    0    0 -0.43996504541E+02  0.11338892385E+03 -0.42432576602E+03  0.45879479591E+03  0.12509024175E+03 0.  0.
         23    2    1    2    0    0  0.43996504541E+02 -0.11338892385E+03 -0.87712314155E+02  0.17519635570E+03  0.90595654046E+02 0.  0.
          5    1    3    3  502    0 -0.22429081038E+02 -0.22125231982E+02 -0.13297648509E+03  0.13672164259E+03  0.41800000000E+01 0. -1.
         -5    1    3    3    0  502 -0.21567423503E+02  0.13551415584E+03 -0.29134928093E+03  0.32207315332E+03  0.41800000000E+01 0. -1.
        -11    1    4    4    0    0 -0.18474649785E+02 -0.73275876819E+02 -0.30600018829E+02  0.81529307372E+02  0.00000000000E+00 0. -1.
         11    1    4    4    0    0  0.62471154326E+02 -0.40113047034E+02 -0.57112295326E+02  0.93667048329E+02  0.00000000000E+00 0.  1.
</event>
<event>
 8    1  0.6597859E-009  0.7387388E+02  0.7561462E-02  0.1347394E+00
         -2   -1    0    0    0  501 -0.00000000000E+00  0.00000000000E+00  0.47359354629E+02  0.47359354629E+02  0.00000000000E+00 0.  1.
          2   -1    0    0  501    0  0.00000000000E+00 -0.00000000000E+00 -0.44819736329E+03  0.44819736329E+03  0.00000000000E+00 0. -1.
         25    2    1    2    0    0  0.18265790851E+02  0.32991790663E+02 -0.37501939564E+03  0.39712452522E+03  0.12508494737E+03 0.  0.
         23    2    1    2    0    0 -0.18265790851E+02 -0.32991790663E+02 -0.25818613013E+02  0.98432192692E+02  0.87179116844E+02 0.  0.
          5    1    3    3  502    0 -0.41493388756E+02  0.78221380419E+01 -0.49560865582E+02  0.65242922614E+02  0.41800000000E+01 0.  1.
         -5    1    3    3    0  502  0.59759179608E+02  0.25169652621E+02 -0.32545853006E+03  0.33188160261E+03  0.41800000000E+01 0.  1.
        -11    1    4    4    0    0 -0.13710211792E+02 -0.10178701669E+02 -0.57014846330E+02  0.59516960415E+02  0.00000000000E+00 0. -1.
         11    1    4    4    0    0 -0.45555790595E+01 -0.22813088994E+02  0.31196233317E+02  0.38915232277E+02  0.00000000000E+00 0.  1.
</event>
<event>
 7    1  0.6597859E-009  0.9005545E+02  0.7561462E-02  0.1302717E+00
         -2   -1    0    0    0  501 -0.00000000000E+00  0.00000000000E+00  0.12758964863E+03  0.12758964863E+03  0.00000000000E+00 0.  1.
          2   -1    0    0  501    0  0.00000000000E+00 -0.00000000000E+00 -0.17434710943E+03  0.17434710943E+03  0.00000000000E+00 0. -1.
         23    2    1    2    0    0  0.86758243348E+01  0.11809735795E+01 -0.12463719787E+03  0.15465291086E+03  0.91139602349E+02 0.  0.
          5    1    1    2  502    0  0.56622607664E+02  0.76048276524E+01  0.24160520431E+02  0.62170380808E+02  0.41800000000E+01 0. -1.
         -5    1    1    2    0  502 -0.65298431999E+02 -0.87858012319E+01  0.53719216646E+02  0.85113466396E+02  0.41800000000E+01 0. -1.
        -11    1    3    3    0    0  0.41190960483E+01  0.28659546486E+02 -0.12342183979E+03  0.12677258021E+03  0.00000000000E+00 0. -1.
         11    1    3    3    0    0  0.45567282865E+01 -0.27478572906E+02 -0.12153580866E+01  0.27880330646E+02  0.00000000000E+00 0.  1.
</event>
<event>
 8    1  0.6597859E-009  0.8473442E+02  0.7561462E-02  0.1316129E+00
         -3   -1    0    0    0  501 -0.00000000000E+00  0.00000000000E+00  0.24035894769E+02  0.24035894769E+02  0.00000000000E+00 0.  1.
          3   -1    0    0  501    0  0.00000000000E+00 -0.00000000000E+00 -0.53311640051E+03  0.53311640051E+03  0.00000000000E+00 0. -1.
         25    2    1    2    0    0  0.14399883816E+02 -0.32055113962E+02 -0.27147119619E+03  0.30096138765E+03  0.12508500913E+03 0.  0.
         23    2    1    2    0    0 -0.14399883816E+02  0.32055113962E+02 -0.23760930955E+03  0.25619090763E+03  0.89110662560E+02 0.  0.
          5    1    3    3  502    0 -0.32622754290E+02 -0.19817488125E+02 -0.17233502958E+02  0.42088513365E+02  0.41800000000E+01 0.  1.
         -5    1    3    3    0  502  0.47022638106E+02 -0.12237625836E+02 -0.25423769323E+03  0.25887287428E+03  0.41800000000E+01 0.  1.
        -11    1    4    4    0    0 -0.45054898729E+02  0.21067990465E+02 -0.72626970818E+02  0.88025456613E+02  0.00000000000E+00 0.  1.
         11    1    4    4    0    0  0.30655014913E+02  0.10987123497E+02 -0.16498233873E+03  0.16816545101E+03  0.00000000000E+00 0. -1.
</event>
<event>
 8    1  0.6597859E-009  0.1954492E+03  0.7561462E-02  0.1153636E+00
          2   -1    0    0  501    0  0.00000000000E+00  0.00000000000E+00  0.64787220159E+03  0.64787220159E+03  0.00000000000E+00 0. -1.
         -2   -1    0    0    0  501 -0.00000000000E+00 -0.00000000000E+00 -0.61603452489E+02  0.61603452489E+02  0.00000000000E+00 0.  1.
         25    2    1    2    0    0  0.26291515734E+02 -0.16214034823E+03  0.26796950012E+03  0.33828408567E+03  0.12509090016E+03 0.  0.
         23    2    1    2    0    0 -0.26291515734E+02  0.16214034823E+03  0.31829924898E+03  0.37119156840E+03  0.97406530739E+02 0.  0.
          5    1    3    3  502    0  0.28944048914E+00 -0.17634534137E+03  0.23349504156E+03  0.29263487494E+03  0.41800000000E+01 0.  1.
         -5    1    3    3    0  502  0.26002075245E+02  0.14204993148E+02  0.34474458560E+02  0.45649210731E+02  0.41800000000E+01 0.  1.
        -11    1    4    4    0    0  0.30948903569E+02  0.58690600960E+02  0.16316952013E+03  0.17614401373E+03  0.00000000000E+00 0.  1.
         11    1    4    4    0    0 -0.57240419303E+02  0.10344974727E+03  0.15512972885E+03  0.19504755467E+03  0.00000000000E+00 0. -1.
</event>
<event>
 8    1  0.6597859E-009  0.1246695E+03  0.7561462E-02  0.1235587E+00
          2   -1    0    0  501    0  0.00000000000E+00  0.00000000000E+00  0.55905557082E+02  0.55905557082E+02  0.00000000000E+00 0. -1.
         -2   -1    0    0    0  501 -0.00000000000E+00 -0.00000000000E+00 -0.64183902785E+03  0.64183902785E+03  0.00000000000E+00 0.  1.
         25    2    1    2    0    0 -0.59018022844E+02 -0.44104993453E+02 -0.55839798781E+03  0.57696130330E+03  0.12509058818E+03 0.  0.
         23    2    1    2    0    0  0.59018022844E+02  0.44104993453E+02 -0.27535482955E+02  0.12078328163E+03  0.91662537773E+02 0.  0.
          5    1    3    3  502    0  0.35356902658E+02 -0.51777044932E+01 -0.23695071282E+03  0.23966650140E+03  0.41800000000E+01 0.  1.
         -5    1    3    3    0  502 -0.94374925502E+02 -0.38927288960E+02 -0.32144727499E+03  0.33729480190E+03  0.41800000000E+01 0.  1.
        -11    1    4    4    0    0 -0.21473018096E+02  0.11341930255E+02  0.98154795010E+01  0.26193005286E+02  0.00000000000E+00 0. -1.
         11    1    4    4    0    0  0.80491040940E+02  0.32763063198E+02 -0.37350962456E+02  0.94590276340E+02  0.00000000000E+00 0.  1.
</event>
<event>
 8    1  0.6597859E-009  0.8807575E+02  0.7561462E-02  0.1307580E+00
          2   -1    0    0  501    0  0.00000000000E+00  0.00000000000E+00  0.12352460145E+03  0.12352460145E+03  0.00000000000E+00 0. -1.
         -2   -1    0    0    0  501 -0.00000000000E+00 -0.00000000000E+00 -0.10696487457E+03  0.10696487457E+03  0.00000000000E+00 0.  1.
         25    2    1    2    0    0  0.18512700866E+02  0.23831431847E+02 -0.18255821544E+02  0.12997230186E+03  0.12509543155E+03 0.  0.
         23    2    1    2    0    0 -0.18512700866E+02 -0.23831431847E+02  0.34815548428E+02  0.10051717416E+03  0.89336009829E+02 0.  0.
          5    1    3    3  502    0  0.55576163100E+02 -0.18700682619E+02  0.19526986842E+02  0.61945145495E+02  0.41800000000E+01 0.  1.
         -5    1    3    3    0  502 -0.37063462235E+02  0.42532114465E+02 -0.37782808386E+02  0.68027156366E+02  0.41800000000E+01 0.  1.
        -11    1    4    4    0    0  0.92231177270E+00 -0.37196382521E+02  0.57044331214E+02  0.68106367216E+02  0.00000000000E+00 0. -1.
         11    1    4    4    0    0 -0.19435012638E+02  0.13364950675E+02 -0.22228782787E+02  0.32410806947E+02  0.00000000000E+00 0.  1.
</event>
<event>
 8    1  0.6597859E-009  0.8215973E+02  0.7561462E-02  0.1323032E+00
         -1   -1    0    0    0  501 -0.00000000000E+00  0.00000000000E+00  0.40924769528E+02  0.40924769528E+02  0.00000000000E+00 0.  1.
          1   -1    0    0  501    0  0.00000000000E+00 -0.00000000000E+00 -0.38062117411E+03  0.38062117411E+03  0.00000000000E+00 0. -1.
         25    2    1    2    0    0 -0.44283695312E+02 -0.69371111337E+01 -0.25450240792E+03  0.28710314058E+03  0.12509024147E+03 0.  0.
         23    2    1    2    0    0  0.44283695312E+02  0.69371111337E+01 -0.85193996657E+02  0.13444280306E+03  0.93849246380E+02 0.  0.
          5    1    3    3  502    0 -0.37087878624E+02  0.17882009286E+02 -0.25745495524E+03  0.26076004942E+03  0.41800000000E+01 0. -1.
         -5    1    3    3    0  502 -0.71958166880E+01 -0.24819120419E+02  0.29525473142E+01  0.26343091160E+02  0.41800000000E+01 0. -1.
        -11    1    4    4    0    0  0.69516974003E+02 -0.31353420726E+01 -0.36249827954E+02  0.78463303978E+02  0.00000000000E+00 0.  1.
         11    1    4    4    0    0 -0.25233278692E+02  0.10072453206E+02 -0.48944168703E+02  0.55979499079E+02  0.00000000000E+00 0. -1.
</event>
<event>
 8    1  0.6597859E-009  0.1247105E+03  0.7561462E-02  0.1235522E+00
          1   -1    0    0  501    0  0.00000000000E+00  0.00000000000E+00  0.14628267655E+03  0.14628267655E+03  0.00000000000E+00 0. -1.
         -1   -1    0    0    0  501 -0.00000000000E+00 -0.00000000000E+00 -0.17787305435E+03  0.17787305435E+03  0.00000000000E+00 0.  1.
         25    2    1    2    0    0 -0.28686834211E+02 -0.81095493971E+02  0.67252773562E+02  0.16604204425E+03  0.12509041254E+03 0.  0.
         23    2    1    2    0    0  0.28686834211E+02  0.81095493971E+02 -0.98843151363E+02  0.15811368664E+03  0.88490427352E+02 0.  0.
          5    1    3    3  502    0 -0.42883953438E+02 -0.96005905307E+02  0.87505843626E+02  0.13686092351E+03  0.41800000000E+01 0.  1.
         -5    1    3    3    0  502  0.14197119227E+02  0.14910411336E+02 -0.20253070064E+02  0.29181120739E+02  0.41800000000E+01 0.  1.
        -11    1    4    4    0    0  0.11173598149E+02  0.98121711689E+02 -0.82971036191E+02  0.12898415580E+03  0.00000000000E+00 0.  1.
         11    1    4    4    0    0  0.17513236062E+02 -0.17026217718E+02 -0.15872115172E+02  0.29129530844E+02  0.00000000000E+00 0. -1.
</event>
<event>
 8    1  0.6597859E-009  0.1082252E+03  0.7561462E-02  0.1263892E+00
         -2   -1    0    0    0  501 -0.00000000000E+00  0.00000000000E+00  0.37057620855E+03  0.37057620855E+03  0.00000000000E+00 0.  1.
          2   -1    0    0  501    0  0.00000000000E+00 -0.00000000000E+00 -0.33413596716E+02  0.33413596716E+02  0.00000000000E+00 0. -1.
         25    2    1    2    0    0 -0.19486684938E+02 -0.23121543758E+02  0.18784490605E+03  0.22769791582E+03  0.12508515285E+03 0.  0.
         23    2    1    2    0    0  0.19486684938E+02  0.23121543758E+02  0.14931770578E+03  0.17629188945E+03  0.88705785321E+02 0.  0.
          5    1    3    3  502    0  0.12306981238E+02 -0.67559108388E+02  0.72219125286E+02  0.99743517937E+02  0.41800000000E+01 0.  1.
         -5    1    3    3    0  502 -0.31793666177E+02  0.44437564630E+02  0.11562578077E+03  0.12795439788E+03  0.41800000000E+01 0.  1.
        -11    1    4    4    0    0  0.44498285491E+02  0.42253094440E+02  0.86910269279E+02  0.10638992578E+03  0.00000000000E+00 0. -1.
         11    1    4    4    0    0 -0.25011600553E+02 -0.19131550682E+02  0.62407436501E+02  0.69901963666E+02  0.00000000000E+00 0.  1.
</event>
<event>
 8    1  0.6597859E-009  0.8664833E+02  0.7561462E-02  0.1311177E+00
         -2   -1    0    0    0  501 -0.00000000000E+00  0.00000000000E+00  0.10144622965E+03  0.10144622965E+03  0.00000000000E+00 0.  1.
          2   -1    0    0  501    0  0.00000000000E+00 -0.00000000000E+00 -0.21726977697E+03  0.21726977697E+03  0.00000000000E+00 0. -1.
         25    2    1    2    0    0 -0.48610757331E+02 -0.32832827108E+02 -0.15149339544E+03  0.20502585119E+03  0.12507737817E+03 0.  0.
         23    2    1    2    0    0  0.48610757331E+02  0.32832827108E+02  0.35669848121E+02  0.11369015544E+03  0.90620710183E+02 0.  0.
          5    1    3    3  502    0 -0.88396684627E+01  0.16813254592E+02 -0.13863524090E+03  0.13999295585E+03  0.41800000000E+01 0.  1.
         -5    1    3    3    0  502 -0.39771088868E+02 -0.49646081701E+02 -0.12858154541E+02  0.65032895339E+02  0.41800000000E+01 0.  1.
        -11    1    4    4    0    0  0.60158129303E+02  0.43610125276E+02  0.52216137434E+02  0.90815023847E+02  0.00000000000E+00 0.  1.
         11    1    4    4    0    0 -0.11547371972E+02 -0.10777298168E+02 -0.16546289312E+02  0.22875131590E+02  0.00000000000E+00 0. -1.
</event>
<event>
 8    1  0.6597859E-009  0.1264943E+03  0.7561462E-02  0.1232752E+00
          1   -1    0    0  501    0  0.00000000000E+00  0.00000000000E+00  0.17415997626E+04  0.17415997626E+04  0.00000000000E+00 0. -1.
         -1   -1    0    0    0  501 -0.00000000000E+00 -0.00000000000E+00 -0.16259719482E+02  0.16259719482E+02  0.00000000000E+00 0.  1.
         25    2    1    2    0    0  0.78730365471E+02 -0.72539846445E+02  0.12847522804E+04  0.12952596118E+04  0.12509412518E+03 0.  0.
         23    2    1    2    0    0 -0.78730365471E+02  0.72539846445E+02  0.44058776276E+03  0.46259987034E+03  0.91763628831E+02 0.  0.
          5    1    3    3  502    0  0.73813783188E+02 -0.39221746743E+01  0.33855799500E+03  0.34655857574E+03  0.41800000000E+01 0.  1.
         -5    1    3    3    0  502  0.49165822831E+01 -0.68617671771E+02  0.94619428540E+03  0.94870103604E+03  0.41800000000E+01 0.  1.
        -11    1    4    4    0    0 -0.34377377169E+02  0.15323337537E+02  0.37744666077E+02  0.53303551022E+02  0.00000000000E+00 0.  1.
         11    1    4    4    0    0 -0.44352988302E+02  0.57216508908E+02  0.40284309669E+03  0.40929631932E+03  0.00000000000E+00 0. -1.
</event>
<event>
 8    1  0.6597859E-009  0.1178131E+03  0.7561462E-02  0.1246749E+00
         -1   -1    0    0    0  501 -0.00000000000E+00  0.00000000000E+00  0.74852137121E+02  0.74852137121E+02  0.00000000000E+00 0.  1.
          1   -1    0    0  501    0  0.00000000000E+00 -0.00000000000E+00 -0.37480425513E+03  0.37480425513E+03  0.00000000000E+00 0. -1.
         25    2    1    2    0    0  0.75647845196E+02  0.10576290543E+02 -0.29389540187E+03  0.32841436923E+03  0.12508811403E+03 0.  0.
         23    2    1    2    0    0 -0.75647845196E+02 -0.10576290543E+02 -0.60567161358E+01  0.12124202302E+03  0.93960044328E+02 0.  0.
          5    1    3    3  502    0  0.97243112831E+02 -0.53062283078E+01 -0.28275443674E+03  0.29908514331E+03  0.41800000000E+01 0. -1.
         -5    1    3    3    0  502 -0.21595267634E+02  0.15882518851E+02 -0.11140965132E+02  0.29329225924E+02  0.41800000000E+01 0. -1.
        -11    1    4    4    0    0 -0.60122072242E+02 -0.43773638142E+02 -0.26895392062E+02  0.79083228823E+02  0.00000000000E+00 0. -1.
         11    1    4    4    0    0 -0.15525772955E+02  0.33197347599E+02  0.20838675926E+02  0.42158794193E+02  0.00000000000E+00 0.  1.
</event>
<event>
 8    1  0.6597859E-009  0.1434201E+03  0.7561462E-02  0.1208800E+00
         -1   -1    0    0    0  501 -0.00000000000E+00  0.00000000000E+00  0.19718380150E+03  0.19718380150E+03  0.00000000000E+00 0.  1.
          1   -1    0    0  501    0  0.00000000000E+00 -0.00000000000E+00 -0.10699543355E+03  0.10699543355E+03  0.00000000000E+00 0. -1.
         25    2    1    2    0    0 -0.90116514231E+02  0.30901789068E+02  0.50812096088E+02  0.16524461386E+03  0.12509199254E+03 0.  0.
         23    2    1    2    0    0  0.90116514231E+02 -0.30901789068E+02  0.39376271862E+02  0.13893462120E+03  0.93147364305E+02 0.  0.
          5    1    3    3  502    0 -0.47397993678E+01 -0.41765330578E+02  0.28219752145E+02  0.50799954207E+02  0.41800000000E+01 0.  1.
         -5    1    3    3    0  502 -0.85376714863E+02  0.72667119646E+02  0.22592343943E+02  0.11444465965E+03  0.41800000000E+01 0.  1.
        -11    1    4    4    0    0  0.45810471997E+02  0.31702643730E+02  0.24256271967E+02  0.60762025097E+02  0.00000000000E+00 0.  1.
         11    1    4    4    0    0  0.44306042234E+02 -0.62604432798E+02  0.15119999895E+02  0.78172596101E+02  0.00000000000E+00 0. -1.
</event>
<event>
 8    1  0.6597859E-009  0.1040857E+03  0.7561462E-02  0.1271932E+00
         -2   -1    0    0    0  501 -0.00000000000E+00  0.00000000000E+00  0.36036327403E+03  0.36036327403E+03  0.00000000000E+00 0.  1.
          2   -1    0    0  501    0  0.00000000000E+00 -0.00000000000E+00 -0.36556957565E+02  0.36556957565E+02  0.00000000000E+00 0. -1.
         25    2    1    2    0    0  0.93767773469E+01  0.76579017394E+01  0.12627462314E+03  0.17815595326E+03  0.12509075034E+03 0.  0.
         23    2    1    2    0    0 -0.93767773469E+01 -0.76579017394E+01  0.19753169333E+03  0.21876427833E+03  0.93233428523E+02 0.  0.
          5    1    3    3  502    0 -0.39930970825E+02  0.38763772865E+02  0.99021261213E+02  0.11366527654E+03  0.41800000000E+01 0.  1.
         -5    1    3    3    0  502  0.49307748172E+02 -0.31105871126E+02  0.27253361925E+02  0.64490676725E+02  0.41800000000E+01 0.  1.
        -11    1    4    4    0    0 -0.19469864494E+02  0.40379038558E+02  0.99396843485E+02  0.10903795153E+03  0.00000000000E+00 0.  1.
         11    1    4    4    0    0  0.10093087147E+02 -0.48036940297E+02  0.98134849841E+02  0.10972632681E+03  0.00000000000E+00 0. -1.
</event>
<event>
 8    1  0.6597859E-009  0.1413714E+03  0.7561462E-02  0.1211495E+00
         -2   -1    0    0    0  501 -0.00000000000E+00  0.00000000000E+00  0.80848408186E+02  0.80848408186E+02  0.00000000000E+00 0.  1.
          2   -1    0    0  501    0  0.00000000000E+00 -0.00000000000E+00 -0.30860457198E+03  0.30860457198E+03  0.00000000000E+00 0. -1.
         25    2    1    2    0    0  0.11004431067E+03  0.79454980866E+01 -0.16291147586E+03  0.23315312696E+03  0.12508936964E+03 0.  0.
         23    2    1    2    0    0 -0.11004431067E+03 -0.79454980866E+01 -0.64844687937E+02  0.15629985320E+03  0.89732543194E+02 0.  0.
          5    1    3    3  502    0  0.58639096014E+01 -0.35161019296E+02 -0.94793702616E+02  0.10136074768E+03  0.41800000000E+01 0.  1.
         -5    1    3    3    0  502  0.10418040106E+03  0.43106517383E+02 -0.68117773241E+02  0.13179237929E+03  0.41800000000E+01 0.  1.
        -11    1    4    4    0    0 -0.13173689829E+02  0.27807599602E+02 -0.39329612326E+02  0.49936230385E+02  0.00000000000E+00 0. -1.
         11    1    4    4    0    0 -0.96870620836E+02 -0.35753097689E+02 -0.25515075611E+02  0.10636362282E+03  0.00000000000E+00 0.  1.
</event>
<event>
 8    1  0.6597859E-009  0.1337816E+03  0.7561462E-02  0.1221950E+00
          1   -1    0    0  501    0  0.00000000000E+00  0.00000000000E+00  0.39921561361E+03  0.39921561361E+03  0.00000000000E+00 0. -1.
         -1   -1    0    0    0  501 -0.00000000000E+00 -0.00000000000E+00 -0.10417323308E+03  0.10417323308E+03  0.00000000000E+00 0.  1.
         25    2    1    2    0    0 -0.81206372642E+01 -0.13259403721E+03  0.28914735075E+03  0.34190643078E+03  0.12508674394E+03 0.  0.
         23    2    1    2    0    0  0.81206372642E+01  0.13259403721E+03  0.58950297794E+01  0.16148241590E+03  0.91622572644E+02 0.  0.
          5    1    3    3  502    0 -0.60008937708E+01 -0.12116536088E+03  0.30114360015E+03  0.32468753551E+03  0.41800000000E+01 0.  1.
         -5    1    3    3    0  502 -0.21197434934E+01 -0.11428676323E+02 -0.11996249393E+02  0.17218895274E+02  0.41800000000E+01 0.  1.
        -11    1    4    4    0    0 -0.10049950803E+01  0.99238151028E+02  0.45267234334E+02  0.10907952667E+03  0.00000000000E+00 0. -1.
         11    1    4    4    0    0  0.91256323445E+01  0.33355886178E+02 -0.39372204555E+02  0.52402889233E+02  0.00000000000E+00 0.  1.
</event>
<event>
 8    1  0.6597859E-009  0.8690580E+02  0.7561462E-02  0.1310523E+00
         -1   -1    0    0    0  501 -0.00000000000E+00  0.00000000000E+00  0.17259673325E+03  0.17259673325E+03  0.00000000000E+00 0.  1.
          1   -1    0    0  501    0  0.00000000000E+00 -0.00000000000E+00 -0.85541228004E+02  0.85541228004E+02  0.00000000000E+00 0. -1.
         25    2    1    2    0    0  0.26161867684E+02  0.11168688617E+02 -0.32193129289E+01  0.12831923219E+03  0.12508508484E+03 0.  0.
         23    2    1    2    0    0 -0.26161867684E+02 -0.11168688617E+02  0.90274818174E+02  0.12981872906E+03  0.88849179472E+02 0.  0.
          5    1    3    3  502    0  0.28391332433E+02  0.44272045805E+02 -0.48745636973E+02  0.71830991369E+02  0.41800000000E+01 0.  1.
         -5    1    3    3    0  502 -0.22294647490E+01 -0.33103357188E+02  0.45526324044E+02  0.56488240822E+02  0.41800000000E+01 0.  1.
        -11    1    4    4    0    0  0.28506505231E+02  0.81195629354E+01  0.11014596386E+02  0.31620712773E+02  0.00000000000E+00 0. -1.
         11    1    4    4    0    0 -0.54668372915E+02 -0.19288251552E+02  0.79260221788E+02  0.98198016288E+02  0.00000000000E+00 0.  1.
</event>
<event>
 8    1  0.6597859E-009  0.2003485E+03  0.7561462E-02  0.1149445E+00
          2   -1    0    0  501    0  0.00000000000E+00  0.00000000000E+00  0.59362131802E+03  0.59362131802E+03  0.00000000000E+00 0. -1.
         -2   -1    0    0    0  501 -0.00000000000E+00 -0.00000000000E+00 -0.86639688941E+02  0.86639688941E+02  0.00000000000E+00 0.  1.
         25    2    1    2    0    0 -0.13236423263E+03  0.12253410863E+03  0.38812573477E+03  0.44589708689E+03  0.12509087996E+03 0.  0.
         23    2    1    2    0    0  0.13236423263E+03 -0.12253410863E+03  0.11885589431E+03  0.23436392007E+03  0.90911086025E+02 0.  0.
          5    1    3    3  502    0 -0.13303734413E+03  0.14316862415E+03  0.36833352584E+03  0.41699310370E+03  0.41800000000E+01 0.  1.
         -5    1    3    3    0  502  0.67311150578E+00 -0.20634515522E+02  0.19792208928E+02  0.28903983189E+02  0.41800000000E+01 0.  1.
        -11    1    4    4    0    0  0.86411647182E+02 -0.10237722980E+03  0.38091072482E+02  0.13928029205E+03  0.00000000000E+00 0.  1.
         11    1    4    4    0    0  0.45952585446E+02 -0.20156878828E+02  0.80764821825E+02  0.95083628021E+02  0.00000000000E+00 0. -1.
</event>
<event>
 8    1  0.6597859E-009  0.7488656E+02  0.7561462E-02  0.1344223E+00
          1   -1    0    0  501    0  0.00000000000E+00  0.00000000000E+00  0.27040206015E+02  0.27040206015E+02  0.00000000000E+00 0. -1.
         -1   -1    0    0    0  501 -0.00000000000E+00 -0.00000000000E+00 -0.51919656101E+03  0.51919656101E+03  0.00000000000E+00 0.  1.
         25    2    1    2    0    0  0.95484142660E+01 -0.36163410804E+02 -0.35424685385E+03  0.37754187353E+03  0.12509223920E+03 0.  0.
         23    2    1    2    0    0 -0.95484142660E+01  0.36163410804E+02 -0.13790950114E+03  0.16869489349E+03  0.89665891450E+02 0.  0.
          5    1    3    3  502    0  0.14452762827E+02  0.58049603336E+01  0.41395548654E+01  0.16648970908E+02  0.41800000000E+01 0. -1.
         -5    1    3    3    0  502 -0.49043485605E+01 -0.41968371138E+02 -0.35838640872E+03  0.36089290262E+03  0.41800000000E+01 0. -1.
        -11    1    4    4    0    0  0.32560616695E+02  0.36716132263E+02 -0.10262289284E+03  0.11375291760E+03  0.00000000000E+00 0.  1.
         11    1    4    4    0    0 -0.42109030961E+02 -0.55272145924E+00 -0.35286608304E+02  0.54941975894E+02  0.00000000000E+00 0. -1.
</event>
<event>
 8    1  0.6597859E-009  0.6754551E+02  0.7561462E-02  0.1368644E+00
         -1   -1    0    0    0  501 -0.00000000000E+00  0.00000000000E+00  0.10047668117E+03  0.10047668117E+03  0.00000000000E+00 0.  1.
          1   -1    0    0  501    0  0.00000000000E+00 -0.00000000000E+00 -0.16802109974E+03  0.16802109974E+03  0.00000000000E+00 0. -1.
         25    2    1    2    0    0 -0.23536213607E+02  0.55533079979E+02 -0.76456177280E+02  0.15852730033E+03  0.12508989401E+03 0.  0.
         23    2    1    2    0    0  0.23536213607E+02 -0.55533079979E+02  0.89117587130E+01  0.10997048058E+03  0.91521641331E+02 0.  0.
          5    1    3    3  502    0 -0.10673138394E+02  0.22310123481E+02  0.34080757950E+02  0.42315812120E+02  0.41800000000E+01 0.  1.
         -5    1    3    3    0  502 -0.12863075213E+02  0.33222956498E+02 -0.11053693523E+03  0.11621148821E+03  0.41800000000E+01 0.  1.
        -11    1    4    4    0    0  0.35209944574E+02 -0.30766409244E+02 -0.34872507502E+02  0.58330128699E+02  0.00000000000E+00 0. -1.
         11    1    4    4    0    0 -0.11673730967E+02 -0.24766670735E+02  0.43784266215E+02  0.51640351877E+02  0.00000000000E+00 0.  1.
</event>
<event>
 8    1  0.6597859E-009  0.3113594E+03  0.7561462E-02  0.1079696E+00
         -1   -1    0    0    0  501 -0.00000000000E+00  0.00000000000E+00  0.27833947830E+03  0.27833947830E+03  0.00000000000E+00 0.  1.
          1   -1    0    0  501    0  0.00000000000E+00 -0.00000000000E+00 -0.37811652106E+03  0.37811652106E+03  0.00000000000E+00 0. -1.
         25    2    1    2    0    0 -0.72729004923E+02  0.29348123238E+03 -0.27544770014E+01  0.32722509255E+03  0.12509169491E+03 0.  0.
         23    2    1    2    0    0  0.72729004923E+02 -0.29348123238E+03 -0.97022565763E+02  0.32923090680E+03  0.86941761013E+02 0.  0.
          5    1    3    3  502    0  0.61135920987E+01  0.12379506044E+03 -0.50774249810E+02  0.13400779769E+03  0.41800000000E+01 0. -1.
         -5    1    3    3    0  502 -0.78842597022E+02  0.16968617195E+03  0.48019772808E+02  0.19321729487E+03  0.41800000000E+01 0. -1.
        -11    1    4    4    0    0 -0.33330271073E+01 -0.14202875123E+03 -0.21498426887E+02  0.14368527275E+03  0.00000000000E+00 0.  1.
         11    1    4    4    0    0  0.76062032031E+02 -0.15145248115E+03 -0.75524138875E+02  0.18554563406E+03  0.00000000000E+00 0. -1.
</event>
<event>
 8    1  0.6597859E-009  0.1661977E+03  0.7561462E-02  0.1181872E+00
          1   -1    0    0  501    0  0.00000000000E+00  0.00000000000E+00  0.19203295099E+04  0.19203295099E+04  0.00000000000E+00 0. -1.
         -1   -1    0    0    0  501 -0.00000000000E+00 -0.00000000000E+00 -0.25287101225E+02  0.25287101225E+02  0.00000000000E+00 0.  1.
         25    2    1    2    0    0 -0.90156617309E+02  0.12305597305E+03  0.14917826912E+04  0.15047704057E+04  0.12508951882E+03 0.  0.
         23    2    1    2    0    0  0.90156617309E+02 -0.12305597305E+03  0.40325971744E+03  0.44084620547E+03  0.91956451755E+02 0.  0.
          5    1    3    3  502    0 -0.44986740045E+02  0.79684542558E+02  0.12946909073E+04  0.12979273674E+04  0.41800000000E+01 0. -1.
         -5    1    3    3    0  502 -0.45169877264E+02  0.43371430490E+02  0.19709178390E+03  0.20684303826E+03  0.41800000000E+01 0. -1.
        -11    1    4    4    0    0  0.53878470172E+02 -0.45176690821E+01  0.11618452569E+03  0.12814890905E+03  0.00000000000E+00 0.  1.
         11    1    4    4    0    0  0.36278147137E+02 -0.11853830397E+03  0.28707519175E+03  0.31269729641E+03  0.00000000000E+00 0. -1.
</event>
<event>
 8    1  0.6597859E-009  0.1046374E+03  0.7561462E-02  0.1270836E+00
          1   -1    0    0  501    0  0.00000000000E+00  0.00000000000E+00  0.85362646429E+03  0.85362646429E+03  0.00000000000E+00 0. -1.
         -1   -1    0    0    0  501 -0.00000000000E+00 -0.00000000000E+00 -0.17922708256E+02  0.17922708256E+02  0.00000000000E+00 0.  1.
         25    2    1    2    0    0  0.47569954327E+02 -0.22173229361E+02  0.55437156660E+03  0.57072754914E+03  0.12509016283E+03 0.  0.
         23    2    1    2    0    0 -0.47569954327E+02  0.22173229361E+02  0.28133218943E+03  0.30082162340E+03  0.92689242326E+02 0.  0.
          5    1    3    3  502    0  0.57583042959E+02  0.39606968410E+02  0.23301052950E+03  0.24330207159E+03  0.41800000000E+01 0.  1.
         -5    1    3    3    0  502 -0.10013088632E+02 -0.61780197770E+02  0.32136103710E+03  0.32742547755E+03  0.41800000000E+01 0.  1.
        -11    1    4    4    0    0  0.11528167525E+02 -0.35770503704E+01 -0.13044028566E+00  0.12071079094E+02  0.00000000000E+00 0.  1.
         11    1    4    4    0    0 -0.59098121851E+02  0.25750279731E+02  0.28146262972E+03  0.28875054431E+03  0.00000000000E+00 0. -1.
</event>
<event>
 8    1  0.6597859E-009  0.1304123E+03  0.7561462E-02  0.1226845E+00
         -1   -1    0    0    0  501 -0.00000000000E+00  0.00000000000E+00  0.25595966550E+02  0.25595966550E+02  0.00000000000E+00 0.  1.
          1   -1    0    0  501    0  0.00000000000E+00 -0.00000000000E+00 -0.90205420655E+03  0.90205420655E+03  0.00000000000E+00 0. -1.
         25    2    1    2    0    0 -0.54099391480E+02 -0.81915458915E+02 -0.58635537555E+03  0.60753373952E+03  0.12509089357E+03 0.  0.
         23    2    1    2    0    0  0.54099391480E+02  0.81915458915E+02 -0.29010286445E+03  0.32011643358E+03  0.93155635989E+02 0.  0.
          5    1    3    3  502    0  0.16967839872E+01 -0.81551535085E+02 -0.18408920409E+03  0.20139473532E+03  0.41800000000E+01 0.  1.
         -5    1    3    3    0  502 -0.55796175467E+02 -0.36392382961E+00 -0.40226617146E+03  0.40613900420E+03  0.41800000000E+01 0.  1.
        -11    1    4    4    0    0  0.50421641703E+02  0.96108944292E+02 -0.28436288334E+03  0.30437069594E+03  0.00000000000E+00 0. -1.
         11    1    4    4    0    0  0.36777497767E+01 -0.14193485377E+02 -0.57399811067E+01  0.15745737635E+02  0.00000000000E+00 0.  1.
</event>
<event>
 8    1  0.6597859E-009  0.1050191E+03  0.7561462E-02  0.1270082E+00
         -2   -1    0    0    0  501 -0.00000000000E+00  0.00000000000E+00  0.96828714780E+02  0.96828714780E+02  0.00000000000E+00 0. -1.
          2   -1    0    0  501    0  0.00000000000E+00 -0.00000000000E+00 -0.13307301361E+03  0.13307301361E+03  0.00000000000E+00 0.  1.
         25    2    1    2    0    0 -0.25905385745E+02 -0.12591118199E+02 -0.25077339176E+01  0.12838024130E+03  0.12508226237E+03 0.  0.
         23    2    1    2    0    0  0.25905385745E+02  0.12591118199E+02 -0.33736564908E+02  0.10152148708E+03  0.91317201336E+02 0.  0.
          5    1    3    3  502    0  0.18080735639E+02 -0.53954489944E+02 -0.26957024485E+02  0.63104306949E+02  0.41800000000E+01 0. -1.
         -5    1    3    3    0  502 -0.43986121384E+02  0.41363371745E+02  0.24449290568E+02  0.65275934354E+02  0.41800000000E+01 0. -1.
        -11    1    4    4    0    0  0.43900861251E+02 -0.25186388627E+02 -0.52140986117E+01  0.50880513117E+02  0.00000000000E+00 0. -1.
         11    1    4    4    0    0 -0.17995475506E+02  0.37777506826E+02 -0.28522466296E+02  0.50640973967E+02  0.00000000000E+00 0.  1.
</event>
<event>
 8    1  0.6597859E-009  0.8068863E+02  0.7561462E-02  0.1327108E+00
          2   -1    0    0  501    0  0.00000000000E+00  0.00000000000E+00  0.59943763696E+02  0.59943763696E+02  0.00000000000E+00 0. -1.
         -2   -1    0    0    0  501 -0.00000000000E+00 -0.00000000000E+00 -0.28408000078E+03  0.28408000078E+03  0.00000000000E+00 0.  1.
         25    2    1    2    0    0 -0.63640020738E+00  0.93229447972E+01 -0.22098273529E+03  0.25410332906E+03  0.12509120768E+03 0.  0.
         23    2    1    2    0    0  0.63640020738E+00 -0.93229447972E+01 -0.31535017958E+01  0.89920435417E+02  0.89377949334E+02 0.  0.
          5    1    3    3  502    0 -0.61818393575E+02  0.13813700984E+01 -0.90208031173E+02  0.10944580054E+03  0.41800000000E+01 0.  1.
         -5    1    3    3    0  502  0.61181993368E+02  0.79415746988E+01 -0.13077470411E+03  0.14465752852E+03  0.41800000000E+01 0.  1.
        -11    1    4    4    0    0  0.16102148545E+02  0.46103130508E+01  0.39254742778E+02  0.42678671545E+02  0.00000000000E+00 0. -1.
         11    1    4    4    0    0 -0.15465748338E+02 -0.13933257848E+02 -0.42408244574E+02  0.47241763872E+02  0.00000000000E+00 0.  1.
</event>
<event>
 8    1  0.6597859E-009  0.9547854E+02  0.7561462E-02  0.1290102E+00
          2   -1    0    0  501    0  0.00000000000E+00  0.00000000000E+00  0.18335214599E+03  0.18335214599E+03  0.00000000000E+00 0.  1.
         -2   -1    0    0    0  501 -0.00000000000E+00 -0.00000000000E+00 -0.82925629848E+02  0.82925629848E+02  0.00000000000E+00 0. -1.
         25    2    1    2    0    0 -0.25247286214E+02  0.11361207981E+02  0.10967351146E+03  0.16864841055E+03  0.12508998664E+03 0.  0.
         23    2    1    2    0    0  0.25247286214E+02 -0.11361207981E+02 -0.92469953211E+01  0.97629365281E+02  0.93163745817E+02 0.  0.
          5    1    3    3  502    0 -0.27910640126E+02 -0.38556450647E+02 -0.29123719228E+00  0.47782433361E+02  0.41800000000E+01 0.  1.
         -5    1    3    3    0  502  0.26633539118E+01  0.49917658629E+02  0.10996474865E+03  0.12086597719E+03  0.41800000000E+01 0.  1.
        -11    1    4    4    0    0  0.36175594362E+02  0.31998485724E+02  0.93624943695E+01  0.49195863820E+02  0.00000000000E+00 0.  1.
         11    1    4    4    0    0 -0.10928308148E+02 -0.43359693706E+02 -0.18609489691E+02  0.48433501461E+02  0.00000000000E+00 0. -1.
</event>
<event>
 8    1  0.6597859E-009  0.1543385E+03  0.7561462E-02  0.1195241E+00
          2   -1    0    0  501    0  0.00000000000E+00  0.00000000000E+00  0.10930126177E+03  0.10930126177E+03  0.00000000000E+00 0. -1.
         -2   -1    0    0    0  501 -0.00000000000E+00 -0.00000000000E+00 -0.36944056453E+03  0.36944056453E+03  0.00000000000E+00 0.  1.
         25    2    1    2    0    0 -0.60916620628E+02 -0.12706353181E+03 -0.24570359115E+03  0.30963298455E+03  0.12508538938E+03 0.  0.
         23    2    1    2    0    0  0.60916620628E+02  0.12706353181E+03 -0.14435711611E+02  0.16910884175E+03  0.92376592294E+02 0.  0.
          5    1    3    3  502    0 -0.36188935069E+02 -0.13390705072E+03 -0.24731314437E+03  0.28358773075E+03  0.41800000000E+01 0.  1.
         -5    1    3    3    0  502 -0.24727685559E+02  0.68435189101E+01  0.16095532208E+01  0.26045253804E+02  0.41800000000E+01 0.  1.
        -11    1    4    4    0    0  0.36669667335E+02  0.10464828681E+03 -0.49067188952E+02  0.12125806145E+03  0.00000000000E+00 0.  1.
         11    1    4    4    0    0  0.24246953293E+02  0.22415244993E+02  0.34631477341E+02  0.47850780296E+02  0.00000000000E+00 0. -1.
</event>
<event>
 8    1  0.6597859E-009  0.1753380E+03  0.7561462E-02  0.1172393E+00
         -3   -1    0    0    0  501 -0.00000000000E+00  0.00000000000E+00  0.23036795099E+03  0.23036795099E+03  0.00000000000E+00 0.  1.
          3   -1    0    0  501    0  0.00000000000E+00 -0.00000000000E+00 -0.19233320588E+03  0.19233320588E+03  0.00000000000E+00 0. -1.
         25    2    1    2    0    0  0.14965523795E+03 -0.85976049336E+02  0.65942959776E+02  0.22312484142E+03  0.12509056563E+03 0.  0.
         23    2    1    2    0    0 -0.14965523795E+03  0.85976049336E+02 -0.27908214666E+02  0.19957631544E+03  0.96245861907E+02 0.  0.
          5    1    3    3  502    0  0.24026652694E+02 -0.17919973603E+02  0.74009600153E+02  0.79958106583E+02  0.41800000000E+01 0.  1.
         -5    1    3    3    0  502  0.12562858525E+03 -0.68056075733E+02 -0.80666403765E+01  0.14316673484E+03  0.41800000000E+01 0.  1.
        -11    1    4    4    0    0 -0.10890402474E+03  0.39952756119E+02  0.24775033901E+02  0.11861750137E+03  0.00000000000E+00 0.  1.
         11    1    4    4    0    0 -0.40751213209E+02  0.46023293217E+02 -0.52683248567E+02  0.80958814073E+02  0.00000000000E+00 0. -1.
</event>
<event>
 8    1  0.6597859E-009  0.1022951E+03  0.7561462E-02  0.1275542E+00
         -2   -1    0    0    0  501 -0.00000000000E+00  0.00000000000E+00  0.39070939140E+03  0.39070939140E+03  0.00000000000E+00 0.  1.
          2   -1    0    0  501    0  0.00000000000E+00 -0.00000000000E+00 -0.44750472671E+02  0.44750472671E+02  0.00000000000E+00 0. -1.
         25    2    1    2    0    0 -0.12171490181E+02  0.64307327769E+02  0.25051811369E+03  0.28756025497E+03  0.12509195567E+03 0.  0.
         23    2    1    2    0    0  0.12171490181E+02 -0.64307327769E+02  0.95440805044E+02  0.14789960911E+03  0.92096522888E+02 0.  0.
          5    1    3    3  502    0  0.18976377372E+02 -0.28389810990E+02  0.11735879182E+03  0.12229735354E+03  0.41800000000E+01 0. -1.
         -5    1    3    3    0  502 -0.31147867553E+02  0.92697138759E+02  0.13315932187E+03  0.16526290142E+03  0.41800000000E+01 0. -1.
        -11    1    4    4    0    0  0.19838009605E+02 -0.23350987766E+02  0.10129045279E+03  0.10582330122E+03  0.00000000000E+00 0.  1.
         11    1    4    4    0    0 -0.76665194241E+01 -0.40956340003E+02 -0.58496477458E+01  0.42076307885E+02  0.00000000000E+00 0. -1.
</event>
<event>
 8    1  0.6597859E-009  0.9461318E+02  0.7561462E-02  0.1292050E+00
          3   -1    0    0  501    0  0.00000000000E+00  0.00000000000E+00  0.23495627862E+03  0.23495627862E+03  0.00000000000E+00 0. -1.
         -3   -1    0    0    0  501 -0.00000000000E+00 -0.00000000000E+00 -0.58200522994E+02  0.58200522994E+02  0.00000000000E+00 0.  1.
         25    2    1    2    0    0  0.65689828868E+01 -0.11490876284E+02  0.14829949775E+03  0.19445155806E+03  0.12507388067E+03 0.  0.
         23    2    1    2    0    0 -0.65689828868E+01  0.11490876284E+02  0.28456257872E+02  0.98705243552E+02  0.93582983061E+02 0.  0.
          5    1    3    3  502    0 -0.50603028980E+02  0.13503764724E+02  0.29647548422E+02  0.60328001219E+02  0.41800000000E+01 0. -1.
         -5    1    3    3    0  502  0.57172011866E+02 -0.24994641008E+02  0.11865194933E+03  0.13412355684E+03  0.41800000000E+01 0. -1.
        -11    1    4    4    0    0 -0.23841374921E+02  0.36595573498E+02 -0.14515514884E+02  0.46025507386E+02  0.00000000000E+00 0.  1.
         11    1    4    4    0    0  0.17272392034E+02 -0.25104697214E+02  0.42971772756E+02  0.52679736166E+02  0.00000000000E+00 0. -1.
</event>
<event>
 7    1  0.6597859E-009  0.1667098E+03  0.7561462E-02  0.1181323E+00
         -2   -1    0    0    0  501 -0.00000000000E+00  0.00000000000E+00  0.37549286731E+02  0.37549286731E+02  0.00000000000E+00 0.  1.
          2   -1    0    0  501    0  0.00000000000E+00 -0.00000000000E+00 -0.11424461359E+04  0.11424461359E+04  0.00000000000E+00 0. -1.
         25    2    1    2    0    0 -0.32297632169E+02 -0.13924319565E+03 -0.38923741340E+03  0.43311228134E+03  0.12509468286E+03 0.  0.
          5    1    3    3  502    0  0.32566867465E+02 -0.11516630457E+03 -0.26611377443E+03  0.29181825149E+03  0.41800000000E+01 0. -1.
         -5    1    3    3    0  502 -0.64864499634E+02 -0.24076891084E+02 -0.12312363897E+03  0.14129402985E+03  0.41800000000E+01 0. -1.
        -11    1    1    2    0    0 -0.27648616436E+01  0.15033933233E+02  0.39526629701E+01  0.15788830005E+02  0.00000000000E+00 0.  1.
         11    1    1    2    0    0  0.35062493813E+02  0.12420926242E+03 -0.71961209874E+03  0.73109431129E+03  0.00000000000E+00 0. -1.
</event>
<event>
 8    1  0.6597859E-009  0.2108241E+03  0.7561462E-02  0.1140915E+00
          2   -1    0    0  501    0  0.00000000000E+00  0.00000000000E+00  0.83111180958E+03  0.83111180958E+03  0.00000000000E+00 0.  1.
         -2   -1    0    0    0  501 -0.00000000000E+00 -0.00000000000E+00 -0.11315711862E+03  0.11315711862E+03  0.00000000000E+00 0. -1.
         25    2    1    2    0    0  0.11328176997E+03 -0.16239810418E+03  0.47416129888E+02  0.23896014236E+03  0.12509099335E+03 0.  0.
         23    2    1    2    0    0 -0.11328176997E+03  0.16239810418E+03  0.67053856107E+03  0.70530878584E+03  0.92911882227E+02 0.  0.
          5    1    3    3  502    0 -0.67145011953E+01 -0.52386277266E+02  0.54436335157E+02  0.75961790114E+02  0.41800000000E+01 0.  1.
         -5    1    3    3    0  502  0.11999627116E+03 -0.11001182691E+03 -0.70202052690E+01  0.16299835225E+03  0.41800000000E+01 0.  1.
        -11    1    4    4    0    0 -0.44825262545E+02  0.22686057410E+02  0.78749694624E+02  0.93410255146E+02  0.00000000000E+00 0. -1.
         11    1    4    4    0    0 -0.68456507420E+02  0.13971204677E+03  0.59178886644E+03  0.61189853070E+03  0.00000000000E+00 0.  1.
</event>
<event>
 8    1  0.6597859E-009  0.1428766E+03  0.7561462E-02  0.1209510E+00
          1   -1    0    0  501    0  0.00000000000E+00  0.00000000000E+00  0.76680050289E+03  0.76680050289E+03  0.00000000000E+00 0. -1.
         -1   -1    0    0    0  501 -0.00000000000E+00 -0.00000000000E+00 -0.27831419536E+02  0.27831419536E+02  0.00000000000E+00 0.  1.
         25    2    1    2    0    0  0.76176385389E+02 -0.62928217950E+02  0.41430945022E+03  0.44391661731E+03  0.12508733062E+03 0.  0.
         23    2    1    2    0    0 -0.76176385389E+02  0.62928217950E+02  0.32465963314E+03  0.35071530511E+03  0.88512968238E+02 0.  0.
          5    1    3    3  502    0  0.29976891950E+02  0.36718260197E+02  0.15860338197E+03  0.16558789163E+03  0.41800000000E+01 0. -1.
         -5    1    3    3    0  502  0.46199493439E+02 -0.99646478147E+02  0.25570606825E+03  0.27832872568E+03  0.41800000000E+01 0. -1.
        -11    1    4    4    0    0 -0.93952618989E+02  0.51906328085E+02  0.23058943350E+03  0.25434788844E+03  0.00000000000E+00 0.  1.
         11    1    4    4    0    0  0.17776233600E+02  0.11021889866E+02  0.94070199635E+02  0.96367416675E+02  0.00000000000E+00 0. -1.
</event>
<event>
 8    1  0.6597859E-009  0.8433736E+02  0.7561462E-02  0.1317175E+00
         -2   -1    0    0    0  501 -0.00000000000E+00  0.00000000000E+00  0.15160705328E+02  0.15160705328E+02  0.00000000000E+00 0.  1.
          2   -1    0    0  501    0  0.00000000000E+00 -0.00000000000E+00 -0.82354386250E+03  0.82354386250E+03  0.00000000000E+00 0. -1.
         25    2    1    2    0    0 -0.67975796075E+01  0.12321666559E+02 -0.55389614757E+03  0.56802232790E+03  0.12510152736E+03 0.  0.
         23    2    1    2    0    0  0.67975796075E+01 -0.12321666559E+02 -0.25448700960E+03  0.27068223993E+03  0.91143877464E+02 0.  0.
          5    1    3    3  502    0  0.38487484425E+02  0.23591741855E+01 -0.47375287204E+03  0.47533788858E+03  0.41800000000E+01 0.  1.
         -5    1    3    3    0  502 -0.45285064032E+02  0.99624923737E+01 -0.80143275531E+02  0.92684439317E+02  0.41800000000E+01 0.  1.
        -11    1    4    4    0    0  0.16426811980E+02 -0.45716260664E+02 -0.20179979509E+03  0.20756438505E+03  0.00000000000E+00 0. -1.
         11    1    4    4    0    0 -0.96292323729E+01  0.33394594105E+02 -0.52687214513E+02  0.63117854880E+02  0.00000000000E+00 0.  1.
</event>
<event>
 8    1  0.6597859E-009  0.2574913E+03  0.7561462E-02  0.1108660E+00
          2   -1    0    0  501    0  0.00000000000E+00  0.00000000000E+00  0.11307991819E+03  0.11307991819E+03  0.00000000000E+00 0.  1.
         -2   -1    0    0    0  501 -0.00000000000E+00 -0.00000000000E+00 -0.73082425427E+03  0.73082425427E+03  0.00000000000E+00 0. -1.
         25    2    1    2    0    0  0.15359990753E+02 -0.25393506008E+03 -0.20153029580E+03  0.34782411551E+03  0.12509281015E+03 0.  0.
         23    2    1    2    0    0 -0.15359990753E+02  0.25393506008E+03 -0.41621404028E+03  0.49608005695E+03  0.90234979463E+02 0.  0.
          5    1    3    3  502    0  0.26867270029E+02 -0.11383589842E+03 -0.16540611098E+03  0.20262555594E+03  0.41800000000E+01 0.  1.
         -5    1    3    3    0  502 -0.11507279276E+02 -0.14009916166E+03 -0.36124184822E+02  0.14519855958E+03  0.41800000000E+01 0.  1.
        -11    1    4    4    0    0 -0.26010866023E+02  0.11214993507E+03 -0.26279079709E+03  0.28690272937E+03  0.00000000000E+00 0. -1.
         11    1    4    4    0    0  0.10650875270E+02  0.14178512502E+03 -0.15342324319E+03  0.20917732757E+03  0.00000000000E+00 0.  1.
</event>
<event>
 8    1  0.6597859E-009  0.1856649E+03  0.7561462E-02  0.1162430E+00
         -2   -1    0    0    0  501 -0.00000000000E+00  0.00000000000E+00  0.78173958018E+02  0.78173958018E+02  0.00000000000E+00 0.  1.
          2   -1    0    0  501    0  0.00000000000E+00 -0.00000000000E+00 -0.55480860534E+03  0.55480860534E+03  0.00000000000E+00 0. -1.
         25    2    1    2    0    0 -0.13245243761E+03  0.11573332191E+03 -0.29654000888E+03  0.36677203354E+03  0.12509155723E+03 0.  0.
         23    2    1    2    0    0  0.13245243761E+03 -0.11573332191E+03 -0.18009463845E+03  0.26621052983E+03  0.86580121066E+02 0.  0.
          5    1    3    3  502    0 -0.25766155840E+02  0.56792488802E+01  0.61926504327E+01  0.27422070928E+02  0.41800000000E+01 0.  1.
         -5    1    3    3    0  502 -0.10668628177E+03  0.11005407303E+03 -0.30273265931E+03  0.33934996261E+03  0.41800000000E+01 0.  1.
        -11    1    4    4    0    0  0.11620833431E+03 -0.55284466087E+02 -0.14712540653E+03  0.19546517439E+03  0.00000000000E+00 0. -1.
         11    1    4    4    0    0  0.16244103298E+02 -0.60448855823E+02 -0.32969231922E+02  0.70745355436E+02  0.00000000000E+00 0.  1.
</event>
<event>
 8    1  0.6597859E-009  0.1300685E+03  0.7561462E-02  0.1227354E+00
         -2   -1    0    0    0  501 -0.00000000000E+00  0.00000000000E+00  0.62535631745E+03  0.62535631745E+03  0.00000000000E+00 0. -1.
          2   -1    0    0  501    0  0.00000000000E+00 -0.00000000000E+00 -0.38387477255E+02  0.38387477255E+02  0.00000000000E+00 0.  1.
         25    2    1    2    0    0  0.79708067701E+02  0.74605055438E+01  0.15488412299E+03  0.21458339886E+03  0.12509159970E+03 0.  0.
         23    2    1    2    0    0 -0.79708067701E+02 -0.74605055438E+01  0.43208471720E+03  0.44916039584E+03  0.92945269639E+02 0.  0.
          5    1    3    3  502    0 -0.22373137816E+02  0.24996844238E+02  0.79563111277E+02  0.86447444113E+02  0.41800000000E+01 0.  1.
         -5    1    3    3    0  502  0.10208120552E+03 -0.17536338694E+02  0.75321011709E+02  0.12813595475E+03  0.41800000000E+01 0.  1.
        -11    1    4    4    0    0  0.31239470037E+01  0.31132101064E+02  0.11008915478E+03  0.11444906623E+03  0.00000000000E+00 0.  1.
         11    1    4    4    0    0 -0.82832014705E+02 -0.38592606607E+02  0.32199556243E+03  0.33471132961E+03  0.00000000000E+00 0. -1.
</event>
<event>
 8    1  0.6597859E-009  0.7404336E+02  0.7561462E-02  0.1346859E+00
         -4   -1    0    0    0  501 -0.00000000000E+00  0.00000000000E+00  0.67558686146E+03  0.67558686146E+03  0.00000000000E+00 0. -1.
          4   -1    0    0  501    0  0.00000000000E+00 -0.00000000000E+00 -0.20721604236E+02  0.20721604236E+02  0.00000000000E+00 0.  1.
         25    2    1    2    0    0 -0.14215031578E+02 -0.35293044454E+02  0.46260621187E+03  0.48072734945E+03  0.12508641467E+03 0.  0.
         23    2    1    2    0    0  0.14215031578E+02  0.35293044454E+02  0.19225904535E+03  0.21558111625E+03  0.89799838829E+02 0.  0.
          5    1    3    3  502    0  0.13895245250E+02  0.76438443697E+01  0.39695112612E+03  0.39728978734E+03  0.41800000000E+01 0. -1.
         -5    1    3    3    0  502 -0.28110276828E+02 -0.42936888824E+02  0.65655085752E+02  0.83437562107E+02  0.41800000000E+01 0. -1.
        -11    1    4    4    0    0  0.11717109609E+02  0.57078019572E+02  0.68660412650E+02  0.90052447169E+02  0.00000000000E+00 0.  1.
         11    1    4    4    0    0  0.24979219697E+01 -0.21784975118E+02  0.12359863270E+03  0.12552866908E+03  0.00000000000E+00 0. -1.
</event>
<event>
 8    1  0.6597859E-009  0.1473039E+03  0.7561462E-02  0.1203826E+00
          2   -1    0    0  501    0  0.00000000000E+00  0.00000000000E+00  0.57004707891E+03  0.57004707891E+03  0.00000000000E+00 0. -1.
         -2   -1    0    0    0  501 -0.00000000000E+00 -0.00000000000E+00 -0.46168787014E+02  0.46168787014E+02  0.00000000000E+00 0.  1.
         25    2    1    2    0    0  0.53819707293E+02 -0.94582331797E+02  0.37747007821E+03  0.41228154038E+03  0.12510008080E+03 0.  0.
         23    2    1    2    0    0 -0.53819707293E+02  0.94582331797E+02  0.14640821370E+03  0.20393432555E+03  0.91167240378E+02 0.  0.
          5    1    3    3  502    0 -0.22361007083E+02 -0.85950885534E+02  0.21022114633E+03  0.22824980203E+03  0.41800000000E+01 0.  1.
         -5    1    3    3    0  502  0.76180714376E+02 -0.86314462621E+01  0.16724893187E+03  0.18403173835E+03  0.41800000000E+01 0.  1.
        -11    1    4    4    0    0 -0.39543185185E+02  0.69763260406E+01  0.10321820804E+02  0.41459288517E+02  0.00000000000E+00 0.  1.
         11    1    4    4    0    0 -0.14276522107E+02  0.87606005756E+02  0.13608639289E+03  0.16247503703E+03  0.00000000000E+00 0. -1.
</event>
<event>
 8    1  0.6597859E-009  0.8785458E+02  0.7561462E-02  0.1308132E+00
          1   -1    0    0  501    0  0.00000000000E+00  0.00000000000E+00  0.62047103182E+02  0.62047103182E+02  0.00000000000E+00 0. -1.
         -1   -1    0    0    0  501 -0.00000000000E+00 -0.00000000000E+00 -0.25884039249E+03  0.25884039249E+03  0.00000000000E+00 0.  1.
         25    2    1    2    0    0 -0.25009190060E+01 -0.63793027127E+02 -0.94631720130E+02  0.16935546980E+03  0.12510119020E+03 0.  0.
         23    2    1    2    0    0  0.25009190060E+01  0.63793027127E+02 -0.10216156918E+03  0.15153202587E+03  0.91919332801E+02 0.  0.
          5    1    3    3  502    0 -0.15998002917E+02 -0.16537284343E+02 -0.11399414185E+03  0.11636818571E+03  0.41800000000E+01 0.  1.
         -5    1    3    3    0  502  0.13497083911E+02 -0.47255742784E+02  0.19362421716E+02  0.52987284087E+02  0.41800000000E+01 0.  1.
        -11    1    4    4    0    0  0.54836335643E+01  0.83192553332E+02 -0.10221407910E+03  0.13190446972E+03  0.00000000000E+00 0.  1.
         11    1    4    4    0    0 -0.29827145583E+01 -0.19399526205E+02  0.52509922305E-01  0.19627556149E+02  0.00000000000E+00 0. -1.
</event>
<event>
 8    1  0.6597859E-009  0.2224909E+03  0.7561462E-02  0.1132040E+00
         -2   -1    0    0    0  501 -0.00000000000E+00  0.00000000000E+00  0.45338884205E+03  0.45338884205E+03  0.00000000000E+00 0.  1.
          2   -1    0    0  501    0  0.00000000000E+00 -0.00000000000E+00 -0.13048791994E+03  0.13048791994E+03  0.00000000000E+00 0. -1.
         25    2    1    2    0    0  0.78246802905E+02 -0.18625115690E+03  0.26152737660E+03  0.35334950272E+03  0.12508895535E+03 0.  0.
         23    2    1    2    0    0 -0.78246802905E+02  0.18625115690E+03  0.61373545510E+02  0.23052725926E+03  0.92542150203E+02 0.  0.
          5    1    3    3  502    0  0.51019294279E+02 -0.18902825067E+03  0.26015858053E+03  0.32562955542E+03  0.41800000000E+01 0. -1.
         -5    1    3    3    0  502  0.27227508626E+02  0.27770937737E+01  0.13687960759E+01  0.27719947304E+02  0.41800000000E+01 0. -1.
        -11    1    4    4    0    0  0.47648469123E+01  0.10563987550E+03  0.19870662318E+02  0.10759800316E+03  0.00000000000E+00 0. -1.
         11    1    4    4    0    0 -0.83011649817E+02  0.80611281396E+02  0.41502883193E+02  0.12292925611E+03  0.00000000000E+00 0.  1.
</event>
<event>
 7    1  0.6597859E-009  0.1918801E+03  0.7561462E-02  0.1156776E+00
          2   -1    0    0  501    0  0.00000000000E+00  0.00000000000E+00  0.22776393634E+03  0.22776393634E+03  0.00000000000E+00 0.  1.
         -2   -1    0    0    0  501 -0.00000000000E+00 -0.00000000000E+00 -0.20490548591E+03  0.20490548591E+03  0.00000000000E+00 0. -1.
         23    2    1    2    0    0  0.17505196024E+03 -0.10373068895E+02  0.73720609390E+02  0.21166115100E+03  0.92816621639E+02 0.  0.
          5    1    1    2  502    0 -0.18346621204E+03  0.53598441688E+01 -0.15692269953E+02  0.18426149523E+03  0.41800000000E+01 0. -1.
         -5    1    1    2    0  502  0.84142518011E+01  0.50132247265E+01 -0.35169889003E+02  0.36746776022E+02  0.41800000000E+01 0. -1.
        -11    1    3    3    0    0  0.10512090698E+03  0.29287132624E+02  0.10966507631E+02  0.10967408770E+03  0.00000000000E+00 0.  1.
         11    1    3    3    0    0  0.69931053255E+02 -0.39660201520E+02  0.62754101758E+02  0.10198706330E+03  0.00000000000E+00 0. -1.
</event>
<event>
 8    1  0.6597859E-009  0.1171645E+03  0.7561462E-02  0.1247849E+00
         -1   -1    0    0    0  501 -0.00000000000E+00  0.00000000000E+00  0.30225322978E+02  0.30225322978E+02  0.00000000000E+00 0.  1.
          1   -1    0    0  501    0  0.00000000000E+00 -0.00000000000E+00 -0.62374496629E+03  0.62374496629E+03  0.00000000000E+00 0. -1.
         25    2    1    2    0    0  0.48592365926E+02  0.49146736903E+02 -0.20585342639E+03  0.25059905526E+03  0.12509050150E+03 0.  0.
         23    2    1    2    0    0 -0.48592365926E+02 -0.49146736903E+02 -0.38766621692E+03  0.40337123401E+03  0.87445050802E+02 0.  0.
          5    1    3    3  502    0 -0.30791176290E+02  0.24818629395E+02 -0.15137865847E+02  0.42552183079E+02  0.41800000000E+01 0.  1.
         -5    1    3    3    0  502  0.79383542216E+02  0.24328107508E+02 -0.19071556054E+03  0.20804687218E+03  0.41800000000E+01 0.  1.
        -11    1    4    4    0    0  0.16488289202E+01  0.23248516860E+02 -0.77214493192E+02  0.80655378816E+02  0.00000000000E+00 0.  1.
         11    1    4    4    0    0 -0.50241194846E+02 -0.72395253763E+02 -0.31045172373E+03  0.32271585519E+03  0.00000000000E+00 0. -1.
</event>
<event>
 8    1  0.6597859E-009  0.1019029E+03  0.7561462E-02  0.1276345E+00
          2   -1    0    0  501    0  0.00000000000E+00  0.00000000000E+00  0.34450107574E+03  0.34450107574E+03  0.00000000000E+00 0. -1.
         -2   -1    0    0    0  501 -0.00000000000E+00 -0.00000000000E+00 -0.41271327263E+02  0.41271327263E+02  0.00000000000E+00 0.  1.
         25    2    1    2    0    0  0.20034178033E+02  0.39916668368E+02  0.20580452907E+03  0.24494445392E+03  0.12509025789E+03 0.  0.
         23    2    1    2    0    0 -0.20034178033E+02 -0.39916668368E+02  0.97425219406E+02  0.14082794908E+03  0.91357151676E+02 0.  0.
          5    1    3    3  502    0 -0.35955475705E+02  0.37054693305E+02  0.28889798943E+02  0.59312219754E+02  0.41800000000E+01 0.  1.
         -5    1    3    3    0  502  0.55989653738E+02  0.28619750625E+01  0.17691473012E+03  0.18563223417E+03  0.41800000000E+01 0.  1.
        -11    1    4    4    0    0 -0.53513530107E+02 -0.26547583346E+02  0.36408874700E+02  0.69957688948E+02  0.00000000000E+00 0. -1.
         11    1    4    4    0    0  0.33479352074E+02 -0.13369085022E+02  0.61016344707E+02  0.70870260131E+02  0.00000000000E+00 0.  1.
</event>
<event>
 8    1  0.6597859E-009  0.6800385E+02  0.7561462E-02  0.1367016E+00
          2   -1    0    0  501    0  0.00000000000E+00  0.00000000000E+00  0.24469729471E+03  0.24469729471E+03  0.00000000000E+00 0. -1.
         -2   -1    0    0    0  501 -0.00000000000E+00 -0.00000000000E+00 -0.48742868012E+02  0.48742868012E+02  0.00000000000E+00 0.  1.
         25    2    1    2    0    0  0.59582379631E+01 -0.20324404790E+02  0.11254459469E+03  0.16959382056E+03  0.12508875309E+03 0.  0.
         23    2    1    2    0    0 -0.59582379631E+01  0.20324404790E+02  0.83409832011E+02  0.12384634216E+03  0.89062530623E+02 0.  0.
          5    1    3    3  502    0 -0.16477193966E+02 -0.43195221046E+02 -0.59259937074E+01  0.46796525978E+02  0.41800000000E+01 0. -1.
         -5    1    3    3    0  502  0.22435431929E+02  0.22870816256E+02  0.11847058840E+03  0.12279729459E+03  0.41800000000E+01 0. -1.
        -11    1    4    4    0    0  0.23770008642E+02  0.77652170004E+01  0.87786517328E+02  0.91278609380E+02  0.00000000000E+00 0. -1.
         11    1    4    4    0    0 -0.29728246605E+02  0.12559187790E+02 -0.43766853165E+01  0.32567732781E+02  0.00000000000E+00 0.  1.
</event>
<event>
 8    1  0.6597859E-009  0.1025053E+03  0.7561462E-02  0.1275114E+00
         -1   -1    0    0    0  501 -0.00000000000E+00  0.00000000000E+00  0.35837145377E+02  0.35837145377E+02  0.00000000000E+00 0.  1.
          1   -1    0    0  501    0  0.00000000000E+00 -0.00000000000E+00 -0.42190396881E+03  0.42190396881E+03  0.00000000000E+00 0. -1.
         25    2    1    2    0    0 -0.23632081377E+02 -0.18274456442E+02 -0.30777213300E+03  0.33356199664E+03  0.12508992254E+03 0.  0.
         23    2    1    2    0    0  0.23632081377E+02  0.18274456442E+02 -0.78294690436E+02  0.12417911755E+03  0.91640404061E+02 0.  0.
          5    1    3    3  502    0 -0.63862912126E+02  0.82626487243E+01 -0.91631253771E+02  0.11207364533E+03  0.41800000000E+01 0.  1.
         -5    1    3    3    0  502  0.40230830749E+02 -0.26537105167E+02 -0.21614087923E+03  0.22148835131E+03  0.41800000000E+01 0.  1.
        -11    1    4    4    0    0  0.70460304155E+01 -0.35312711031E+02 -0.49251961154E+02  0.61011390597E+02  0.00000000000E+00 0. -1.
         11    1    4    4    0    0  0.16586050961E+02  0.53587167473E+02 -0.29042729281E+02  0.63167726953E+02  0.00000000000E+00 0.  1.
</event>
<event>
 8    1  0.6597859E-009  0.1435668E+03  0.7561462E-02  0.1208609E+00
          1   -1    0    0  501    0  0.00000000000E+00  0.00000000000E+00  0.35459134470E+03  0.35459134470E+03  0.00000000000E+00 0. -1.
         -1   -1    0    0    0  501 -0.00000000000E+00 -0.00000000000E+00 -0.78360511224E+02  0.78360511224E+02  0.00000000000E+00 0.  1.
         25    2    1    2    0    0  0.11189575207E+03 -0.54444108640E+02  0.14854651363E+03  0.23067233398E+03  0.12513528141E+03 0.  0.
         23    2    1    2    0    0 -0.11189575207E+03  0.54444108640E+02  0.12768431985E+03  0.20227952195E+03  0.95545272882E+02 0.  0.
          5    1    3    3  502    0  0.10107923475E+03 -0.68392543048E+02  0.16561336422E+03  0.20576639777E+03  0.41800000000E+01 0.  1.
         -5    1    3    3    0  502  0.10816517314E+02  0.13948434408E+02 -0.17066850589E+02  0.24905936206E+02  0.41800000000E+01 0.  1.
        -11    1    4    4    0    0 -0.44680988418E+01  0.37927520085E+02  0.68737411437E+02  0.78633913918E+02  0.00000000000E+00 0. -1.
         11    1    4    4    0    0 -0.10742765322E+03  0.16516588555E+02  0.58946908409E+02  0.12364560803E+03  0.00000000000E+00 0.  1.
</event>
<event>
 8    1  0.6597859E-009  0.1015768E+03  0.7561462E-02  0.1277015E+00
         -1   -1    0    0    0  501 -0.00000000000E+00  0.00000000000E+00  0.22700124005E+03  0.22700124005E+03  0.00000000000E+00 0.  1.
          1   -1    0    0  501    0  0.00000000000E+00 -0.00000000000E+00 -0.76748090911E+02  0.76748090911E+02  0.00000000000E+00 0. -1.
         25    2    1    2    0    0  0.68902191429E+02  0.56953963929E+01  0.47754117676E+02  0.15068947465E+03  0.12508761925E+03 0.  0.
         23    2    1    2    0    0 -0.68902191429E+02 -0.56953963929E+01  0.10249903146E+03  0.15305985631E+03  0.90229256007E+02 0.  0.
          5    1    3    3  502    0  0.72017448424E+02 -0.10205386402E+02  0.83743254830E+02  0.11100030594E+03  0.41800000000E+01 0.  1.
         -5    1    3    3    0  502 -0.31152569954E+01  0.15900782795E+02 -0.35989137154E+02  0.39689168708E+02  0.41800000000E+01 0.  1.
        -11    1    4    4    0    0  0.14968169933E+02 -0.23463531055E+02  0.22291573476E+02  0.35658065690E+02  0.00000000000E+00 0.  1.
         11    1    4    4    0    0 -0.83870361362E+02  0.17768134663E+02  0.80207457982E+02  0.11740179062E+03  0.00000000000E+00 0. -1.
</event>
<event>
 8    1  0.6597859E-009  0.1119143E+03  0.7561462E-02  0.1257065E+00
         -1   -1    0    0    0  501 -0.00000000000E+00  0.00000000000E+00  0.87668192448E+02  0.87668192448E+02  0.00000000000E+00 0.  1.
          1   -1    0    0  501    0  0.00000000000E+00 -0.00000000000E+00 -0.15294362606E+03  0.15294362606E+03  0.00000000000E+00 0. -1.
         25    2    1    2    0    0  0.37652257953E+02 -0.24457926084E+01 -0.32374030067E+02  0.13459305815E+03  0.12507413421E+03 0.  0.
         23    2    1    2    0    0 -0.37652257953E+02  0.24457926084E+01 -0.32901403547E+02  0.10601876036E+03  0.93454805992E+02 0.  0.
          5    1    3    3  502    0 -0.20783935844E+02 -0.49179067712E+02 -0.15971036850E+01  0.53577754995E+02  0.41800000000E+01 0.  1.
         -5    1    3    3    0  502  0.58436193797E+02  0.46733275103E+02 -0.30776926382E+02  0.81015303153E+02  0.41800000000E+01 0.  1.
        -11    1    4    4    0    0 -0.32644920883E+02 -0.40543727254E+02 -0.34937690758E+02  0.62690724310E+02  0.00000000000E+00 0. -1.
         11    1    4    4    0    0 -0.50073370703E+01  0.42989519862E+02  0.20362872105E+01  0.43328036052E+02  0.00000000000E+00 0.  1.
</event>
<event>
 8    1  0.6597859E-009  0.1049033E+03  0.7561462E-02  0.1270310E+00
          1   -1    0    0  501    0  0.00000000000E+00  0.00000000000E+00  0.38733253730E+03  0.38733253730E+03  0.00000000000E+00 0. -1.
         -1   -1    0    0    0  501 -0.00000000000E+00 -0.00000000000E+00 -0.49005373932E+02  0.49005373932E+02  0.00000000000E+00 0.  1.
         25    2    1    2    0    0 -0.10566121581E+02  0.63468717946E+01  0.53457364585E+02  0.13658874977E+03  0.12508745353E+03 0.  0.
         23    2    1    2    0    0  0.10566121581E+02 -0.63468717946E+01  0.28486979878E+03  0.29974916145E+03  0.92449076950E+02 0.  0.
          5    1    3    3  502    0  0.52069650904E+02 -0.22137231113E+02  0.22811194553E+02  0.61148414072E+02  0.41800000000E+01 0. -1.
         -5    1    3    3    0  502 -0.62635772485E+02  0.28484102908E+02  0.30646170032E+02  0.75440335702E+02  0.41800000000E+01 0. -1.
        -11    1    4    4    0    0  0.88780016695E+01 -0.44787740104E+02  0.87848142974E+02  0.99005337236E+02  0.00000000000E+00 0.  1.
         11    1    4    4    0    0  0.16881199111E+01  0.38440868310E+02  0.19702165580E+03  0.20074382422E+03  0.00000000000E+00 0. -1.
</event>
<event>
 8    1  0.6597859E-009  0.1261733E+03  0.7561462E-02  0.1233247E+00
         -2   -1    0    0    0  501 -0.00000000000E+00  0.00000000000E+00  0.35446554233E+02  0.35446554233E+02  0.00000000000E+00 0.  1.
          2   -1    0    0  501    0  0.00000000000E+00 -0.00000000000E+00 -0.69330627219E+03  0.69330627219E+03  0.00000000000E+00 0. -1.
         25    2    1    2    0    0 -0.79342069888E+02 -0.94267940895E+01 -0.54058576194E+03  0.56059229697E+03  0.12508688545E+03 0.  0.
         23    2    1    2    0    0  0.79342069888E+02  0.94267940895E+01 -0.11727395602E+03  0.16816052945E+03  0.90226129277E+02 0.  0.
          5    1    3    3  502    0  0.13052086682E+02 -0.35805409561E+02 -0.28395467296E+03  0.28653117286E+03  0.41800000000E+01 0. -1.
         -5    1    3    3    0  502 -0.92394156570E+02  0.26378615471E+02 -0.25663108898E+03  0.27406112412E+03  0.41800000000E+01 0. -1.
        -11    1    4    4    0    0  0.47284703786E+02  0.48200390563E+02 -0.49347020142E+02  0.83631628344E+02  0.00000000000E+00 0.  1.
         11    1    4    4    0    0  0.32057366102E+02 -0.38773596474E+02 -0.67926935874E+02  0.84528901106E+02  0.00000000000E+00 0. -1.
</event>
<event>
 8    1  0.6597859E-009  0.1346901E+03  0.7561462E-02  0.1220658E+00
          2   -1    0    0  501    0  0.00000000000E+00  0.00000000000E+00  0.42088518305E+03  0.42088518305E+03  0.00000000000E+00 0. -1.
         -2   -1    0    0    0  501 -0.00000000000E+00 -0.00000000000E+00 -0.73121511422E+02  0.73121511422E+02  0.00000000000E+00 0.  1.
         25    2    1    2    0    0 -0.10326446240E+03  0.67914208146E+02  0.10290605753E+03  0.20374762515E+03  0.12509016434E+03 0.  0.
         23    2    1    2    0    0  0.10326446240E+03 -0.67914208146E+02  0.24485761410E+03  0.29025906932E+03  0.94969401789E+02 0.  0.
          5    1    3    3  502    0 -0.47836371267E+02  0.69424084163E+02  0.11896390419E+03  0.14586947857E+03  0.41800000000E+01 0.  1.
         -5    1    3    3    0  502 -0.55428091137E+02 -0.15098760165E+01 -0.16057846661E+02  0.57878146585E+02  0.41800000000E+01 0.  1.
        -11    1    4    4    0    0  0.64584098020E+02 -0.63256557823E+02  0.79538447527E+02  0.12041122232E+03  0.00000000000E+00 0.  1.
         11    1    4    4    0    0  0.38680364383E+02 -0.46576503232E+01  0.16531916657E+03  0.16984784700E+03  0.00000000000E+00 0. -1.
</event>
<event>
 8    1  0.6597859E-009  0.2813428E+03  0.7561462E-02  0.1094958E+00
         -1   -1    0    0    0  501 -0.00000000000E+00  0.00000000000E+00  0.46847809263E+02  0.46847809263E+02  0.00000000000E+00 0.  1.
          1   -1    0    0  501    0  0.00000000000E+00 -0.00000000000E+00 -0.19398786696E+04  0.19398786696E+04  0.00000000000E+00 0. -1.
         25    2    1    2    0    0  0.27029778087E+03 -0.12658027543E+02 -0.71760933122E+03  0.77706597866E+03  0.12508903603E+03 0.  0.
         23    2    1    2    0    0 -0.27029778087E+03  0.12658027543E+02 -0.11754215291E+04  0.12096605002E+04  0.91878390440E+02 0.  0.
          5    1    3    3  502    0  0.10165010932E+03 -0.37349058798E+02 -0.15456663705E+03  0.18877503703E+03  0.41800000000E+01 0. -1.
         -5    1    3    3    0  502  0.16864767155E+03  0.24691031256E+02 -0.56304269417E+03  0.58829094162E+03  0.41800000000E+01 0. -1.
        -11    1    4    4    0    0 -0.46151218181E+02 -0.30811019756E+02 -0.17847219520E+03  0.18689991529E+03  0.00000000000E+00 0.  1.
         11    1    4    4    0    0 -0.22414656269E+03  0.43469047299E+02 -0.99694933388E+03  0.10227605849E+04  0.00000000000E+00 0. -1.
</event>
<event>
 8    1  0.6597859E-009  0.1068823E+03  0.7561462E-02  0.1266455E+00
         -1   -1    0    0    0  501 -0.00000000000E+00  0.00000000000E+00  0.12374267037E+03  0.12374267037E+03  0.00000000000E+00 0.  1.
          1   -1    0    0  501    0  0.00000000000E+00 -0.00000000000E+00 -0.16769783906E+03  0.16769783906E+03  0.00000000000E+00 0. -1.
         25    2    1    2    0    0 -0.13605230783E+02  0.81654779636E+02  0.23168248600E+02  0.15177882536E+03  0.12508972277E+03 0.  0.
         23    2    1    2    0    0  0.13605230783E+02 -0.81654779636E+02 -0.67123417286E+02  0.13966168407E+03  0.90261993708E+02 0.  0.
          5    1    3    3  502    0 -0.55287870948E+02  0.29993637077E+02 -0.26890491908E+02  0.68534209663E+02  0.41800000000E+01 0.  1.
         -5    1    3    3    0  502  0.41682640165E+02  0.51661142559E+02  0.50058740508E+02  0.83244615699E+02  0.41800000000E+01 0.  1.
        -11    1    4    4    0    0 -0.34837393159E+01 -0.15719261214E+02 -0.69663877908E+02  0.71500262223E+02  0.00000000000E+00 0. -1.
         11    1    4    4    0    0  0.17088970099E+02 -0.65935518422E+02  0.25404606220E+01  0.68161421851E+02  0.00000000000E+00 0.  1.
</event>
<event>
 8    1  0.6597859E-009  0.3051392E+03  0.7561462E-02  0.1082699E+00
          3   -1    0    0  501    0  0.00000000000E+00  0.00000000000E+00  0.27941749847E+04  0.27941749847E+04  0.00000000000E+00 0. -1.
         -3   -1    0    0    0  501 -0.00000000000E+00 -0.00000000000E+00 -0.34224827114E+02  0.34224827114E+02  0.00000000000E+00 0.  1.
         25    2    1    2    0    0 -0.33896707367E+02 -0.28714232503E+03  0.14427328019E+04  0.14767273252E+04  0.12508378615E+03 0.  0.
         23    2    1    2    0    0  0.33896707367E+02  0.28714232503E+03  0.13172173556E+04  0.13516724866E+04  0.91417982371E+02 0.  0.
          5    1    3    3  502    0  0.35663880526E+02 -0.18113883286E+03  0.96032362303E+03  0.97791723704E+03  0.41800000000E+01 0. -1.
         -5    1    3    3    0  502 -0.69560587893E+02 -0.10600349217E+03  0.48240917888E+03  0.49881008812E+03  0.41800000000E+01 0. -1.
        -11    1    4    4    0    0  0.35071567140E+02  0.47158093936E+02  0.17797729128E+03  0.18742949836E+03  0.00000000000E+00 0.  1.
         11    1    4    4    0    0 -0.11748597728E+01  0.23998423110E+03  0.11392400644E+04  0.11642429883E+04  0.00000000000E+00 0. -1.
</event>
<event>
 8    1  0.6597859E-009  0.1317153E+03  0.7561462E-02  0.1224932E+00
         -1   -1    0    0    0  501 -0.00000000000E+00  0.00000000000E+00  0.39562340616E+03  0.39562340616E+03  0.00000000000E+00 0.  1.
          1   -1    0    0  501    0  0.00000000000E+00 -0.00000000000E+00 -0.61451068062E+02  0.61451068062E+02  0.00000000000E+00 0. -1.
         25    2    1    2    0    0 -0.89507493544E+02  0.68183939478E+02  0.19145706125E+03  0.25488221426E+03  0.12509394807E+03 0.  0.
         23    2    1    2    0    0  0.89507493544E+02 -0.68183939478E+02  0.14271527686E+03  0.20219225996E+03  0.88619516686E+02 0.  0.
          5    1    3    3  502    0 -0.95517720167E+02  0.71260013993E+02  0.20616579940E+03  0.23816681907E+03  0.41800000000E+01 0. -1.
         -5    1    3    3    0  502  0.60102266230E+01 -0.30760745150E+01 -0.14708738156E+02  0.16715395198E+02  0.41800000000E+01 0. -1.
        -11    1    4    4    0    0  0.43259388625E+02  0.10918318424E+02  0.19625874186E+02  0.48741761549E+02  0.00000000000E+00 0. -1.
         11    1    4    4    0    0  0.46248104920E+02 -0.79102257902E+02  0.12308940267E+03  0.15345049841E+03  0.00000000000E+00 0.  1.
</event>
<event>
 8    1  0.6597859E-009  0.6573837E+02  0.7561462E-02  0.1375215E+00
          2   -1    0    0  501    0  0.00000000000E+00  0.00000000000E+00  0.47513566725E+03  0.47513566725E+03  0.00000000000E+00 0. -1.
         -2   -1    0    0    0  501 -0.00000000000E+00 -0.00000000000E+00 -0.27376696809E+02  0.27376696809E+02  0.00000000000E+00 0.  1.
         25    2    1    2    0    0 -0.19763880760E+01 -0.10199143486E+02  0.33528516192E+03  0.35801056625E+03  0.12508995604E+03 0.  0.
         23    2    1    2    0    0  0.19763880760E+01  0.10199143486E+02  0.11247380852E+03  0.14450179781E+03  0.90124820834E+02 0.  0.
          5    1    3    3  502    0  0.11843900829E+02  0.21792776196E+02  0.31780612336E+03  0.31879994907E+03  0.41800000000E+01 0. -1.
         -5    1    3    3    0  502 -0.13820288905E+02 -0.31991919683E+02  0.17479038561E+02  0.39210617177E+02  0.41800000000E+01 0. -1.
        -11    1    4    4    0    0 -0.34148962306E+02  0.77425597825E+01  0.10909095844E+02  0.36675703547E+02  0.00000000000E+00 0.  1.
         11    1    4    4    0    0  0.36125350382E+02  0.24565837037E+01  0.10156471267E+03  0.10782609426E+03  0.00000000000E+00 0. -1.
</event>
<event>
 8    1  0.6597859E-009  0.1575926E+03  0.7561462E-02  0.1191442E+00
          1   -1    0    0  501    0  0.00000000000E+00  0.00000000000E+00  0.95327445269E+02  0.95327445269E+02  0.00000000000E+00 0. -1.
         -1   -1    0    0    0  501 -0.00000000000E+00 -0.00000000000E+00 -0.32998767029E+03  0.32998767029E+03  0.00000000000E+00 0.  1.
         25    2    1    2    0    0 -0.10187277163E+02  0.14542351816E+03 -0.98611550361E+02  0.21592351636E+03  0.12508775640E+03 0.  0.
         23    2    1    2    0    0  0.10187277163E+02 -0.14542351816E+03 -0.13604867466E+03  0.20939159920E+03  0.63904770464E+02 0.  0.
          5    1    3    3  502    0 -0.32933402439E+02  0.79565284393E+02  0.10026373791E+02  0.86794262760E+02  0.41800000000E+01 0. -1.
         -5    1    3    3    0  502  0.22746125276E+02  0.65858233771E+02 -0.10863792415E+03  0.12912925360E+03  0.41800000000E+01 0. -1.
        -11    1    4    4    0    0  0.28939469184E+02 -0.28027703050E+02 -0.34206089473E+02  0.52849802005E+02  0.00000000000E+00 0. -1.
         11    1    4    4    0    0 -0.18752192021E+02 -0.11739581511E+03 -0.10184258519E+03  0.15654179720E+03  0.00000000000E+00 0.  1.
</event>
<event>
 7    1  0.6597859E-009  0.1087548E+03  0.7561462E-02  0.1262893E+00
         -3   -1    0    0    0  501 -0.00000000000E+00  0.00000000000E+00  0.11508290562E+03  0.11508290562E+03  0.00000000000E+00 0.  1.
          3   -1    0    0  501    0  0.00000000000E+00 -0.00000000000E+00 -0.13627037813E+03  0.13627037813E+03  0.00000000000E+00 0. -1.
         23    2    1    2    0    0  0.45007174429E+01 -0.63395536278E+02 -0.68248280358E+01  0.11036850503E+03  0.89974319381E+02 0.  0.
          5    1    1    2  502    0 -0.39074539234E+02  0.60987633943E+02  0.34978251246E+02  0.80543538354E+02  0.41800000000E+01 0. -1.
         -5    1    1    2    0  502  0.34573821791E+02  0.24079023347E+01 -0.49340895716E+02  0.60441240366E+02  0.41800000000E+01 0. -1.
        -11    1    3    3    0    0 -0.24952523051E+02  0.13026197971E+02  0.38626340107E+00  0.28150656114E+02  0.00000000000E+00 0.  1.
         11    1    3    3    0    0  0.29453240494E+02 -0.76421734249E+02 -0.72110914369E+01  0.82217848919E+02  0.00000000000E+00 0. -1.
</event>
<event>
 8    1  0.6597859E-009  0.6812186E+02  0.7561462E-02  0.1366599E+00
         -2   -1    0    0    0  501 -0.00000000000E+00  0.00000000000E+00  0.64422596600E+03  0.64422596600E+03  0.00000000000E+00 0.  1.
          2   -1    0    0  501    0  0.00000000000E+00 -0.00000000000E+00 -0.21126685890E+02  0.21126685890E+02  0.00000000000E+00 0. -1.
         25    2    1    2    0    0 -0.88848605403E+01  0.32082792246E+02  0.44538634849E+03  0.46381556150E+03  0.12509048470E+03 0.  0.
         23    2    1    2    0    0  0.88848605403E+01 -0.32082792246E+02  0.17771293162E+03  0.20153709039E+03  0.89034074558E+02 0.  0.
          5    1    3    3  502    0 -0.18089779815E+02  0.15530423418E+01  0.14193269412E+01  0.18685260587E+02  0.41800000000E+01 0.  1.
         -5    1    3    3    0  502  0.92049192742E+01  0.30529749904E+02  0.44396702155E+03  0.44513030091E+03  0.41800000000E+01 0.  1.
        -11    1    4    4    0    0  0.34394530707E+02  0.10370849794E+02  0.33743741125E+02  0.49286695295E+02  0.00000000000E+00 0.  1.
         11    1    4    4    0    0 -0.25509670167E+02 -0.42453642040E+02  0.14396919050E+03  0.15225039509E+03  0.00000000000E+00 0. -1.
</event>
<event>
 8    1  0.6597859E-009  0.8792459E+02  0.7561462E-02  0.1307957E+00
          3   -1    0    0  501    0  0.00000000000E+00  0.00000000000E+00  0.46400648900E+02  0.46400648900E+02  0.00000000000E+00 0. -1.
         -3   -1    0    0    0  501 -0.00000000000E+00 -0.00000000000E+00 -0.35322488157E+03  0.35322488157E+03  0.00000000000E+00 0.  1.
         25    2    1    2    0    0 -0.68098124338E+02  0.78844190093E+01 -0.15522786550E+03  0.21081451650E+03  0.12509017362E+03 0.  0.
         23    2    1    2    0    0  0.68098124338E+02 -0.78844190093E+01 -0.15159636716E+03  0.18881101397E+03  0.89267137610E+02 0.  0.
          5    1    3    3  502    0 -0.59055459709E+02  0.17934981482E+02 -0.73890081826E+01  0.62299925555E+02  0.41800000000E+01 0.  1.
         -5    1    3    3    0  502 -0.90426646286E+01 -0.10050562473E+02 -0.14783885732E+03  0.14851459094E+03  0.41800000000E+01 0.  1.
        -11    1    4    4    0    0  0.23443039206E+02 -0.38935317020E+02 -0.27006576502E+02  0.52866720846E+02  0.00000000000E+00 0. -1.
         11    1    4    4    0    0  0.44655085132E+02  0.31050898011E+02 -0.12458979066E+03  0.13594429312E+03  0.00000000000E+00 0.  1.
</event>
<event>
 8    1  0.6597859E-009  0.1756294E+03  0.7561462E-02  0.1172101E+00
         -2   -1    0    0    0  501 -0.00000000000E+00  0.00000000000E+00  0.90975464165E+02  0.90975464165E+02  0.00000000000E+00 0.  1.
          2   -1    0    0  501    0  0.00000000000E+00 -0.00000000000E+00 -0.36211218206E+03  0.36211218206E+03  0.00000000000E+00 0. -1.
         25    2    1    2    0    0  0.74907108947E+02 -0.12395305363E+03 -0.16047638293E+03  0.24975085979E+03  0.12508952000E+03 0.  0.
         23    2    1    2    0    0 -0.74907108947E+02  0.12395305363E+03 -0.11066033497E+03  0.20333678643E+03  0.90137142766E+02 0.  0.
          5    1    3    3  502    0  0.32832386265E+02 -0.13338578787E+03 -0.81790687034E+02  0.15992786774E+03  0.41800000000E+01 0. -1.
         -5    1    3    3    0  502  0.42074722682E+02  0.94327342364E+01 -0.78685695891E+02  0.89822992056E+02  0.41800000000E+01 0. -1.
        -11    1    4    4    0    0 -0.15240368454E+02  0.10755266768E+03 -0.67475095019E+02  0.12787780731E+03  0.00000000000E+00 0.  1.
         11    1    4    4    0    0 -0.59666740493E+02  0.16400385956E+02 -0.43185239951E+02  0.75458979123E+02  0.00000000000E+00 0. -1.
</event>
<event>
 8    1  0.6597859E-009  0.1135201E+03  0.7561462E-02  0.1254187E+00
          1   -1    0    0  501    0  0.00000000000E+00  0.00000000000E+00  0.32880936160E+03  0.32880936160E+03  0.00000000000E+00 0. -1.
         -1   -1    0    0    0  501 -0.00000000000E+00 -0.00000000000E+00 -0.57023127849E+02  0.57023127849E+02  0.00000000000E+00 0.  1.
         25    2    1    2    0    0  0.39614148586E+02  0.66444232106E+02  0.10345919776E+03  0.17981997359E+03  0.12508917040E+03 0.  0.
         23    2    1    2    0    0 -0.39614148586E+02 -0.66444232106E+02  0.16832703599E+03  0.20601251586E+03  0.90127958464E+02 0.  0.
          5    1    3    3  502    0  0.40495076030E+02 -0.17465083176E+01 -0.14708877914E+02  0.43321183773E+02  0.41800000000E+01 0.  1.
         -5    1    3    3    0  502 -0.88092744465E+00  0.68190740424E+02  0.11816807568E+03  0.13649878982E+03  0.41800000000E+01 0.  1.
        -11    1    4    4    0    0 -0.30185834395E+02  0.16560141552E+02  0.38696847850E+02  0.51796418022E+02  0.00000000000E+00 0.  1.
         11    1    4    4    0    0 -0.94283141905E+01 -0.83004373658E+02  0.12963018814E+03  0.15421609783E+03  0.00000000000E+00 0. -1.
</event>
<event>
 8    1  0.6597859E-009  0.1962349E+03  0.7561462E-02  0.1152955E+00
         -2   -1    0    0    0  501 -0.00000000000E+00  0.00000000000E+00  0.86783190917E+02  0.86783190917E+02  0.00000000000E+00 0.  1.
          2   -1    0    0  501    0  0.00000000000E+00 -0.00000000000E+00 -0.57971554324E+03  0.57971554324E+03  0.00000000000E+00 0. -1.
         25    2    1    2    0    0 -0.12037992950E+03  0.14154836699E+03 -0.34633314541E+03  0.41245816772E+03  0.12509126621E+03 0.  0.
         23    2    1    2    0    0  0.12037992950E+03 -0.14154836699E+03 -0.14659920691E+03  0.25404056644E+03  0.92293089173E+02 0.  0.
          5    1    3    3  502    0 -0.74950071746E+02  0.14114552369E+03 -0.18357880864E+03  0.24343012035E+03  0.41800000000E+01 0.  1.
         -5    1    3    3    0  502 -0.45429857749E+02  0.40284329609E+00 -0.16275433677E+03  0.16902804736E+03  0.41800000000E+01 0.  1.
        -11    1    4    4    0    0  0.62643289081E+02 -0.57637669624E+02 -0.13107691574E+02  0.86128358889E+02  0.00000000000E+00 0.  1.
         11    1    4    4    0    0  0.57736640415E+02 -0.83910697362E+02 -0.13349151534E+03  0.16791220755E+03  0.00000000000E+00 0. -1.
</event>
<event>
 8    1  0.6597859E-009  0.8684647E+02  0.7561462E-02  0.1310673E+00
         -3   -1    0    0    0  501 -0.00000000000E+00  0.00000000000E+00  0.22327010231E+03  0.22327010231E+03  0.00000000000E+00 0.  1.
          3   -1    0    0  501    0  0.00000000000E+00 -0.00000000000E+00 -0.56599712010E+02  0.56599712010E+02  0.00000000000E+00 0. -1.
         25    2    1    2    0    0  0.27996639862E+02  0.10931248283E+02  0.10471943310E+03  0.16584257230E+03  0.12503717482E+03 0.  0.
         23    2    1    2    0    0 -0.27996639862E+02 -0.10931248283E+02  0.61950957202E+02  0.11402724202E+03  0.90889970800E+02 0.  0.
          5    1    3    3  502    0  0.72778964990E+02 -0.14829111151E+02  0.76992437932E+02  0.10706067523E+03  0.41800000000E+01 0.  1.
         -5    1    3    3    0  502 -0.44782325127E+02  0.25760359434E+02  0.27726995168E+02  0.58781897069E+02  0.41800000000E+01 0.  1.
        -11    1    4    4    0    0 -0.19905593277E+02 -0.24563738174E+02  0.82339456941E+02  0.88200884610E+02  0.00000000000E+00 0.  1.
         11    1    4    4    0    0 -0.80910465856E+01  0.13632489891E+02 -0.20388499739E+02  0.25826357410E+02  0.00000000000E+00 0. -1.
</event>
<event>
 8    1  0.6597859E-009  0.9454329E+02  0.7561462E-02  0.1292208E+00
          2   -1    0    0  501    0  0.00000000000E+00  0.00000000000E+00  0.23116615315E+03  0.23116615315E+03  0.00000000000E+00 0. -1.
         -2   -1    0    0    0  501 -0.00000000000E+00 -0.00000000000E+00 -0.59474651571E+02  0.59474651571E+02  0.00000000000E+00 0.  1.
         25    2    1    2    0    0  0.46984958275E+02  0.21793796678E+01  0.77933413968E+02  0.15470281172E+03  0.12508799679E+03 0.  0.
         23    2    1    2    0    0 -0.46984958275E+02 -0.21793796678E+01  0.93758087605E+02  0.13593799300E+03  0.86465154535E+02 0.  0.
          5    1    3    3  502    0 -0.42533261181E+02  0.51163512303E+01  0.16922830613E+02  0.46250512998E+02  0.41800000000E+01 0. -1.
         -5    1    3    3    0  502  0.89518219456E+02 -0.29369715625E+01  0.61010583356E+02  0.10845229872E+03  0.41800000000E+01 0. -1.
        -11    1    4    4    0    0 -0.23575830345E+02 -0.16646618478E+02 -0.84644045873E+01  0.30076167114E+02  0.00000000000E+00 0.  1.
         11    1    4    4    0    0 -0.23409127930E+02  0.14467238810E+02  0.10222249219E+03  0.10586182588E+03  0.00000000000E+00 0. -1.
</event>
<event>
 8    1  0.6597859E-009  0.2008753E+03  0.7561462E-02  0.1149003E+00
          2   -1    0    0  501    0  0.00000000000E+00  0.00000000000E+00  0.54740637815E+03  0.54740637815E+03  0.00000000000E+00 0. -1.
         -2   -1    0    0    0  501 -0.00000000000E+00 -0.00000000000E+00 -0.78432421548E+02  0.78432421548E+02  0.00000000000E+00 0.  1.
         25    2    1    2    0    0 -0.10339691720E+03  0.14259438044E+03  0.23847856560E+03  0.32178397449E+03  0.12509524438E+03 0.  0.
         23    2    1    2    0    0  0.10339691720E+03 -0.14259438044E+03  0.23049539100E+03  0.30405482521E+03  0.91088592260E+02 0.  0.
          5    1    3    3  502    0 -0.13101285663E+03  0.12926561123E+03  0.21425652253E+03  0.28248415300E+03  0.41800000000E+01 0. -1.
         -5    1    3    3    0  502  0.27615939423E+02  0.13328769208E+02  0.24222043073E+02  0.39299821494E+02  0.41800000000E+01 0. -1.
        -11    1    4    4    0    0  0.30255970630E+02 -0.94361868072E+02  0.17265622691E+03  0.19907224467E+03  0.00000000000E+00 0. -1.
         11    1    4    4    0    0  0.73140946572E+02 -0.48232512369E+02  0.57839164087E+02  0.10498258054E+03  0.00000000000E+00 0.  1.
</event>
<event>
 8    1  0.6597859E-009  0.1081606E+03  0.7561462E-02  0.1264015E+00
          2   -1    0    0  501    0  0.00000000000E+00  0.00000000000E+00  0.23165502371E+03  0.23165502371E+03  0.00000000000E+00 0. -1.
         -2   -1    0    0    0  501 -0.00000000000E+00 -0.00000000000E+00 -0.63253057535E+02  0.63253057535E+02  0.00000000000E+00 0.  1.
         25    2    1    2    0    0  0.37793270232E+02 -0.26365995913E+02  0.82420228710E+02  0.15673098060E+03  0.12509200280E+03 0.  0.
         23    2    1    2    0    0 -0.37793270232E+02  0.26365995913E+02  0.85981737471E+02  0.13817710065E+03  0.97859874054E+02 0.  0.
          5    1    3    3  502    0  0.41124857154E+02 -0.71347290599E+02  0.73717365325E+02  0.11060475624E+03  0.41800000000E+01 0.  1.
         -5    1    3    3    0  502 -0.33315869213E+01  0.44981294686E+02  0.87028633845E+01  0.46126224364E+02  0.41800000000E+01 0.  1.
        -11    1    4    4    0    0 -0.39039823648E+02 -0.18836600503E+02  0.27243907669E+01  0.43432103956E+02  0.00000000000E+00 0.  1.
         11    1    4    4    0    0  0.12465534161E+01  0.45202596416E+02  0.83257346704E+02  0.94744996693E+02  0.00000000000E+00 0. -1.
</event>
<event>
 8    1  0.6597859E-009  0.1270599E+03  0.7561462E-02  0.1231885E+00
          1   -1    0    0  501    0  0.00000000000E+00  0.00000000000E+00  0.27730213125E+03  0.27730213125E+03  0.00000000000E+00 0. -1.
         -1   -1    0    0    0  501 -0.00000000000E+00 -0.00000000000E+00 -0.97003478450E+02  0.97003478450E+02  0.00000000000E+00 0.  1.
         25    2    1    2    0    0 -0.11110919319E+03  0.20355836539E+02  0.47131424049E+02  0.17500984796E+03  0.12508981917E+03 0.  0.
         23    2    1    2    0    0  0.11110919319E+03 -0.20355836539E+02  0.13316722875E+03  0.19929576173E+03  0.96050387504E+02 0.  0.
          5    1    3    3  502    0 -0.17877126074E+02  0.32163933252E+02 -0.34383891450E+02  0.50535478925E+02  0.41800000000E+01 0.  1.
         -5    1    3    3    0  502 -0.93232067117E+02 -0.11808096713E+02  0.81515315499E+02  0.12447436904E+03  0.41800000000E+01 0.  1.
        -11    1    4    4    0    0  0.60593506916E+02  0.13660238138E+02  0.11405021340E+02  0.63152590590E+02  0.00000000000E+00 0.  1.
         11    1    4    4    0    0  0.50515686275E+02 -0.34016074677E+02  0.12176220741E+03  0.13614317114E+03  0.00000000000E+00 0. -1.
</event>
<event>
 8    1  0.6597859E-009  0.9200873E+02  0.7561462E-02  0.1298059E+00
         -1   -1    0    0    0  501 -0.00000000000E+00  0.00000000000E+00  0.71520235441E+02  0.71520235441E+02  0.00000000000E+00 0.  1.
          1   -1    0    0  501    0  0.00000000000E+00 -0.00000000000E+00 -0.28555348162E+03  0.28555348162E+03  0.00000000000E+00 0. -1.
         25    2    1    2    0    0  0.18985432498E+02  0.84981070679E+01 -0.35942129038E+01  0.12685886367E+03  0.12509032118E+03 0.  0.
         23    2    1    2    0    0 -0.18985432498E+02 -0.84981070679E+01 -0.21043903328E+03  0.23021485340E+03  0.91003447882E+02 0.  0.
          5    1    3    3  502    0 -0.15098522736E+02  0.57638775907E+02 -0.22760729766E+02  0.63919614332E+02  0.41800000000E+01 0.  1.
         -5    1    3    3    0  502  0.34083955234E+02 -0.49140668839E+02  0.19166516862E+02  0.62939249336E+02  0.41800000000E+01 0.  1.
        -11    1    4    4    0    0 -0.24371034299E+02  0.22323040631E+02 -0.23199672414E+02  0.40379329563E+02  0.00000000000E+00 0.  1.
         11    1    4    4    0    0  0.53856018016E+01 -0.30821147699E+02 -0.18723936087E+03  0.18983552384E+03  0.00000000000E+00 0. -1.
</event>
<event>
 8    1  0.6597859E-009  0.1027380E+03  0.7561462E-02  0.1274642E+00
          3   -1    0    0  501    0  0.00000000000E+00  0.00000000000E+00  0.39800589790E+02  0.39800589790E+02  0.00000000000E+00 0. -1.
         -3   -1    0    0    0  501 -0.00000000000E+00 -0.00000000000E+00 -0.53603687791E+03  0.53603687791E+03  0.00000000000E+00 0.  1.
         25    2    1    2    0    0  0.24702091331E+02  0.77178687929E+02 -0.37549327259E+03  0.40399481646E+03  0.12509944357E+03 0.  0.
         23    2    1    2    0    0 -0.24702091331E+02 -0.77178687929E+02 -0.12074301554E+03  0.17184265124E+03  0.91565702090E+02 0.  0.
          5    1    3    3  502    0 -0.11260777667E+02  0.62370143811E+02 -0.64402244340E+02  0.90454195197E+02  0.41800000000E+01 0.  1.
         -5    1    3    3    0  502  0.35962868998E+02  0.14808544118E+02 -0.31109102825E+03  0.31354062126E+03  0.41800000000E+01 0.  1.
        -11    1    4    4    0    0  0.12381863134E+02  0.44728456218E+01  0.76541790754E+01  0.15228372859E+02  0.00000000000E+00 0. -1.
         11    1    4    4    0    0 -0.37083954464E+02 -0.81651533551E+02 -0.12839719461E+03  0.15661427838E+03  0.00000000000E+00 0.  1.
</event>
<event>
 8    1  0.6597859E-009  0.9154058E+02  0.7561462E-02  0.1299163E+00
          1   -1    0    0  501    0  0.00000000000E+00  0.00000000000E+00  0.13551995572E+03  0.13551995572E+03  0.00000000000E+00 0. -1.
         -1   -1    0    0    0  501 -0.00000000000E+00 -0.00000000000E+00 -0.13465291126E+03  0.13465291126E+03  0.00000000000E+00 0.  1.
         25    2    1    2    0    0 -0.28534470827E+02 -0.15523591439E+02  0.73593594056E+02  0.14871843780E+03  0.12508380686E+03 0.  0.
         23    2    1    2    0    0  0.28534470827E+02  0.15523591439E+02 -0.72726549595E+02  0.12145442917E+03  0.91688763944E+02 0.  0.
          5    1    3    3  502    0 -0.24990913306E+02  0.30439095244E+02  0.91016304877E+02  0.99259883239E+02  0.41800000000E+01 0. -1.
         -5    1    3    3    0  502 -0.35435575209E+01 -0.45962686683E+02 -0.17422710821E+02  0.49458554562E+02  0.41800000000E+01 0. -1.
        -11    1    4    4    0    0  0.39723529653E+02  0.48310211774E+02 -0.44353013725E+02  0.76674801572E+02  0.00000000000E+00 0.  1.
         11    1    4    4    0    0 -0.11189058826E+02 -0.32786620335E+02 -0.28373535870E+02  0.44779627602E+02  0.00000000000E+00 0. -1.
</event>
<event>
 7    1  0.6597859E-009  0.1057467E+03  0.7561462E-02  0.1268655E+00
          1   -1    0    0  501    0  0.00000000000E+00  0.00000000000E+00  0.50105815341E+03  0.50105815341E+03  0.00000000000E+00 0. -1.
         -1   -1    0    0    0  501 -0.00000000000E+00 -0.00000000000E+00 -0.25065298645E+02  0.25065298645E+02  0.00000000000E+00 0.  1.
         23    2    1    2    0    0 -0.23300852371E+02 -0.19976906762E+02  0.17695704222E+03  0.20058767762E+03  0.89328691336E+02 0.  0.
          5    1    1    2  502    0 -0.21487455116E+01  0.64991498520E+02  0.96348360822E+02  0.11631419097E+03  0.41800000000E+01 0. -1.
         -5    1    1    2    0  502  0.25449597882E+02 -0.45014591758E+02  0.20268745173E+03  0.20922158348E+03  0.41800000000E+01 0. -1.
        -11    1    3    3    0    0 -0.84697438558E+01  0.35773941907E+02  0.69440880609E+02  0.78571924886E+02  0.00000000000E+00 0.  1.
         11    1    3    3    0    0 -0.14831108515E+02 -0.55750848669E+02  0.10751616161E+03  0.12201575273E+03  0.00000000000E+00 0. -1.
</event>
<event>
 8    1  0.6597859E-009  0.1090742E+03  0.7561462E-02  0.1262294E+00
         -2   -1    0    0    0  501 -0.00000000000E+00  0.00000000000E+00  0.10366531168E+02  0.10366531168E+02  0.00000000000E+00 0.  1.
          2   -1    0    0  501    0  0.00000000000E+00 -0.00000000000E+00 -0.14131761370E+04  0.14131761370E+04  0.00000000000E+00 0. -1.
         25    2    1    2    0    0 -0.35272418377E+02 -0.23465307202E+02 -0.99450188108E+03  0.10032322470E+04  0.12508471478E+03 0.  0.
         23    2    1    2    0    0  0.35272418377E+02  0.23465307202E+02 -0.40830772476E+03  0.42031042114E+03  0.90282267823E+02 0.  0.
          5    1    3    3  502    0 -0.56314226159E+01 -0.73116831576E+02 -0.50645555953E+03  0.51175432598E+03  0.41800000000E+01 0.  1.
         -5    1    3    3    0  502 -0.29640995762E+02  0.49651524375E+02 -0.48804632155E+03  0.49147792105E+03  0.41800000000E+01 0.  1.
        -11    1    4    4    0    0 -0.10923789009E+02 -0.20319620756E+02 -0.37117577680E+02  0.43702754224E+02  0.00000000000E+00 0.  1.
         11    1    4    4    0    0  0.46196207387E+02  0.43784927957E+02 -0.37119014708E+03  0.37660766692E+03  0.00000000000E+00 0. -1.
</event>
<event>
 8    1  0.6597859E-009  0.1248887E+03  0.7561462E-02  0.1235243E+00
          2   -1    0    0  501    0  0.00000000000E+00  0.00000000000E+00  0.46091902396E+03  0.46091902396E+03  0.00000000000E+00 0. -1.
         -2   -1    0    0    0  501 -0.00000000000E+00 -0.00000000000E+00 -0.36479803766E+02  0.36479803766E+02  0.00000000000E+00 0.  1.
         25    2    1    2    0    0  0.23239966856E+02  0.69458507859E+02  0.20229572228E+03  0.24886735230E+03  0.12508724722E+03 0.  0.
         23    2    1    2    0    0 -0.23239966856E+02 -0.69458507859E+02  0.22214349791E+03  0.24853147542E+03  0.83997501373E+02 0.  0.
          5    1    3    3  502    0  0.22769027942E+02  0.10447463288E+03  0.12960151753E+03  0.16806963823E+03  0.41800000000E+01 0.  1.
         -5    1    3    3    0  502  0.47093891405E+00 -0.35016125022E+02  0.72694204749E+02  0.80797714071E+02  0.41800000000E+01 0.  1.
        -11    1    4    4    0    0 -0.79716283645E-02 -0.81385994707E+02  0.13575184120E+03  0.15827900236E+03  0.00000000000E+00 0. -1.
         11    1    4    4    0    0 -0.23231995227E+02  0.11927486848E+02  0.86391656709E+02  0.90252473061E+02  0.00000000000E+00 0.  1.
</event>
<event>
 8    1  0.6597859E-009  0.1022093E+03  0.7561462E-02  0.1275717E+00
          1   -1    0    0  501    0  0.00000000000E+00  0.00000000000E+00  0.16109049085E+03  0.16109049085E+03  0.00000000000E+00 0. -1.
         -1   -1    0    0    0  501 -0.00000000000E+00 -0.00000000000E+00 -0.91966710140E+02  0.91966710140E+02  0.00000000000E+00 0.  1.
         25    2    1    2    0    0  0.28076313763E+02 -0.19400639645E+02 -0.91312546402E+01  0.12998422522E+03  0.12509138573E+03 0.  0.
         23    2    1    2    0    0 -0.28076313763E+02  0.19400639645E+02  0.78255035354E+02  0.12307297577E+03  0.88647857240E+02 0.  0.
          5    1    3    3  502    0  0.43662914848E+02  0.39535680128E+02  0.19925422793E+02  0.62321866225E+02  0.41800000000E+01 0. -1.
         -5    1    3    3    0  502 -0.15586601085E+02 -0.58936319774E+02 -0.29056677434E+02  0.67662358999E+02  0.41800000000E+01 0. -1.
        -11    1    4    4    0    0 -0.36980953131E+02 -0.21247418246E+02  0.67913306881E+02  0.80195142796E+02  0.00000000000E+00 0. -1.
         11    1    4    4    0    0  0.89046393685E+01  0.40648057891E+02  0.10341728473E+02  0.42877832973E+02  0.00000000000E+00 0.  1.
</event>
<event>
 8    1  0.6597859E-009  0.8609311E+02  0.7561462E-02  0.1312598E+00
         -3   -1    0    0    0  501 -0.00000000000E+00  0.00000000000E+00  0.54237656489E+02  0.54237656489E+02  0.00000000000E+00 0.  1.
          3   -1    0    0  501    0  0.00000000000E+00 -0.00000000000E+00 -0.28181382059E+03  0.28181382059E+03  0.00000000000E+00 0. -1.
         25    2    1    2    0    0 -0.30370527599E+02  0.16909877064E+02 -0.62238080654E+02  0.14397647854E+03  0.12508930730E+03 0.  0.
         23    2    1    2    0    0  0.30370527599E+02 -0.16909877064E+02 -0.16533808345E+03  0.19207499855E+03  0.91366352329E+02 0.  0.
          5    1    3    3  502    0 -0.28822588312E+02  0.42519472940E+02  0.21838170486E+02  0.55973433576E+02  0.41800000000E+01 0.  1.
         -5    1    3    3    0  502 -0.15479392863E+01 -0.25609595875E+02 -0.84076251140E+02  0.88003044962E+02  0.41800000000E+01 0.  1.
        -11    1    4    4    0    0  0.16065911334E+02 -0.53238914652E+02 -0.72582553914E+02  0.91436987445E+02  0.00000000000E+00 0. -1.
         11    1    4    4    0    0  0.14304616264E+02  0.36329037588E+02 -0.92755529537E+02  0.10063801110E+03  0.00000000000E+00 0.  1.
</event>
<event>
 8    1  0.6597859E-009  0.7258232E+02  0.7561462E-02  0.1351526E+00
         -1   -1    0    0    0  501 -0.00000000000E+00  0.00000000000E+00  0.36282205051E+03  0.36282205051E+03  0.00000000000E+00 0.  1.
          1   -1    0    0  501    0  0.00000000000E+00 -0.00000000000E+00 -0.37562345111E+02  0.37562345111E+02  0.00000000000E+00 0. -1.
         25    2    1    2    0    0 -0.24296339829E+01  0.24391883881E+02  0.13194039665E+03  0.18345898569E+03  0.12509222215E+03 0.  0.
         23    2    1    2    0    0  0.24296339829E+01 -0.24391883881E+02  0.19331930874E+03  0.21692540993E+03  0.95306931640E+02 0.  0.
          5    1    3    3  502    0  0.11949087828E+02  0.35055251036E+02 -0.11376024306E+02  0.38968418676E+02  0.41800000000E+01 0. -1.
         -5    1    3    3    0  502 -0.14378721811E+02 -0.10663367155E+02  0.14331642096E+03  0.14449056701E+03  0.41800000000E+01 0. -1.
        -11    1    4    4    0    0 -0.41589912381E+01  0.32234899800E+02  0.11841384205E+03  0.12279341987E+03  0.00000000000E+00 0.  1.
         11    1    4    4    0    0  0.65886252210E+01 -0.56626783681E+02  0.74905466690E+02  0.94131990059E+02  0.00000000000E+00 0. -1.
</event>
<event>
 8    1  0.6597859E-009  0.1603360E+03  0.7561462E-02  0.1188318E+00
          2   -1    0    0  501    0  0.00000000000E+00  0.00000000000E+00  0.16529541436E+03  0.16529541436E+03  0.00000000000E+00 0. -1.
         -2   -1    0    0    0  501 -0.00000000000E+00 -0.00000000000E+00 -0.27385494952E+03  0.27385494952E+03  0.00000000000E+00 0.  1.
         25    2    1    2    0    0  0.15459764256E+03 -0.24611036145E+02 -0.15324031979E+03  0.25226330693E+03  0.12509215095E+03 0.  0.
         23    2    1    2    0    0 -0.15459764256E+03  0.24611036145E+02  0.44680784638E+02  0.18688705695E+03  0.91783796795E+02 0.  0.
          5    1    3    3  502    0  0.31029059574E+02 -0.19161373150E+02  0.18079302247E+02  0.40918141805E+02  0.41800000000E+01 0. -1.
         -5    1    3    3    0  502  0.12356858298E+03 -0.54496629954E+01 -0.17131962204E+03  0.21134516513E+03  0.41800000000E+01 0. -1.
        -11    1    4    4    0    0 -0.10563807310E+03  0.32696888887E+02  0.70304621711E+02  0.13103903565E+03  0.00000000000E+00 0. -1.
         11    1    4    4    0    0 -0.48959569455E+02 -0.80858527421E+01 -0.25623837073E+02  0.55848021291E+02  0.00000000000E+00 0.  1.
</event>
<event>
 8    1  0.6597859E-009  0.1285854E+03  0.7561462E-02  0.1229570E+00
          3   -1    0    0  501    0  0.00000000000E+00  0.00000000000E+00  0.48076772139E+03  0.48076772139E+03  0.00000000000E+00 0. -1.
         -3   -1    0    0    0  501 -0.00000000000E+00 -0.00000000000E+00 -0.46548481751E+02  0.46548481751E+02  0.00000000000E+00 0.  1.
         25    2    1    2    0    0 -0.96256704692E+02 -0.29714472840E+02  0.26511371899E+03  0.30997032640E+03  0.12509203074E+03 0.  0.
         23    2    1    2    0    0  0.96256704692E+02  0.29714472840E+02  0.16910552065E+03  0.21734587675E+03  0.92164255164E+02 0.  0.
          5    1    3    3  502    0 -0.57589061394E+02  0.19063650818E+02  0.32118573710E+02  0.68767710096E+02  0.41800000000E+01 0.  1.
         -5    1    3    3    0  502 -0.38667643298E+02 -0.48778123659E+02  0.23299514528E+03  0.24120261630E+03  0.41800000000E+01 0.  1.
        -11    1    4    4    0    0 -0.97837445504E+01  0.26103809774E+02  0.54181719208E+02  0.60932661508E+02  0.00000000000E+00 0. -1.
         11    1    4    4    0    0  0.10604044924E+03  0.36106630668E+01  0.11492380144E+03  0.15641321524E+03  0.00000000000E+00 0.  1.
</event>
<event>
 8    1  0.6597859E-009  0.1222468E+03  0.7561462E-02  0.1239436E+00
         -1   -1    0    0    0  501 -0.00000000000E+00  0.00000000000E+00  0.35792607973E+03  0.35792607973E+03  0.00000000000E+00 0.  1.
          1   -1    0    0  501    0  0.00000000000E+00 -0.00000000000E+00 -0.50990729573E+02  0.50990729573E+02  0.00000000000E+00 0. -1.
         25    2    1    2    0    0 -0.39884496329E+02  0.47924473164E+02  0.11169632400E+03  0.17891612912E+03  0.12508950511E+03 0.  0.
         23    2    1    2    0    0  0.39884496329E+02 -0.47924473164E+02  0.19523902616E+03  0.23000068019E+03  0.10437675687E+03 0.  0.
          5    1    3    3  502    0 -0.24696726825E+01 -0.41211699223E+02  0.21958360842E+02  0.46948327413E+02  0.41800000000E+01 0. -1.
         -5    1    3    3    0  502 -0.37414823646E+02  0.89136172387E+02  0.89737963156E+02  0.13196780171E+03  0.41800000000E+01 0. -1.
        -11    1    4    4    0    0 -0.16632975985E+02 -0.46843140547E+02  0.14867274781E+03  0.15676262835E+03  0.00000000000E+00 0.  1.
         11    1    4    4    0    0  0.56517472314E+02 -0.10813326168E+01  0.46566278356E+02  0.73238051838E+02  0.00000000000E+00 0. -1.
</event>
<event>
 8    1  0.6597859E-009  0.1129913E+03  0.7561462E-02  0.1255129E+00
          2   -1    0    0  501    0  0.00000000000E+00  0.00000000000E+00  0.24885158426E+03  0.24885158426E+03  0.00000000000E+00 0. -1.
         -2   -1    0    0    0  501 -0.00000000000E+00 -0.00000000000E+00 -0.58821530218E+02  0.58821530218E+02  0.00000000000E+00 0.  1.
         25    2    1    2    0    0  0.34470195440E+02  0.34535604865E+02  0.82200113734E+02  0.15743442410E+03  0.12509131391E+03 0.  0.
         23    2    1    2    0    0 -0.34470195440E+02 -0.34535604865E+02  0.10782994031E+03  0.15023869038E+03  0.92538995473E+02 0.  0.
          5    1    3    3  502    0 -0.59981124101E+01 -0.38497267529E+02  0.58729930586E+02  0.70602366152E+02  0.41800000000E+01 0.  1.
         -5    1    3    3    0  502  0.40468307850E+02  0.73032872394E+02  0.23470183148E+02  0.86832057947E+02  0.41800000000E+01 0.  1.
        -11    1    4    4    0    0  0.28455454698E+02  0.49872107455E+01  0.19720765614E+02  0.34978475803E+02  0.00000000000E+00 0.  1.
         11    1    4    4    0    0 -0.62925650138E+02 -0.39522815610E+02  0.88109174695E+02  0.11526021458E+03  0.00000000000E+00 0. -1.
</event>
<event>
 8    1  0.6597859E-009  0.9046941E+02  0.7561462E-02  0.1301719E+00
          1   -1    0    0  501    0  0.00000000000E+00  0.00000000000E+00  0.23960280980E+02  0.23960280980E+02  0.00000000000E+00 0. -1.
         -1   -1    0    0    0  501 -0.00000000000E+00 -0.00000000000E+00 -0.49290495156E+03  0.49290495156E+03  0.00000000000E+00 0.  1.
         25    2    1    2    0    0  0.35347102340E+01  0.43083412386E+01 -0.25673455049E+03  0.28564439355E+03  0.12509609973E+03 0.  0.
         23    2    1    2    0    0 -0.35347102340E+01 -0.43083412386E+01 -0.21221012009E+03  0.23122083900E+03  0.91645432715E+02 0.  0.
          5    1    3    3  502    0 -0.40418104958E+02  0.30250972012E+02 -0.21096729322E+03  0.21696408856E+03  0.41800000000E+01 0.  1.
         -5    1    3    3    0  502  0.43952815192E+02 -0.25942630773E+02 -0.45767257277E+02  0.68680304989E+02  0.41800000000E+01 0.  1.
        -11    1    4    4    0    0  0.33320200553E+02 -0.20169320946E+02 -0.16369001664E+03  0.16826009277E+03  0.00000000000E+00 0.  1.
         11    1    4    4    0    0 -0.36854910787E+02  0.15860979707E+02 -0.48520103450E+02  0.62960746225E+02  0.00000000000E+00 0. -1.
</event>
<event>
 8    1  0.6597859E-009  0.1451617E+03  0.7561462E-02  0.1206548E+00
         -2   -1    0    0    0  501 -0.00000000000E+00  0.00000000000E+00  0.34855003964E+02  0.34855003964E+02  0.00000000000E+00 0.  1.
          2   -1    0    0  501    0  0.00000000000E+00 -0.00000000000E+00 -0.64343436628E+03  0.64343436628E+03  0.00000000000E+00 0. -1.
         25    2    1    2    0    0 -0.98903459378E+02 -0.26644461856E+02 -0.36221082394E+03  0.39667344208E+03  0.12514518389E+03 0.  0.
         23    2    1    2    0    0  0.98903459378E+02  0.26644461856E+02 -0.24636853838E+03  0.28161592816E+03  0.90101346648E+02 0.  0.
          5    1    3    3  502    0 -0.70657204309E+01  0.43968154436E+02 -0.12235540044E+03  0.13027447726E+03  0.41800000000E+01 0.  1.
         -5    1    3    3    0  502 -0.91837738947E+02 -0.70612616291E+02 -0.23985542350E+03  0.26639896482E+03  0.41800000000E+01 0.  1.
        -11    1    4    4    0    0 -0.12836333017E+01  0.29420421523E+02 -0.99815135601E+02  0.10406858417E+03  0.00000000000E+00 0. -1.
         11    1    4    4    0    0  0.10018709268E+03 -0.27759596673E+01 -0.14655340278E+03  0.17754734399E+03  0.00000000000E+00 0.  1.
</event>
<event>
 8    1  0.6597859E-009  0.1079438E+03  0.7561462E-02  0.1264426E+00
         -1   -1    0    0    0  501 -0.00000000000E+00  0.00000000000E+00  0.89186447917E+02  0.89186447917E+02  0.00000000000E+00 0.  1.
          1   -1    0    0  501    0  0.00000000000E+00 -0.00000000000E+00 -0.26390666092E+03  0.26390666092E+03  0.00000000000E+00 0. -1.
         25    2    1    2    0    0 -0.19190200833E+02 -0.48686953999E+02  0.14386502040E+02  0.13635663518E+03  0.12508987657E+03 0.  0.
         23    2    1    2    0    0  0.19190200833E+02  0.48686953999E+02 -0.18910671504E+03  0.21673647365E+03  0.92057949354E+02 0.  0.
          5    1    3    3  502    0  0.42205347412E+01  0.32855218140E+02 -0.25988147914E+02  0.42309981145E+02  0.41800000000E+01 0. -1.
         -5    1    3    3    0  502 -0.23410735574E+02 -0.81542172138E+02  0.40374649954E+02  0.94046654040E+02  0.41800000000E+01 0. -1.
        -11    1    4    4    0    0  0.19424321731E+02  0.71833197712E+02 -0.17359630256E+03  0.18887294361E+03  0.00000000000E+00 0. -1.
         11    1    4    4    0    0 -0.23412089770E+00 -0.23146243713E+02 -0.15510412484E+02  0.27863530036E+02  0.00000000000E+00 0.  1.
</event>
<event>
 8    1  0.6597859E-009  0.3829640E+03  0.7561462E-02  0.1049844E+00
         -2   -1    0    0    0  501 -0.00000000000E+00  0.00000000000E+00  0.17348345415E+03  0.17348345415E+03  0.00000000000E+00 0. -1.
          2   -1    0    0  501    0  0.00000000000E+00 -0.00000000000E+00 -0.11037809378E+04  0.11037809378E+04  0.00000000000E+00 0.  1.
         25    2    1    2    0    0 -0.90737198214E+02 -0.36153180626E+03 -0.76277838652E+03  0.85814639311E+03  0.12508348809E+03 0.  0.
         23    2    1    2    0    0  0.90737198214E+02  0.36153180626E+03 -0.16751909718E+03  0.41911799888E+03  0.93052474401E+02 0.  0.
          5    1    3    3  502    0 -0.99236685466E+02 -0.15985466775E+03 -0.31468944185E+03  0.36667199478E+03  0.41800000000E+01 0.  1.
         -5    1    3    3    0  502  0.84994872516E+01 -0.20167713850E+03 -0.44808894467E+03  0.49147439833E+03  0.41800000000E+01 0.  1.
        -11    1    4    4    0    0  0.56697312265E+02  0.13023693725E+03 -0.21985442832E+02  0.14373449391E+03  0.00000000000E+00 0. -1.
         11    1    4    4    0    0  0.34039885949E+02  0.23129486900E+03 -0.14553365435E+03  0.27538350497E+03  0.00000000000E+00 0.  1.
</event>
<event>
 8    1  0.6597859E-009  0.9870173E+02  0.7561462E-02  0.1283050E+00
         -2   -1    0    0    0  501 -0.00000000000E+00  0.00000000000E+00  0.43260005816E+02  0.43260005816E+02  0.00000000000E+00 0. -1.
          2   -1    0    0  501    0  0.00000000000E+00 -0.00000000000E+00 -0.37576510976E+03  0.37576510976E+03  0.00000000000E+00 0.  1.
         25    2    1    2    0    0 -0.56449991311E+01 -0.67812921096E+02 -0.18272372492E+03  0.23166136709E+03  0.12509424876E+03 0.  0.
         23    2    1    2    0    0  0.56449991311E+01  0.67812921096E+02 -0.14978137902E+03  0.18736374848E+03  0.89667466011E+02 0.  0.
          5    1    3    3  502    0  0.17071164753E+02 -0.60878445820E+02 -0.19468837902E+03  0.20474043850E+03  0.41800000000E+01 0.  1.
         -5    1    3    3    0  502 -0.22716163884E+02 -0.69344752753E+01  0.11964654095E+02  0.26920928598E+02  0.41800000000E+01 0.  1.
        -11    1    4    4    0    0 -0.16175021470E+02  0.82206665784E+02 -0.12967126011E+03  0.15438329870E+03  0.00000000000E+00 0.  1.
         11    1    4    4    0    0  0.21820020601E+02 -0.14393744689E+02 -0.20110118912E+02  0.32980449782E+02  0.00000000000E+00 0. -1.
</event>
<event>
 8    1  0.6597859E-009  0.1382565E+03  0.7561462E-02  0.1215694E+00
          2   -1    0    0  501    0  0.00000000000E+00  0.00000000000E+00  0.38066650422E+03  0.38066650422E+03  0.00000000000E+00 0.  1.
         -2   -1    0    0    0  501 -0.00000000000E+00 -0.00000000000E+00 -0.90311595967E+02  0.90311595967E+02  0.00000000000E+00 0. -1.
         25    2    1    2    0    0  0.33787667700E+02 -0.98501143076E+02  0.15336908662E+02  0.16348505447E+03  0.12509220835E+03 0.  0.
         23    2    1    2    0    0 -0.33787667700E+02  0.98501143076E+02  0.27501799959E+03  0.30749304572E+03  0.89849826884E+02 0.  0.
          5    1    3    3  502    0  0.33236735401E+02 -0.12491347404E+03  0.30311267799E+02  0.13283185586E+03  0.41800000000E+01 0. -1.
         -5    1    3    3    0  502  0.55093229938E+00  0.26412330961E+02 -0.14974359137E+02  0.30653198606E+02  0.41800000000E+01 0. -1.
        -11    1    4    4    0    0 -0.35532056864E+02  0.17840184003E+02  0.30800426781E+02  0.50293792064E+02  0.00000000000E+00 0. -1.
         11    1    4    4    0    0  0.17443891639E+01  0.80660959073E+02  0.24421757281E+03  0.25719925365E+03  0.00000000000E+00 0.  1.
</event>
<event>
 8    1  0.6597859E-009  0.1714839E+03  0.7561462E-02  0.1176309E+00
         -1   -1    0    0    0  501 -0.00000000000E+00  0.00000000000E+00  0.28847332787E+03  0.28847332787E+03  0.00000000000E+00 0.  1.
          1   -1    0    0  501    0  0.00000000000E+00 -0.00000000000E+00 -0.11970541363E+03  0.11970541363E+03  0.00000000000E+00 0. -1.
         25    2    1    2    0    0  0.90244881096E+02  0.11646491250E+03  0.11072922000E+03  0.22275361727E+03  0.12509995778E+03 0.  0.
         23    2    1    2    0    0 -0.90244881096E+02 -0.11646491250E+03  0.58038694243E+02  0.18542512423E+03  0.96466430732E+02 0.  0.
          5    1    3    3  502    0  0.50662180079E+02  0.13622007052E+03  0.10163456766E+03  0.17739679210E+03  0.41800000000E+01 0. -1.
         -5    1    3    3    0  502  0.39582701017E+02 -0.19755158021E+02  0.90946523370E+01  0.45356825168E+02  0.41800000000E+01 0. -1.
        -11    1    4    4    0    0 -0.32195870983E+02 -0.13451559880E+02 -0.23255316446E+02  0.41932425575E+02  0.00000000000E+00 0. -1.
         11    1    4    4    0    0 -0.58049010113E+02 -0.10301335262E+03  0.81294010689E+02  0.14349269866E+03  0.00000000000E+00 0.  1.
</event>
<event>
 8    1  0.6597859E-009  0.5186783E+02  0.7561462E-02  0.1435520E+00
          2   -1    0    0  501    0  0.00000000000E+00  0.00000000000E+00  0.10722094858E+04  0.10722094858E+04  0.00000000000E+00 0.  1.
         -2   -1    0    0    0  501 -0.00000000000E+00 -0.00000000000E+00 -0.17154023634E+02  0.17154023634E+02  0.00000000000E+00 0. -1.
         25    2    1    2    0    0  0.11142797664E+02 -0.26859260011E+02  0.88659913116E+03  0.89585234080E+03  0.12509122816E+03 0.  0.
         23    2    1    2    0    0 -0.11142797664E+02  0.26859260011E+02  0.16845633099E+03  0.19351116861E+03  0.90683268243E+02 0.  0.
          5    1    3    3  502    0  0.78297509635E+01 -0.31004849307E+02  0.88830074820E+03  0.88888598669E+03  0.41800000000E+01 0. -1.
         -5    1    3    3    0  502  0.33130467007E+01  0.41455892962E+01 -0.17016170424E+01  0.69663541119E+01  0.41800000000E+01 0. -1.
        -11    1    4    4    0    0 -0.20605277595E+02 -0.12599823672E+02  0.44490160878E+01  0.24558639324E+02  0.00000000000E+00 0. -1.
         11    1    4    4    0    0  0.94624799304E+01  0.39459083683E+02  0.16400731490E+03  0.16895252929E+03  0.00000000000E+00 0.  1.
</event>
<event>
 8    1  0.6597859E-009  0.1179120E+03  0.7561462E-02  0.1246582E+00
          1   -1    0    0  501    0  0.00000000000E+00  0.00000000000E+00  0.48604528789E+03  0.48604528789E+03  0.00000000000E+00 0. -1.
         -1   -1    0    0    0  501 -0.00000000000E+00 -0.00000000000E+00 -0.31936634162E+02  0.31936634162E+02  0.00000000000E+00 0.  1.
         25    2    1    2    0    0  0.33506294628E+02  0.40088112548E+02  0.22381718257E+03  0.26167093194E+03  0.12509123416E+03 0.  0.
         23    2    1    2    0    0 -0.33506294628E+02 -0.40088112548E+02  0.23029147116E+03  0.25631099011E+03  0.99656577383E+02 0.  0.
          5    1    3    3  502    0  0.80878835874E+02  0.19784901015E+02  0.14871292650E+03  0.17048705320E+03  0.41800000000E+01 0.  1.
         -5    1    3    3    0  502 -0.47372541246E+02  0.20303211533E+02  0.75104256066E+02  0.91183878739E+02  0.41800000000E+01 0.  1.
        -11    1    4    4    0    0  0.23946219234E+02 -0.35883853421E+02  0.15849399946E+03  0.16426022104E+03  0.00000000000E+00 0. -1.
         11    1    4    4    0    0 -0.57452513861E+02 -0.42042591279E+01  0.71797471700E+02  0.92050769069E+02  0.00000000000E+00 0.  1.
</event>
<event>
 8    1  0.6597859E-009  0.1146074E+03  0.7561462E-02  0.1252268E+00
          4   -1    0    0  501    0  0.00000000000E+00  0.00000000000E+00  0.26848084109E+03  0.26848084109E+03  0.00000000000E+00 0.  1.
         -4   -1    0    0    0  501 -0.00000000000E+00 -0.00000000000E+00 -0.74527258883E+02  0.74527258883E+02  0.00000000000E+00 0. -1.
         25    2    1    2    0    0  0.70076818905E+02  0.48194213175E+02  0.14564227241E+03  0.20998225848E+03  0.12508970634E+03 0.  0.
         23    2    1    2    0    0 -0.70076818905E+02 -0.48194213175E+02  0.48311309794E+02  0.13302584149E+03  0.90157912126E+02 0.  0.
          5    1    3    3  502    0  0.68127854082E+02 -0.23147615112E+02  0.40018452423E+02  0.82438859293E+02  0.41800000000E+01 0. -1.
         -5    1    3    3    0  502  0.19489648222E+01  0.71341828287E+02  0.10562381999E+03  0.12754339919E+03  0.41800000000E+01 0. -1.
        -11    1    4    4    0    0 -0.23034290125E+02 -0.10250323999E+02 -0.26682450698E+02  0.36709683176E+02  0.00000000000E+00 0. -1.
         11    1    4    4    0    0 -0.47042528780E+02 -0.37943889176E+02  0.74993760492E+02  0.96316158315E+02  0.00000000000E+00 0.  1.
</event>
<event>
 8    1  0.6597859E-009  0.2911310E+03  0.7561462E-02  0.1089760E+00
          1   -1    0    0  501    0  0.00000000000E+00  0.00000000000E+00  0.56328565532E+03  0.56328565532E+03  0.00000000000E+00 0. -1.
         -1   -1    0    0    0  501 -0.00000000000E+00 -0.00000000000E+00 -0.16104270139E+03  0.16104270139E+03  0.00000000000E+00 0.  1.
         25    2    1    2    0    0  0.68082106389E+02 -0.26586947436E+03  0.13075698526E+03  0.32873496650E+03  0.12509012112E+03 0.  0.
         23    2    1    2    0    0 -0.68082106389E+02  0.26586947436E+03  0.27148596867E+03  0.39559339021E+03  0.86416136143E+02 0.  0.
          5    1    3    3  502    0 -0.29493589471E+02 -0.56571259229E+02  0.12644985823E+01  0.63947248160E+02  0.41800000000E+01 0. -1.
         -5    1    3    3    0  502  0.97575695860E+02 -0.20929821513E+03  0.12949248667E+03  0.26478771834E+03  0.41800000000E+01 0. -1.
        -11    1    4    4    0    0 -0.85004912471E+02  0.17062292263E+03  0.17052522484E+03  0.25576721677E+03  0.00000000000E+00 0.  1.
         11    1    4    4    0    0  0.16922806082E+02  0.95246551733E+02  0.10096074383E+03  0.13982617343E+03  0.00000000000E+00 0. -1.
</event>
<event>
 7    1  0.6597859E-009  0.1188103E+03  0.7561462E-02  0.1245073E+00
         -2   -1    0    0    0  501 -0.00000000000E+00  0.00000000000E+00  0.45476032448E+02  0.45476032448E+02  0.00000000000E+00 0. -1.
          2   -1    0    0  501    0  0.00000000000E+00 -0.00000000000E+00 -0.31644564175E+03  0.31644564175E+03  0.00000000000E+00 0.  1.
         23    2    1    2    0    0  0.49434014829E+02  0.77980840947E+01 -0.95848335852E+02  0.14085041624E+03  0.90262973200E+02 0.  0.
          5    1    1    2  502    0  0.21330380043E+02 -0.48273901741E+02 -0.76821304284E+02  0.93297051903E+02  0.41800000000E+01 0.  1.
         -5    1    1    2    0  502 -0.70764394872E+02  0.40475817646E+02 -0.98299969166E+02  0.12777420606E+03  0.41800000000E+01 0.  1.
        -11    1    3    3    0    0  0.34055772799E+02 -0.40177697711E+02 -0.45080923949E+02  0.69327719986E+02  0.00000000000E+00 0. -1.
         11    1    3    3    0    0  0.15378242029E+02  0.47975781805E+02 -0.50767411903E+02  0.71522696251E+02  0.00000000000E+00 0.  1.
</event>
<event>
 8    1  0.6597859E-009  0.1006295E+03  0.7561462E-02  0.1278978E+00
          1   -1    0    0  501    0  0.00000000000E+00  0.00000000000E+00  0.69991510693E+03  0.69991510693E+03  0.00000000000E+00 0. -1.
         -1   -1    0    0    0  501 -0.00000000000E+00 -0.00000000000E+00 -0.22147560877E+02  0.22147560877E+02  0.00000000000E+00 0.  1.
         25    2    1    2    0    0 -0.52155534726E+02  0.19111695254E+01  0.28909193767E+03  0.31928894728E+03  0.12508969205E+03 0.  0.
         23    2    1    2    0    0  0.52155534726E+02 -0.19111695254E+01  0.38867560839E+03  0.40277372053E+03  0.91837296473E+02 0.  0.
          5    1    3    3  502    0 -0.26877888267E+00 -0.34929303159E+02  0.15640530779E+02  0.38499702133E+02  0.41800000000E+01 0.  1.
         -5    1    3    3    0  502 -0.51886755844E+02  0.36840472684E+02  0.27345140689E+03  0.28078924514E+03  0.41800000000E+01 0.  1.
        -11    1    4    4    0    0  0.65966931229E+01 -0.41457155492E+02  0.11227856303E+03  0.11986946157E+03  0.00000000000E+00 0.  1.
         11    1    4    4    0    0  0.45558841604E+02  0.39545985967E+02  0.27639704536E+03  0.28290425896E+03  0.00000000000E+00 0. -1.
</event>
<event>
 8    1  0.6597859E-009  0.3036964E+03  0.7561462E-02  0.1083407E+00
         -2   -1    0    0    0  501 -0.00000000000E+00  0.00000000000E+00  0.15171573020E+03  0.15171573020E+03  0.00000000000E+00 0.  1.
          2   -1    0    0  501    0  0.00000000000E+00 -0.00000000000E+00 -0.82245417995E+03  0.82245417995E+03  0.00000000000E+00 0. -1.
         25    2    1    2    0    0 -0.19021800584E+02 -0.29295192522E+03 -0.56568532677E+03  0.64948482257E+03  0.12509191196E+03 0.  0.
         23    2    1    2    0    0  0.19021800584E+02  0.29295192522E+03 -0.10505312299E+03  0.32468508758E+03  0.90562619557E+02 0.  0.
          5    1    3    3  502    0 -0.73272329700E+01  0.70341094718E+01 -0.24981209344E+01  0.11264104370E+02  0.41800000000E+01 0.  1.
         -5    1    3    3    0  502 -0.11694567614E+02 -0.29998603469E+03 -0.56318720584E+03  0.63822071820E+03  0.41800000000E+01 0.  1.
        -11    1    4    4    0    0  0.88443221053E+01  0.27763741353E+03 -0.72154710519E+02  0.28699661614E+03  0.00000000000E+00 0. -1.
         11    1    4    4    0    0  0.10177478478E+02  0.15314511684E+02 -0.32898412469E+02  0.37688471438E+02  0.00000000000E+00 0.  1.
</event>
<event>
 8    1  0.6597859E-009  0.1774258E+03  0.7561462E-02  0.1170318E+00
          2   -1    0    0  501    0  0.00000000000E+00  0.00000000000E+00  0.10588361038E+04  0.10588361038E+04  0.00000000000E+00 0. -1.
         -2   -1    0    0    0  501 -0.00000000000E+00 -0.00000000000E+00 -0.37683877348E+02  0.37683877348E+02  0.00000000000E+00 0.  1.
         25    2    1    2    0    0  0.14944043596E+03 -0.47915990066E+02  0.68812753548E+03  0.71679955721E+03  0.12511480380E+03 0.  0.
         23    2    1    2    0    0 -0.14944043596E+03  0.47915990066E+02  0.33302469094E+03  0.37972042390E+03  0.93025639218E+02 0.  0.
          5    1    3    3  502    0 -0.30775350123E+01 -0.24662237758E+02  0.23402431092E+02  0.34392490081E+02  0.41800000000E+01 0. -1.
         -5    1    3    3    0  502  0.15251797097E+03 -0.23253752308E+02  0.66472510439E+03  0.68240706713E+03  0.41800000000E+01 0. -1.
        -11    1    4    4    0    0 -0.40846743660E+02 -0.21766162107E+02  0.14075530935E+03  0.14816976544E+03  0.00000000000E+00 0. -1.
         11    1    4    4    0    0 -0.10859369230E+03  0.69682152173E+02  0.19226938159E+03  0.23155065846E+03  0.00000000000E+00 0.  1.
</event>
<event>
 8    1  0.6597859E-009  0.1064233E+03  0.7561462E-02  0.1267340E+00
          3   -1    0    0  501    0  0.00000000000E+00  0.00000000000E+00  0.32661943100E+03  0.32661943100E+03  0.00000000000E+00 0. -1.
         -3   -1    0    0    0  501 -0.00000000000E+00 -0.00000000000E+00 -0.42653961355E+02  0.42653961355E+02  0.00000000000E+00 0.  1.
         25    2    1    2    0    0 -0.15571548605E+02 -0.16548409691E+00  0.88912159836E+02  0.15425620044E+03  0.12508837955E+03 0.  0.
         23    2    1    2    0    0  0.15571548605E+02  0.16548409691E+00  0.19505330981E+03  0.21501719192E+03  0.89129673171E+02 0.  0.
          5    1    3    3  502    0 -0.41606587175E+02 -0.50655192860E+02  0.29678403762E+02  0.72078684157E+02  0.41800000000E+01 0.  1.
         -5    1    3    3    0  502  0.26035038570E+02  0.50489708763E+02  0.59233756075E+02  0.82177516286E+02  0.41800000000E+01 0.  1.
        -11    1    4    4    0    0  0.11866195886E+02 -0.44157184162E+02  0.10729809129E+03  0.11663423131E+03  0.00000000000E+00 0. -1.
         11    1    4    4    0    0  0.37053527188E+01  0.44322668259E+02  0.87755218522E+02  0.98382960609E+02  0.00000000000E+00 0.  1.
</event>
<event>
 8    1  0.6597859E-009  0.1073437E+03  0.7561462E-02  0.1265569E+00
         -2   -1    0    0    0  501 -0.00000000000E+00  0.00000000000E+00  0.11755011007E+03  0.11755011007E+03  0.00000000000E+00 0. -1.
          2   -1    0    0  501    0  0.00000000000E+00 -0.00000000000E+00 -0.12428121765E+03  0.12428121765E+03  0.00000000000E+00 0.  1.
         25    2    1    2    0    0 -0.34131730250E+02  0.30940477042E+02  0.24242914529E+02  0.13549085329E+03  0.12509102402E+03 0.  0.
         23    2    1    2    0    0  0.34131730250E+02 -0.30940477042E+02 -0.30974022109E+02  0.10634047443E+03  0.90700707423E+02 0.  0.
          5    1    3    3  502    0  0.44974517200E+02  0.28584506390E+02  0.34900884983E+01  0.53567101104E+02  0.41800000000E+01 0. -1.
         -5    1    3    3    0  502 -0.79106247450E+02  0.23559706520E+01  0.20752826031E+02  0.81923752182E+02  0.41800000000E+01 0. -1.
        -11    1    4    4    0    0  0.65662309373E+01 -0.48733134474E+02  0.13575771004E+02  0.51013089915E+02  0.00000000000E+00 0.  1.
         11    1    4    4    0    0  0.27565499312E+02  0.17792657432E+02 -0.44549793112E+02  0.55327384514E+02  0.00000000000E+00 0. -1.
</event>
<event>
 8    1  0.6597859E-009  0.9814720E+02  0.7561462E-02  0.1284241E+00
         -1   -1    0    0    0  501 -0.00000000000E+00  0.00000000000E+00  0.69718228678E+02  0.69718228678E+02  0.00000000000E+00 0.  1.
          1   -1    0    0  501    0  0.00000000000E+00 -0.00000000000E+00 -0.17541207159E+03  0.17541207159E+03  0.00000000000E+00 0. -1.
         25    2    1    2    0    0  0.21707076445E+02  0.11512515380E+02 -0.87271855767E+02  0.15448971776E+03  0.12508781278E+03 0.  0.
         23    2    1    2    0    0 -0.21707076445E+02 -0.11512515380E+02 -0.18421987141E+02  0.90640582504E+02  0.85279601361E+02 0.  0.
          5    1    3    3  502    0 -0.13054083941E+02 -0.51252405906E+02 -0.22105332554E+02  0.57474658294E+02  0.41800000000E+01 0. -1.
         -5    1    3    3    0  502  0.34761160386E+02  0.62764921286E+02 -0.65166523213E+02  0.97015059466E+02  0.41800000000E+01 0. -1.
        -11    1    4    4    0    0 -0.15554240593E+02 -0.39637946759E+02  0.16247837773E+02  0.45575140768E+02  0.00000000000E+00 0.  1.
         11    1    4    4    0    0 -0.61528358514E+01  0.28125431379E+02 -0.34669824915E+02  0.45065441736E+02  0.00000000000E+00 0. -1.
</event>
<event>
 8    1  0.6597859E-009  0.6677062E+02  0.7561462E-02  0.1371432E+00
          3   -1    0    0  501    0  0.00000000000E+00  0.00000000000E+00  0.95065285267E+02  0.95065285267E+02  0.00000000000E+00 0. -1.
         -3   -1    0    0    0  501 -0.00000000000E+00 -0.00000000000E+00 -0.13682597093E+03  0.13682597093E+03  0.00000000000E+00 0.  1.
         25    2    1    2    0    0  0.97085817577E+01  0.15984817522E+02 -0.54505054161E+02  0.13772556667E+03  0.12509100621E+03 0.  0.
         23    2    1    2    0    0 -0.97085817577E+01 -0.15984817522E+02  0.12744368501E+02  0.94165689526E+02  0.91405619108E+02 0.  0.
          5    1    3    3  502    0  0.46985639393E+02 -0.60831319003E+01  0.19876041384E+02  0.51547882827E+02  0.41800000000E+01 0.  1.
         -5    1    3    3    0  502 -0.37277057635E+02  0.22067949422E+02 -0.74381095545E+02  0.86177683840E+02  0.41800000000E+01 0.  1.
        -11    1    4    4    0    0 -0.12321026504E+02 -0.27773657246E+02 -0.34168459884E+02  0.45723816352E+02  0.00000000000E+00 0.  1.
         11    1    4    4    0    0  0.26124447466E+01  0.11788839724E+02  0.46912828385E+02  0.48441873174E+02  0.00000000000E+00 0. -1.
</event>
<event>
 8    1  0.6597859E-009  0.1435112E+03  0.7561462E-02  0.1208681E+00
          1   -1    0    0  501    0  0.00000000000E+00  0.00000000000E+00  0.19057600754E+03  0.19057600754E+03  0.00000000000E+00 0. -1.
         -1   -1    0    0    0  501 -0.00000000000E+00 -0.00000000000E+00 -0.12185851029E+03  0.12185851029E+03  0.00000000000E+00 0.  1.
         25    2    1    2    0    0 -0.44647844289E+02  0.85251337910E+02 -0.10224890475E+02  0.15816232364E+03  0.12509816793E+03 0.  0.
         23    2    1    2    0    0  0.44647844289E+02 -0.85251337910E+02  0.78942387731E+02  0.15427219419E+03  0.91141586027E+02 0.  0.
          5    1    3    3  502    0 -0.78490501598E+02  0.19129155951E+02  0.87942170463E+01  0.81372563570E+02  0.41800000000E+01 0. -1.
         -5    1    3    3    0  502  0.33842657309E+02  0.66122181959E+02 -0.19019107521E+02  0.76789760070E+02  0.41800000000E+01 0. -1.
        -11    1    4    4    0    0 -0.12922415971E+02 -0.71341606303E+02  0.34902173615E+02  0.80465988763E+02  0.00000000000E+00 0.  1.
         11    1    4    4    0    0  0.57570260260E+02 -0.13909731607E+02  0.44040214116E+02  0.73806205424E+02  0.00000000000E+00 0. -1.
</event>
<event>
 8    1  0.6597859E-009  0.1034257E+03  0.7561462E-02  0.1273253E+00
          2   -1    0    0  501    0  0.00000000000E+00  0.00000000000E+00  0.13572552845E+03  0.13572552845E+03  0.00000000000E+00 0. -1.
         -2   -1    0    0    0  501 -0.00000000000E+00 -0.00000000000E+00 -0.16182515958E+03  0.16182515958E+03  0.00000000000E+00 0.  1.
         25    2    1    2    0    0 -0.70943702616E+02  0.16528970219E+01  0.58651305422E+02  0.15531413662E+03  0.12508702729E+03 0.  0.
         23    2    1    2    0    0  0.70943702616E+02 -0.16528970219E+01 -0.84750936552E+02  0.14223655141E+03  0.89514101134E+02 0.  0.
          5    1    3    3  502    0 -0.86336899638E+02 -0.19954518147E+02 -0.22647807193E+01  0.88740321530E+02  0.41800000000E+01 0.  1.
         -5    1    3    3    0  502  0.15393197022E+02  0.21607415168E+02  0.60916086141E+02  0.66573815089E+02  0.41800000000E+01 0.  1.
        -11    1    4    4    0    0  0.22818135531E+02 -0.28236128841E+02  0.53403777515E+01  0.36694221828E+02  0.00000000000E+00 0. -1.
         11    1    4    4    0    0  0.48125567084E+02  0.26583231819E+02 -0.90091314303E+02  0.10554232958E+03  0.00000000000E+00 0.  1.
</event>
<event>
 8    1  0.6597859E-009  0.1972813E+03  0.7561462E-02  0.1152053E+00
          2   -1    0    0  501    0  0.00000000000E+00  0.00000000000E+00  0.71053625071E+03  0.71053625071E+03  0.00000000000E+00 0. -1.
         -2   -1    0    0    0  501 -0.00000000000E+00 -0.00000000000E+00 -0.64429645667E+02  0.64429645667E+02  0.00000000000E+00 0.  1.
         25    2    1    2    0    0 -0.12950748470E+03 -0.12094249746E+03  0.24984703570E+03  0.33086272495E+03  0.12508926904E+03 0.  0.
         23    2    1    2    0    0  0.12950748470E+03  0.12094249746E+03  0.39625956935E+03  0.44410317143E+03  0.93844042364E+02 0.  0.
          5    1    3    3  502    0 -0.85033714677E+02  0.24704487013E+01  0.10921229456E+03  0.13849777410E+03  0.41800000000E+01 0.  1.
         -5    1    3    3    0  502 -0.44473770026E+02 -0.12341294616E+03  0.14063474114E+03  0.19236495085E+03  0.41800000000E+01 0.  1.
        -11    1    4    4    0    0  0.11221313651E+03  0.95344692675E+02  0.21726509476E+03  0.26246241602E+03  0.00000000000E+00 0.  1.
         11    1    4    4    0    0  0.17294348197E+02  0.25597804783E+02  0.17899447459E+03  0.18164075541E+03  0.00000000000E+00 0. -1.
</event>
<event>
 8    1  0.6597859E-009  0.8953879E+02  0.7561462E-02  0.1303972E+00
         -2   -1    0    0    0  501 -0.00000000000E+00  0.00000000000E+00  0.18701380982E+03  0.18701380982E+03  0.00000000000E+00 0.  1.
          2   -1    0    0  501    0  0.00000000000E+00 -0.00000000000E+00 -0.94548989367E+02  0.94548989367E+02  0.00000000000E+00 0. -1.
         25    2    1    2    0    0  0.54101454457E+02 -0.48705737608E+02  0.23686356691E+02  0.14665469218E+03  0.12508932407E+03 0.  0.
         23    2    1    2    0    0 -0.54101454457E+02  0.48705737608E+02  0.68778463765E+02  0.13490810701E+03  0.90390840286E+02 0.  0.
          5    1    3    3  502    0  0.11527011168E+02 -0.31663094498E+02  0.72188074327E+02  0.79774770540E+02  0.41800000000E+01 0.  1.
         -5    1    3    3    0  502  0.42574443289E+02 -0.17042643110E+02 -0.48501717635E+02  0.66879921644E+02  0.41800000000E+01 0.  1.
        -11    1    4    4    0    0  0.14252541239E+02  0.20864389407E+02  0.54024300120E+02  0.59641283357E+02  0.00000000000E+00 0.  1.
         11    1    4    4    0    0 -0.68353995696E+02  0.27841348201E+02  0.14754163646E+02  0.75266823648E+02  0.00000000000E+00 0. -1.
</event>
<event>
 8    1  0.6597859E-009  0.7679302E+02  0.7561462E-02  0.1338407E+00
         -1   -1    0    0    0  501 -0.00000000000E+00  0.00000000000E+00  0.66142671937E+02  0.66142671937E+02  0.00000000000E+00 0.  1.
          1   -1    0    0  501    0  0.00000000000E+00 -0.00000000000E+00 -0.37580640769E+03  0.37580640769E+03  0.00000000000E+00 0. -1.
         25    2    1    2    0    0  0.38362716888E+02 -0.28357914700E+02 -0.31263285760E+03  0.34009258474E+03  0.12509113947E+03 0.  0.
         23    2    1    2    0    0 -0.38362716888E+02  0.28357914700E+02  0.29691218465E+01  0.10185649488E+03  0.89944763563E+02 0.  0.
          5    1    3    3  502    0  0.15413747647E+02  0.98295023427E+01 -0.28877184113E+03  0.28938011570E+03  0.41800000000E+01 0.  1.
         -5    1    3    3    0  502  0.22948969241E+02 -0.38187417043E+02 -0.23861016469E+02  0.50712469044E+02  0.41800000000E+01 0.  1.
        -11    1    4    4    0    0 -0.34405366735E+02 -0.21171491890E+02  0.24996368822E+02  0.47505576339E+02  0.00000000000E+00 0.  1.
         11    1    4    4    0    0 -0.39573501531E+01  0.49529406590E+02 -0.22027246975E+02  0.54350918545E+02  0.00000000000E+00 0. -1.
</event>
<event>
 8    1  0.6597859E-009  0.2473401E+03  0.7561462E-02  0.1114997E+00
          2   -1    0    0  501    0  0.00000000000E+00  0.00000000000E+00  0.17195052010E+04  0.17195052010E+04  0.00000000000E+00 0. -1.
         -2   -1    0    0    0  501 -0.00000000000E+00 -0.00000000000E+00 -0.38694332994E+02  0.38694332994E+02  0.00000000000E+00 0.  1.
         25    2    1    2    0    0  0.10949459476E+03  0.19722042442E+03  0.65604229364E+03  0.70492836996E+03  0.12509018204E+03 0.  0.
         23    2    1    2    0    0 -0.10949459476E+03 -0.19722042442E+03  0.10247685743E+04  0.10532711640E+04  0.91348518798E+02 0.  0.
          5    1    3    3  502    0  0.12756268262E+03  0.13063652452E+03  0.53781441219E+03  0.56797883226E+03  0.41800000000E+01 0. -1.
         -5    1    3    3    0  502 -0.18068087862E+02  0.66583899895E+02  0.11822788146E+03  0.13694953771E+03  0.41800000000E+01 0. -1.
        -11    1    4    4    0    0  0.15589212864E+02 -0.32976479751E+02  0.17794679484E+03  0.18164672738E+03  0.00000000000E+00 0.  1.
         11    1    4    4    0    0 -0.12508380762E+03 -0.16424394467E+03  0.84682177949E+03  0.87162443662E+03  0.00000000000E+00 0. -1.
</event>
<event>
 8    1  0.6597859E-009  0.1135780E+03  0.7561462E-02  0.1254084E+00
         -1   -1    0    0    0  501 -0.00000000000E+00  0.00000000000E+00  0.35874783549E+03  0.35874783549E+03  0.00000000000E+00 0.  1.
          1   -1    0    0  501    0  0.00000000000E+00 -0.00000000000E+00 -0.42866023642E+02  0.42866023642E+02  0.00000000000E+00 0. -1.
         25    2    1    2    0    0 -0.37252603118E+02 -0.29317410557E+02  0.11643502337E+03  0.17734880565E+03  0.12509283432E+03 0.  0.
         23    2    1    2    0    0  0.37252603118E+02  0.29317410557E+02  0.19944678847E+03  0.22426505348E+03  0.90931434491E+02 0.  0.
          5    1    3    3  502    0  0.19967009764E+02  0.33887771651E+02  0.69417593810E+02  0.79895790106E+02  0.41800000000E+01 0.  1.
         -5    1    3    3    0  502 -0.57219612881E+02 -0.63205182208E+02  0.47017429565E+02  0.97453015547E+02  0.41800000000E+01 0.  1.
        -11    1    4    4    0    0  0.63660027532E+02  0.38364977609E+02  0.13701226484E+03  0.15587440883E+03  0.00000000000E+00 0. -1.
         11    1    4    4    0    0 -0.26407424414E+02 -0.90475670516E+01  0.62434523635E+02  0.68390644647E+02  0.00000000000E+00 0.  1.
</event>
<event>
 8    1  0.6597859E-009  0.8092084E+02  0.7561462E-02  0.1326458E+00
          2   -1    0    0  501    0  0.00000000000E+00  0.00000000000E+00  0.10848430872E+03  0.10848430872E+03  0.00000000000E+00 0. -1.
         -2   -1    0    0    0  501 -0.00000000000E+00 -0.00000000000E+00 -0.11422689930E+03  0.11422689930E+03  0.00000000000E+00 0.  1.
         25    2    1    2    0    0 -0.18080610719E+02 -0.14731355565E+02 -0.42053274030E+01  0.12731356583E+03  0.12508852044E+03 0.  0.
         23    2    1    2    0    0  0.18080610719E+02  0.14731355565E+02 -0.15372631799E+01  0.95397642189E+02  0.92490138050E+02 0.  0.
          5    1    3    3  502    0  0.23069357845E+02  0.32834180318E+02  0.34721170377E+02  0.53228852523E+02  0.41800000000E+01 0.  1.
         -5    1    3    3    0  502 -0.41149968564E+02 -0.47565535884E+02 -0.38926497780E+02  0.74084713310E+02  0.41800000000E+01 0.  1.
        -11    1    4    4    0    0  0.29255066197E+02  0.28423508587E+02 -0.37448730730E+02  0.55372937179E+02  0.00000000000E+00 0.  1.
         11    1    4    4    0    0 -0.11174455477E+02 -0.13692153021E+02  0.35911467550E+02  0.40024705010E+02  0.00000000000E+00 0. -1.
</event>
<event>
 8    1  0.6597859E-009  0.1171964E+03  0.7561462E-02  0.1247795E+00
          1   -1    0    0  501    0  0.00000000000E+00  0.00000000000E+00  0.50996806298E+03  0.50996806298E+03  0.00000000000E+00 0. -1.
         -1   -1    0    0    0  501 -0.00000000000E+00 -0.00000000000E+00 -0.31302961893E+02  0.31302961893E+02  0.00000000000E+00 0.  1.
         25    2    1    2    0    0 -0.38172106949E+02 -0.29705246426E+02  0.17940942492E+03  0.22399593107E+03  0.12508766516E+03 0.  0.
         23    2    1    2    0    0  0.38172106949E+02  0.29705246426E+02  0.29925567617E+03  0.31727509380E+03  0.93648352953E+02 0.  0.
          5    1    3    3  502    0 -0.84179959956E+02 -0.15711075994E+02  0.11905112437E+03  0.14670973445E+03  0.41800000000E+01 0.  1.
         -5    1    3    3    0  502  0.46007853007E+02 -0.13994170432E+02  0.60358300544E+02  0.77286196626E+02  0.41800000000E+01 0.  1.
        -11    1    4    4    0    0  0.21374046465E+02 -0.30857847544E+02  0.68469453883E+02  0.78084074768E+02  0.00000000000E+00 0.  1.
         11    1    4    4    0    0  0.16798060483E+02  0.60563093970E+02  0.23078622229E+03  0.23919101903E+03  0.00000000000E+00 0. -1.
</event>
<event>
 8    1  0.6597859E-009  0.1169811E+03  0.7561462E-02  0.1248162E+00
          1   -1    0    0  501    0  0.00000000000E+00  0.00000000000E+00  0.23526980877E+03  0.23526980877E+03  0.00000000000E+00 0. -1.
         -1   -1    0    0    0  501 -0.00000000000E+00 -0.00000000000E+00 -0.65064443921E+02  0.65064443921E+02  0.00000000000E+00 0.  1.
         25    2    1    2    0    0 -0.23815633064E+02  0.40672015413E+02  0.13595746237E+03  0.19066453006E+03  0.12508850561E+03 0.  0.
         23    2    1    2    0    0  0.23815633064E+02 -0.40672015413E+02  0.34247902482E+02  0.10966972263E+03  0.92914649117E+02 0.  0.
          5    1    3    3  502    0  0.24220419212E+02 -0.33386056459E+02  0.66061047237E+02  0.77992254966E+02  0.41800000000E+01 0. -1.
         -5    1    3    3    0  502 -0.48036052276E+02  0.74058071872E+02  0.69896415129E+02  0.11267227510E+03  0.41800000000E+01 0. -1.
        -11    1    4    4    0    0  0.57803105123E+02 -0.10632032491E+02  0.21046613393E+02  0.62427550105E+02  0.00000000000E+00 0.  1.
         11    1    4    4    0    0 -0.33987472059E+02 -0.30039982923E+02  0.13201289088E+02  0.47242172521E+02  0.00000000000E+00 0. -1.
</event>
<event>
 8    1  0.6597859E-009  0.1634324E+03  0.7561462E-02  0.1184875E+00
         -2   -1    0    0    0  501 -0.00000000000E+00  0.00000000000E+00  0.14375648781E+03  0.14375648781E+03  0.00000000000E+00 0.  1.
          2   -1    0    0  501    0  0.00000000000E+00 -0.00000000000E+00 -0.19677166881E+03  0.19677166881E+03  0.00000000000E+00 0. -1.
         25    2    1    2    0    0 -0.42231626348E+02 -0.12057422019E+03 -0.35527286946E+02  0.18229599972E+03  0.12509192843E+03 0.  0.
         23    2    1    2    0    0  0.42231626348E+02  0.12057422019E+03 -0.17487894052E+02  0.15823215690E+03  0.91705704292E+02 0.  0.
          5    1    3    3  502    0 -0.65789651843E+01 -0.13662184825E+03 -0.40379277624E+02  0.14267715537E+03  0.41800000000E+01 0. -1.
         -5    1    3    3    0  502 -0.35652661163E+02  0.16047628060E+02  0.48519906783E+01  0.39618844354E+02  0.41800000000E+01 0. -1.
        -11    1    4    4    0    0  0.24135788915E+02  0.12864249531E+03  0.13486882489E+01  0.13089402915E+03  0.00000000000E+00 0.  1.
         11    1    4    4    0    0  0.18095837433E+02 -0.80682751253E+01 -0.18836582301E+02  0.27338127746E+02  0.00000000000E+00 0. -1.
</event>
<event>
 8    1  0.6597859E-009  0.7016638E+02  0.7561462E-02  0.1359528E+00
         -1   -1    0    0    0  501 -0.00000000000E+00  0.00000000000E+00  0.61780430522E+03  0.61780430522E+03  0.00000000000E+00 0.  1.
          1   -1    0    0  501    0  0.00000000000E+00 -0.00000000000E+00 -0.25316692602E+02  0.25316692602E+02  0.00000000000E+00 0. -1.
         25    2    1    2    0    0  0.85825691642E+01  0.11301156155E+01  0.49698459837E+03  0.51255854624E+03  0.12509050583E+03 0.  0.
         23    2    1    2    0    0 -0.85825691642E+01 -0.11301156155E+01  0.95503014248E+02  0.13056245159E+03  0.88604685988E+02 0.  0.
          5    1    3    3  502    0  0.37209015060E+01  0.31587192766E+02  0.47077995975E+03  0.47187163377E+03  0.41800000000E+01 0.  1.
         -5    1    3    3    0  502  0.48616676581E+01 -0.30457077151E+02  0.26204638627E+02  0.40686912472E+02  0.41800000000E+01 0.  1.
        -11    1    4    4    0    0 -0.29641635296E+02 -0.29485213805E+02  0.83283030973E+02  0.93188344895E+02  0.00000000000E+00 0.  1.
         11    1    4    4    0    0  0.21059066132E+02  0.28355098190E+02  0.12219983275E+02  0.37374106691E+02  0.00000000000E+00 0. -1.
</event>
<event>
 8    1  0.6597859E-009  0.1957993E+03  0.7561462E-02  0.1153332E+00
          1   -1    0    0  501    0  0.00000000000E+00  0.00000000000E+00  0.47822527727E+03  0.47822527727E+03  0.00000000000E+00 0. -1.
         -1   -1    0    0    0  501 -0.00000000000E+00 -0.00000000000E+00 -0.10775555120E+03  0.10775555120E+03  0.00000000000E+00 0.  1.
         25    2    1    2    0    0 -0.17400106383E+03 -0.20276202647E+02  0.71089765592E+02  0.22669110367E+03  0.12509039572E+03 0.  0.
         23    2    1    2    0    0  0.17400106383E+03  0.20276202647E+02  0.29937996048E+03  0.35928972481E+03  0.93665634107E+02 0.  0.
          5    1    3    3  502    0 -0.55816688830E+02  0.31174454048E+02 -0.21886856920E+02  0.67704181872E+02  0.41800000000E+01 0. -1.
         -5    1    3    3    0  502 -0.11818437500E+03 -0.51450656695E+02  0.92976622512E+02  0.15898692179E+03  0.41800000000E+01 0. -1.
        -11    1    4    4    0    0  0.17676872476E+03  0.37848187953E+02  0.27543362419E+03  0.32945917611E+03  0.00000000000E+00 0. -1.
         11    1    4    4    0    0 -0.27676609319E+01 -0.17571985306E+02  0.23946336282E+02  0.29830548703E+02  0.00000000000E+00 0.  1.
</event>
<event>
 8    1  0.6597859E-009  0.1542267E+03  0.7561462E-02  0.1195373E+00
         -2   -1    0    0    0  501 -0.00000000000E+00  0.00000000000E+00  0.71238525875E+02  0.71238525875E+02  0.00000000000E+00 0. -1.
          2   -1    0    0  501    0  0.00000000000E+00 -0.00000000000E+00 -0.47676070886E+03  0.47676070886E+03  0.00000000000E+00 0.  1.
         25    2    1    2    0    0  0.12400610503E+03 -0.57288602238E+02 -0.30160459979E+03  0.35393674178E+03  0.12508550890E+03 0.  0.
         23    2    1    2    0    0 -0.12400610503E+03  0.57288602238E+02 -0.10391758319E+03  0.19406249295E+03  0.90564281280E+02 0.  0.
          5    1    3    3  502    0  0.13617780499E+03 -0.30985290182E+02 -0.29097857083E+03  0.32278550751E+03  0.41800000000E+01 0. -1.
         -5    1    3    3    0  502 -0.12171699959E+02 -0.26303312056E+02 -0.10626028965E+02  0.31151234271E+02  0.41800000000E+01 0. -1.
        -11    1    4    4    0    0 -0.75497182623E+02  0.49606464601E+02 -0.11242035940E+03  0.14421845625E+03  0.00000000000E+00 0.  1.
         11    1    4    4    0    0 -0.48508922406E+02  0.76821376369E+01  0.85027762116E+01  0.49844036704E+02  0.00000000000E+00 0. -1.
</event>
<event>
 8    1  0.6597859E-009  0.1098288E+03  0.7561462E-02  0.1260887E+00
         -2   -1    0    0    0  501 -0.00000000000E+00  0.00000000000E+00  0.68142885396E+02  0.68142885396E+02  0.00000000000E+00 0. -1.
          2   -1    0    0  501    0  0.00000000000E+00 -0.00000000000E+00 -0.20636507417E+03  0.20636507417E+03  0.00000000000E+00 0.  1.
         25    2    1    2    0    0 -0.21893465225E+02 -0.43680598162E+02 -0.74413615423E+02  0.15353063782E+03  0.12508777763E+03 0.  0.
         23    2    1    2    0    0  0.21893465225E+02  0.43680598162E+02 -0.63808573353E+02  0.12097732175E+03  0.90424885233E+02 0.  0.
          5    1    3    3  502    0  0.35014889028E+02 -0.61782543513E+02 -0.23426126562E+02  0.74895800565E+02  0.41800000000E+01 0. -1.
         -5    1    3    3    0  502 -0.56908354253E+02  0.18101945351E+02 -0.50987488861E+02  0.78634837252E+02  0.41800000000E+01 0. -1.
        -11    1    4    4    0    0  0.47881485314E+02  0.40034252844E+02 -0.12942603298E+02  0.63740795546E+02  0.00000000000E+00 0. -1.
         11    1    4    4    0    0 -0.25988020090E+02  0.36463453180E+01 -0.50865970056E+02  0.57236526206E+02  0.00000000000E+00 0.  1.
</event>
<event>
 8    1  0.6597859E-009  0.9719538E+02  0.7561462E-02  0.1286307E+00
         -2   -1    0    0    0  501 -0.00000000000E+00  0.00000000000E+00  0.27233486599E+02  0.27233486599E+02  0.00000000000E+00 0.  1.
          2   -1    0    0  501    0  0.00000000000E+00 -0.00000000000E+00 -0.65749665124E+03  0.65749665124E+03  0.00000000000E+00 0. -1.
         25    2    1    2    0    0  0.29604605043E+02 -0.72001891306E+02 -0.33045148429E+03  0.36180981480E+03  0.12508978225E+03 0.  0.
         23    2    1    2    0    0 -0.29604605043E+02  0.72001891306E+02 -0.29981168036E+03  0.32292032304E+03  0.91267663311E+02 0.  0.
          5    1    3    3  502    0 -0.24192683298E+01 -0.46680155781E+02 -0.24163716546E+02  0.52784916409E+02  0.41800000000E+01 0. -1.
         -5    1    3    3    0  502  0.32023873373E+02 -0.25321735525E+02 -0.30628776774E+03  0.30902489839E+03  0.41800000000E+01 0. -1.
        -11    1    4    4    0    0 -0.49309147797E+02  0.24634972843E+02 -0.79665214637E+02  0.96875282537E+02  0.00000000000E+00 0.  1.
         11    1    4    4    0    0  0.19704542754E+02  0.47366918462E+02 -0.22014646572E+03  0.22604504051E+03  0.00000000000E+00 0. -1.
</event>
<event>
 8    1  0.6597859E-009  0.1143058E+03  0.7561462E-02  0.1252798E+00
          2   -1    0    0  501    0  0.00000000000E+00  0.00000000000E+00  0.42219689705E+02  0.42219689705E+02  0.00000000000E+00 0. -1.
         -2   -1    0    0    0  501 -0.00000000000E+00 -0.00000000000E+00 -0.36487447733E+03  0.36487447733E+03  0.00000000000E+00 0.  1.
         25    2    1    2    0    0 -0.41141829717E+02 -0.28468056372E+02 -0.12567740116E+03  0.18424196883E+03  0.12508882256E+03 0.  0.
         23    2    1    2    0    0  0.41141829717E+02  0.28468056372E+02 -0.19697738646E+03  0.22285219821E+03  0.91432658725E+02 0.  0.
          5    1    3    3  502    0 -0.47304997712E+02 -0.68674796932E+02 -0.11475807312E+03  0.14191856217E+03  0.41800000000E+01 0.  1.
         -5    1    3    3    0  502  0.61631679954E+01  0.40206740560E+02 -0.10919328040E+02  0.42323406657E+02  0.41800000000E+01 0.  1.
        -11    1    4    4    0    0  0.65376639785E+02 -0.18611636410E+01 -0.12343537920E+03  0.13969202482E+03  0.00000000000E+00 0. -1.
         11    1    4    4    0    0 -0.24234810068E+02  0.30329220013E+02 -0.73542007260E+02  0.83160173385E+02  0.00000000000E+00 0.  1.
</event>
<event>
 8    1  0.6597859E-009  0.1126206E+03  0.7561462E-02  0.1255793E+00
         -2   -1    0    0    0  501 -0.00000000000E+00  0.00000000000E+00  0.19953905851E+02  0.19953905851E+02  0.00000000000E+00 0. -1.
          2   -1    0    0  501    0  0.00000000000E+00 -0.00000000000E+00 -0.91326298946E+03  0.91326298946E+03  0.00000000000E+00 0.  1.
         25    2    1    2    0    0 -0.19577639251E+02 -0.64430288578E+02 -0.65030185108E+03  0.66563850913E+03  0.12509029246E+03 0.  0.
         23    2    1    2    0    0  0.19577639251E+02  0.64430288578E+02 -0.24300723253E+03  0.26757838619E+03  0.89504925272E+02 0.  0.
          5    1    3    3  502    0 -0.59817701604E+02 -0.56419500255E+02 -0.56412191525E+03  0.57009852228E+03  0.41800000000E+01 0.  1.
         -5    1    3    3    0  502  0.40240062353E+02 -0.80107883228E+01 -0.86179935832E+02  0.95539986852E+02  0.41800000000E+01 0.  1.
        -11    1    4    4    0    0  0.47192221680E+02  0.55031807690E+02 -0.21594174886E+03  0.22778596214E+03  0.00000000000E+00 0.  1.
         11    1    4    4    0    0 -0.27614582429E+02  0.93984808887E+01 -0.27065483669E+02  0.39792424052E+02  0.00000000000E+00 0. -1.
</event>
<event>
 8    1  0.6597859E-009  0.1054478E+03  0.7561462E-02  0.1269240E+00
          1   -1    0    0  501    0  0.00000000000E+00  0.00000000000E+00  0.29550066294E+02  0.29550066294E+02  0.00000000000E+00 0.  1.
         -1   -1    0    0    0  501 -0.00000000000E+00 -0.00000000000E+00 -0.61976394843E+03  0.61976394843E+03  0.00000000000E+00 0. -1.
         25    2    1    2    0    0  0.32011702894E+02 -0.71304701981E+02 -0.27937715594E+03  0.31592464527E+03  0.12509067343E+03 0.  0.
         23    2    1    2    0    0 -0.32011702894E+02  0.71304701981E+02 -0.31083672619E+03  0.33338936946E+03  0.91759967679E+02 0.  0.
          5    1    3    3  502    0 -0.11751019197E+02 -0.14515909597E+02 -0.22508068500E+03  0.22589286232E+03  0.41800000000E+01 0.  1.
         -5    1    3    3    0  502  0.43762722091E+02 -0.56788792385E+02 -0.54296470939E+02  0.90031782953E+02  0.41800000000E+01 0.  1.
        -11    1    4    4    0    0 -0.56088951253E+02  0.14038775718E+02 -0.16643660894E+03  0.17619365049E+03  0.00000000000E+00 0.  1.
         11    1    4    4    0    0  0.24077248359E+02  0.57265926263E+02 -0.14440011725E+03  0.15719571897E+03  0.00000000000E+00 0. -1.
</event>
<event>
 7    1  0.6597859E-009  0.7797423E+02  0.7561462E-02  0.1334901E+00
         -1   -1    0    0    0  501 -0.00000000000E+00  0.00000000000E+00  0.54482173050E+03  0.54482173050E+03  0.00000000000E+00 0.  1.
          1   -1    0    0  501    0  0.00000000000E+00 -0.00000000000E+00 -0.29069305584E+02  0.29069305584E+02  0.00000000000E+00 0. -1.
         23    2    1    2    0    0 -0.33614349209E+02 -0.40212425867E+02  0.31856592296E+03  0.33503741125E+03  0.89548065299E+02 0.  0.
          5    1    1    2  502    0  0.49175328914E+01  0.31422621921E+02  0.20505275439E+03  0.20754678456E+03  0.41800000000E+01 0.  1.
         -5    1    1    2    0  502  0.28696816318E+02  0.87898039462E+01 -0.78662524395E+01  0.31306840269E+02  0.41800000000E+01 0.  1.
        -11    1    3    3    0    0  0.37476738725E+01  0.21283739528E+02  0.26280959957E+02  0.34025453473E+02  0.00000000000E+00 0. -1.
         11    1    3    3    0    0 -0.37362023082E+02 -0.61496165396E+02  0.29228496300E+03  0.30101195778E+03  0.00000000000E+00 0.  1.
</event>
<event>
 8    1  0.6597859E-009  0.9343187E+02  0.7561462E-02  0.1294747E+00
         -1   -1    0    0    0  501 -0.00000000000E+00  0.00000000000E+00  0.15448507343E+02  0.15448507343E+02  0.00000000000E+00 0.  1.
          1   -1    0    0  501    0  0.00000000000E+00 -0.00000000000E+00 -0.88271945275E+03  0.88271945275E+03  0.00000000000E+00 0. -1.
         25    2    1    2    0    0 -0.10598958907E+02  0.24437168480E+02 -0.64162141966E+03  0.65424350624E+03  0.12508799363E+03 0.  0.
         23    2    1    2    0    0  0.10598958907E+02 -0.24437168480E+02 -0.22564952574E+03  0.24392445386E+03  0.88723827614E+02 0.  0.
          5    1    3    3  502    0  0.24875795329E+02  0.47722067524E+02 -0.55578269738E+03  0.55839777940E+03  0.41800000000E+01 0.  1.
         -5    1    3    3    0  502 -0.35474754236E+02 -0.23284899044E+02 -0.85838722276E+02  0.95845726840E+02  0.41800000000E+01 0.  1.
        -11    1    4    4    0    0  0.42313928538E+02  0.99483416899E+01 -0.81388491396E+02  0.92268762766E+02  0.00000000000E+00 0.  1.
         11    1    4    4    0    0 -0.31714969631E+02 -0.34385510170E+02 -0.14426103435E+03  0.15165569109E+03  0.00000000000E+00 0. -1.
</event>
<event>
 8    1  0.6597859E-009  0.1482772E+03  0.7561462E-02  0.1202606E+00
         -1   -1    0    0    0  501 -0.00000000000E+00  0.00000000000E+00  0.15678006987E+02  0.15678006987E+02  0.00000000000E+00 0.  1.
          1   -1    0    0  501    0  0.00000000000E+00 -0.00000000000E+00 -0.18135931668E+04  0.18135931668E+04  0.00000000000E+00 0. -1.
         25    2    1    2    0    0  0.72347653005E+01 -0.12513323458E+03 -0.11123150486E+04  0.11263231576E+04  0.12509364452E+03 0.  0.
         23    2    1    2    0    0 -0.72347653005E+01  0.12513323458E+03 -0.68560011123E+03  0.70294801615E+03  0.91529955014E+02 0.  0.
          5    1    3    3  502    0 -0.19350626361E+01 -0.13370916951E+03 -0.64055785348E+03  0.65438041118E+03  0.41800000000E+01 0.  1.
         -5    1    3    3    0  502  0.91698279365E+01  0.85759349273E+01 -0.47175719511E+03  0.47194274647E+03  0.41800000000E+01 0.  1.
        -11    1    4    4    0    0 -0.42048674029E+02  0.42123714589E+02 -0.18559828297E+03  0.19490823728E+03  0.00000000000E+00 0.  1.
         11    1    4    4    0    0  0.34813908729E+02  0.83009519990E+02 -0.50000182826E+03  0.50803977887E+03  0.00000000000E+00 0. -1.
</event>
<event>
 8    1  0.6597859E-009  0.9780718E+02  0.7561462E-02  0.1284976E+00
          2   -1    0    0  501    0  0.00000000000E+00  0.00000000000E+00  0.12067850951E+03  0.12067850951E+03  0.00000000000E+00 0.  1.
         -2   -1    0    0    0  501 -0.00000000000E+00 -0.00000000000E+00 -0.25753101630E+03  0.25753101630E+03  0.00000000000E+00 0. -1.
         25    2    1    2    0    0 -0.98762670455E+01  0.14714499871E+02  0.74670842903E+02  0.14675563556E+03  0.12508966636E+03 0.  0.
         23    2    1    2    0    0  0.98762670455E+01 -0.14714499871E+02 -0.21152334969E+03  0.23145389025E+03  0.92275233338E+02 0.  0.
          5    1    3    3  502    0  0.78432554821E+01 -0.41813081464E+02 -0.94546650159E+01  0.43780286987E+02  0.41800000000E+01 0.  1.
         -5    1    3    3    0  502 -0.17719522528E+02  0.56527581336E+02  0.84125507918E+02  0.10297534857E+03  0.41800000000E+01 0.  1.
        -11    1    4    4    0    0 -0.12777594134E+02 -0.49967747705E+02 -0.10495355700E+03  0.11694140349E+03  0.00000000000E+00 0. -1.
         11    1    4    4    0    0  0.22653861179E+02  0.35253247834E+02 -0.10656979269E+03  0.11451248676E+03  0.00000000000E+00 0.  1.
</event>
<event>
 8    1  0.6597859E-009  0.1002348E+03  0.7561462E-02  0.1279803E+00
         -3   -1    0    0    0  501 -0.00000000000E+00  0.00000000000E+00  0.42887519462E+02  0.42887519462E+02  0.00000000000E+00 0.  1.
          3   -1    0    0  501    0  0.00000000000E+00 -0.00000000000E+00 -0.32602287056E+03  0.32602287056E+03  0.00000000000E+00 0. -1.
         25    2    1    2    0    0  0.14109523479E+01  0.19400586359E+02 -0.91387057924E+02  0.15612929467E+03  0.12508552578E+03 0.  0.
         23    2    1    2    0    0 -0.14109523479E+01 -0.19400586359E+02 -0.19174829317E+03  0.21278109535E+03  0.90166585100E+02 0.  0.
          5    1    3    3  502    0  0.34506442376E+02 -0.32556362630E+02 -0.80354721916E+02  0.93407521364E+02  0.41800000000E+01 0.  1.
         -5    1    3    3    0  502 -0.33095490028E+02  0.51956948988E+02 -0.11032336008E+02  0.62721773302E+02  0.41800000000E+01 0.  1.
        -11    1    4    4    0    0  0.16875059268E+02 -0.51480469949E+02 -0.97203991435E+02  0.11128172519E+03  0.00000000000E+00 0.  1.
         11    1    4    4    0    0 -0.18286011615E+02  0.32079883590E+02 -0.94544301736E+02  0.10149937016E+03  0.00000000000E+00 0. -1.
</event>
<event>
 8    1  0.6597859E-009  0.1285541E+03  0.7561462E-02  0.1229617E+00
         -2   -1    0    0    0  501 -0.00000000000E+00  0.00000000000E+00  0.15967023371E+03  0.15967023371E+03  0.00000000000E+00 0.  1.
          2   -1    0    0  501    0  0.00000000000E+00 -0.00000000000E+00 -0.12653477378E+03  0.12653477378E+03  0.00000000000E+00 0. -1.
         25    2    1    2    0    0 -0.58990642957E+02 -0.68765660265E+02 -0.14583269286E+01  0.15446804456E+03  0.12509851352E+03 0.  0.
         23    2    1    2    0    0  0.58990642957E+02  0.68765660265E+02  0.34593786853E+02  0.13173696293E+03  0.89158764713E+02 0.  0.
          5    1    3    3  502    0 -0.40058057745E+02  0.30824378126E+02 -0.12991190779E+02  0.52354882438E+02  0.41800000000E+01 0. -1.
         -5    1    3    3    0  502 -0.18932585211E+02 -0.99590038392E+02  0.11532863850E+02  0.10211316212E+03  0.41800000000E+01 0. -1.
        -11    1    4    4    0    0  0.69088232053E+02  0.58457745033E+02  0.55626776067E+02  0.10623008038E+03  0.00000000000E+00 0.  1.
         11    1    4    4    0    0 -0.10097589097E+02  0.10307915233E+02 -0.21032989214E+02  0.25506882547E+02  0.00000000000E+00 0. -1.
</event>
<event>
 8    1  0.6597859E-009  0.8483496E+02  0.7561462E-02  0.1315865E+00
          1   -1    0    0  501    0  0.00000000000E+00  0.00000000000E+00  0.14280963474E+03  0.14280963474E+03  0.00000000000E+00 0. -1.
         -1   -1    0    0    0  501 -0.00000000000E+00 -0.00000000000E+00 -0.98628463626E+02  0.98628463626E+02  0.00000000000E+00 0.  1.
         25    2    1    2    0    0  0.22818616629E+02  0.28189647230E+02  0.38815544833E+02  0.13591848169E+03  0.12510732060E+03 0.  0.
         23    2    1    2    0    0 -0.22818616629E+02 -0.28189647230E+02  0.53656262782E+01  0.10551961667E+03  0.98945712803E+02 0.  0.
          5    1    3    3  502    0 -0.36554037850E+02 -0.26073051629E+02  0.31579228001E+02  0.55051991294E+02  0.41800000000E+01 0. -1.
         -5    1    3    3    0  502  0.59372654479E+02  0.54262698859E+02  0.72363168329E+01  0.80866490394E+02  0.41800000000E+01 0. -1.
        -11    1    4    4    0    0 -0.60198419255E+01 -0.26471522919E+02  0.50497462129E+02  0.57332135002E+02  0.00000000000E+00 0. -1.
         11    1    4    4    0    0 -0.16798774704E+02 -0.17181243111E+01 -0.45131835851E+02  0.48187481672E+02  0.00000000000E+00 0.  1.
</event>
<event>
 8    1  0.6597859E-009  0.1161890E+03  0.7561462E-02  0.1249520E+00
         -2   -1    0    0    0  501 -0.00000000000E+00  0.00000000000E+00  0.37372917336E+03  0.37372917336E+03  0.00000000000E+00 0.  1.
          2   -1    0    0  501    0  0.00000000000E+00 -0.00000000000E+00 -0.42495691880E+02  0.42495691880E+02  0.00000000000E+00 0. -1.
         25    2    1    2    0    0 -0.27158512470E+01  0.41504391579E+02  0.26444342479E+03  0.29547961514E+03  0.12509151721E+03 0.  0.
         23    2    1    2    0    0  0.27158512470E+01 -0.41504391579E+02  0.66790056688E+02  0.12074525011E+03  0.91588827824E+02 0.  0.
          5    1    3    3  502    0 -0.61396543282E+02  0.39146698404E+02  0.14419022496E+03  0.16158679679E+03  0.41800000000E+01 0.  1.
         -5    1    3    3    0  502  0.58680692035E+02  0.23576931750E+01  0.12025319983E+03  0.13389281834E+03  0.41800000000E+01 0.  1.
        -11    1    4    4    0    0 -0.46712912805E+01 -0.70495029357E+02  0.45705198497E+02  0.84144728272E+02  0.00000000000E+00 0.  1.
         11    1    4    4    0    0  0.73871425274E+01  0.28990637778E+02  0.21084858191E+02  0.36600521833E+02  0.00000000000E+00 0. -1.
</event>
<event>
 8    1  0.6597859E-009  0.1161011E+03  0.7561462E-02  0.1249671E+00
          2   -1    0    0  501    0  0.00000000000E+00  0.00000000000E+00  0.25462676251E+03  0.25462676251E+03  0.00000000000E+00 0. -1.
         -2   -1    0    0    0  501 -0.00000000000E+00 -0.00000000000E+00 -0.62314038501E+02  0.62314038501E+02  0.00000000000E+00 0.  1.
         25    2    1    2    0    0  0.42282648534E+01 -0.49541725445E+02  0.15568077609E+03  0.20580639476E+03  0.12508999678E+03 0.  0.
         23    2    1    2    0    0 -0.42282648534E+01  0.49541725445E+02  0.36631947919E+02  0.11113440625E+03  0.92394241496E+02 0.  0.
          5    1    3    3  502    0  0.61057554206E+02 -0.17583319032E+02  0.47551008704E+02  0.79471811748E+02  0.41800000000E+01 0. -1.
         -5    1    3    3    0  502 -0.56829289353E+02 -0.31958406413E+02  0.10812976739E+03  0.12633458301E+03  0.41800000000E+01 0. -1.
        -11    1    4    4    0    0 -0.45272703323E+02  0.10346587581E+02  0.65433096129E+01  0.46898661403E+02  0.00000000000E+00 0.  1.
         11    1    4    4    0    0  0.41044438470E+02  0.39195137864E+02  0.30088638307E+02  0.64235744851E+02  0.00000000000E+00 0. -1.
</event>
<event>
 8    1  0.6597859E-009  0.1459810E+03  0.7561462E-02  0.1205500E+00
         -1   -1    0    0    0  501 -0.00000000000E+00  0.00000000000E+00  0.40645852411E+02  0.40645852411E+02  0.00000000000E+00 0.  1.
          1   -1    0    0  501    0  0.00000000000E+00 -0.00000000000E+00 -0.85998867484E+03  0.85998867484E+03  0.00000000000E+00 0. -1.
         25    2    1    2    0    0 -0.17677754371E+02 -0.13312195635E+03 -0.60293451849E+03  0.63024675935E+03  0.12508791237E+03 0.  0.
         23    2    1    2    0    0  0.17677754371E+02  0.13312195635E+03 -0.21640830394E+03  0.27038776790E+03  0.90791149107E+02 0.  0.
          5    1    3    3  502    0 -0.75787422226E+00 -0.92976706461E+02 -0.15959234218E+03  0.18474964249E+03  0.41800000000E+01 0.  1.
         -5    1    3    3    0  502 -0.16919880148E+02 -0.40145249887E+02 -0.44334217632E+03  0.44549711686E+03  0.41800000000E+01 0.  1.
        -11    1    4    4    0    0  0.47630287022E+02  0.98012499156E+02 -0.18450804370E+03  0.21428558613E+03  0.00000000000E+00 0. -1.
         11    1    4    4    0    0 -0.29952532652E+02  0.35109457192E+02 -0.31900260243E+02  0.56102181777E+02  0.00000000000E+00 0.  1.
</event>
<event>
 8    1  0.6597859E-009  0.2341632E+03  0.7561462E-02  0.1123743E+00
         -1   -1    0    0    0  501 -0.00000000000E+00  0.00000000000E+00  0.40125637235E+02  0.40125637235E+02  0.00000000000E+00 0.  1.
          1   -1    0    0  501    0  0.00000000000E+00 -0.00000000000E+00 -0.13826718845E+04  0.13826718845E+04  0.00000000000E+00 0. -1.
         25    2    1    2    0    0 -0.14869860236E+03  0.14677421991E+03 -0.69758326760E+03  0.73886643215E+03  0.12508894176E+03 0.  0.
         23    2    1    2    0    0  0.14869860236E+03 -0.14677421991E+03 -0.64496297970E+03  0.68393108961E+03  0.90169530243E+02 0.  0.
          5    1    3    3  502    0 -0.24644021239E+02 -0.22484808527E+02 -0.97603561879E+02  0.10323188504E+03  0.41800000000E+01 0. -1.
         -5    1    3    3    0  502 -0.12405458113E+03  0.16925902844E+03 -0.59997970572E+03  0.63563454711E+03  0.41800000000E+01 0. -1.
        -11    1    4    4    0    0  0.14619388887E+03 -0.98066217137E+02 -0.54459872289E+03  0.57234378223E+03  0.00000000000E+00 0. -1.
         11    1    4    4    0    0  0.25047134952E+01 -0.48708002778E+02 -0.10036425680E+03  0.11158730738E+03  0.00000000000E+00 0.  1.
</event>
<event>
 8    1  0.6597859E-009  0.1108734E+03  0.7561462E-02  0.1258961E+00
          2   -1    0    0  501    0  0.00000000000E+00  0.00000000000E+00  0.69485232396E+02  0.69485232396E+02  0.00000000000E+00 0. -1.
         -2   -1    0    0    0  501 -0.00000000000E+00 -0.00000000000E+00 -0.19009540891E+03  0.19009540891E+03  0.00000000000E+00 0.  1.
         25    2    1    2    0    0  0.24478718790E+02  0.25946318255E+02 -0.87225100304E+02  0.15659608559E+03  0.12506676934E+03 0.  0.
         23    2    1    2    0    0 -0.24478718790E+02 -0.25946318255E+02 -0.33385076212E+02  0.10298455572E+03  0.90657797784E+02 0.  0.
          5    1    3    3  502    0 -0.82824835870E+01  0.71963054131E+02 -0.57804428204E+02  0.92769095146E+02  0.41800000000E+01 0.  1.
         -5    1    3    3    0  502  0.32761202377E+02 -0.46016735877E+02 -0.29420672101E+02  0.63826990441E+02  0.41800000000E+01 0.  1.
        -11    1    4    4    0    0  0.10185868626E+02 -0.49564523733E+02 -0.20770798407E+01  0.50642948109E+02  0.00000000000E+00 0.  1.
         11    1    4    4    0    0 -0.34664587416E+02  0.23618205478E+02 -0.31307996371E+02  0.52341607613E+02  0.00000000000E+00 0. -1.
</event>
<event>
 8    1  0.6597859E-009  0.1053224E+03  0.7561462E-02  0.1269486E+00
         -2   -1    0    0    0  501 -0.00000000000E+00  0.00000000000E+00  0.83177836147E+02  0.83177836147E+02  0.00000000000E+00 0. -1.
          2   -1    0    0  501    0  0.00000000000E+00 -0.00000000000E+00 -0.27645299870E+03  0.27645299870E+03  0.00000000000E+00 0.  1.
         25    2    1    2    0    0 -0.28216357042E+02  0.27550559416E+02  0.11859493064E+02  0.13169491767E+03  0.12509079756E+03 0.  0.
         23    2    1    2    0    0  0.28216357042E+02 -0.27550559416E+02 -0.20513465561E+03  0.22793591718E+03  0.91210521741E+02 0.  0.
          5    1    3    3  502    0  0.41070215309E+02  0.41488012677E+02  0.16308258631E+02  0.60757299816E+02  0.41800000000E+01 0. -1.
         -5    1    3    3    0  502 -0.69286572351E+02 -0.13937453261E+02 -0.44487655668E+01  0.70937617853E+02  0.41800000000E+01 0. -1.
        -11    1    4    4    0    0  0.50135966675E+02 -0.31266953260E+02 -0.19452668163E+03  0.20330240379E+03  0.00000000000E+00 0.  1.
         11    1    4    4    0    0 -0.21919609633E+02  0.37163938442E+01 -0.10607973982E+02  0.24633513385E+02  0.00000000000E+00 0. -1.
</event>
<event>
 8    1  0.6597859E-009  0.1065824E+03  0.7561462E-02  0.1267033E+00
          1   -1    0    0  501    0  0.00000000000E+00  0.00000000000E+00  0.11527618788E+03  0.11527618788E+03  0.00000000000E+00 0. -1.
         -1   -1    0    0    0  501 -0.00000000000E+00 -0.00000000000E+00 -0.11655046798E+03  0.11655046798E+03  0.00000000000E+00 0.  1.
         25    2    1    2    0    0 -0.38680679807E+02 -0.13396802506E+02 -0.11138818423E+02  0.13208740940E+03  0.12508933263E+03 0.  0.
         23    2    1    2    0    0  0.38680679807E+02  0.13396802506E+02  0.98645383230E+01  0.99739246462E+02  0.90415368499E+02 0.  0.
          5    1    3    3  502    0  0.39213704160E+02  0.17536412832E+02  0.12450319223E+02  0.44919074097E+02  0.41800000000E+01 0. -1.
         -5    1    3    3    0  502 -0.77894383967E+02 -0.30933215338E+02 -0.23589137646E+02  0.87168335304E+02  0.41800000000E+01 0. -1.
        -11    1    4    4    0    0 -0.23119293151E+02  0.16061239903E+01 -0.19520345760E+02  0.30300581656E+02  0.00000000000E+00 0.  1.
         11    1    4    4    0    0  0.61799972958E+02  0.11790678516E+02  0.29384884083E+02  0.69438664806E+02  0.00000000000E+00 0. -1.
</event>
<event>
 7    1  0.6597859E-009  0.1273829E+03  0.7561462E-02  0.1231392E+00
          3   -1    0    0  501    0  0.00000000000E+00  0.00000000000E+00  0.52340925906E+02  0.52340925906E+02  0.00000000000E+00 0. -1.
         -3   -1    0    0    0  501 -0.00000000000E+00 -0.00000000000E+00 -0.39696207539E+03  0.39696207539E+03  0.00000000000E+00 0.  1.
         25    2    1    2    0    0 -0.47649651312E+02 -0.10513794242E+03 -0.22248762219E+03  0.28013093162E+03  0.12509244826E+03 0.  0.
          5    1    3    3  502    0  0.57581417604E+01 -0.78659674585E+02 -0.20211068650E+03  0.21699470638E+03  0.41800000000E+01 0. -1.
         -5    1    3    3    0  502 -0.53407793072E+02 -0.26478267836E+02 -0.20376935699E+02  0.63136225235E+02  0.41800000000E+01 0. -1.
        -11    1    1    2    0    0  0.18825571953E+01  0.13138554442E+02 -0.22017776159E+02  0.25708910934E+02  0.00000000000E+00 0.  1.
         11    1    1    2    0    0  0.45767094117E+02  0.91999387978E+02 -0.10011575113E+03  0.14346315874E+03  0.00000000000E+00 0. -1.
</event>
<event>
 8    1  0.6597859E-009  0.9123752E+02  0.7561462E-02  0.1299882E+00
          2   -1    0    0  501    0  0.00000000000E+00  0.00000000000E+00  0.27059436398E+03  0.27059436398E+03  0.00000000000E+00 0.  1.
         -2   -1    0    0    0  501 -0.00000000000E+00 -0.00000000000E+00 -0.65509655386E+02  0.65509655386E+02  0.00000000000E+00 0. -1.
         25    2    1    2    0    0 -0.64915080031E+02  0.19805022621E+02  0.62388854992E+02  0.15538953625E+03  0.12508929695E+03 0.  0.
         23    2    1    2    0    0  0.64915080031E+02 -0.19805022621E+02  0.14269585360E+03  0.18071448311E+03  0.87689288035E+02 0.  0.
          5    1    3    3  502    0 -0.85060874396E+02  0.23673749101E+02 -0.12437617442E+01  0.88401459789E+02  0.41800000000E+01 0. -1.
         -5    1    3    3    0  502  0.20145794365E+02 -0.38687264810E+01  0.63632616736E+02  0.66988076460E+02  0.41800000000E+01 0. -1.
        -11    1    4    4    0    0  0.30776421639E+02  0.46870879318E+01  0.13430932192E+03  0.13787005069E+03  0.00000000000E+00 0.  1.
         11    1    4    4    0    0  0.34138658392E+02 -0.24492110552E+02  0.83865316776E+01  0.42844432423E+02  0.00000000000E+00 0. -1.
</event>
<event>
 8    1  0.6597859E-009  0.1903719E+03  0.7561462E-02  0.1158126E+00
          2   -1    0    0  501    0  0.00000000000E+00  0.00000000000E+00  0.72393652194E+02  0.72393652194E+02  0.00000000000E+00 0. -1.
         -2   -1    0    0    0  501 -0.00000000000E+00 -0.00000000000E+00 -0.57893099240E+03  0.57893099240E+03  0.00000000000E+00 0.  1.
         25    2    1    2    0    0 -0.16491782063E+03  0.50067617580E+02 -0.23524416048E+03  0.31731465745E+03  0.12507646821E+03 0.  0.
         23    2    1    2    0    0  0.16491782063E+03 -0.50067617580E+02 -0.27129317973E+03  0.33400998715E+03  0.90873693983E+02 0.  0.
          5    1    3    3  502    0 -0.17247440972E+03  0.28101318799E+02 -0.23601825213E+03  0.29369915536E+03  0.41800000000E+01 0. -1.
         -5    1    3    3    0  502  0.75565890894E+01  0.21966298781E+02  0.77409164510E+00  0.23615502084E+02  0.41800000000E+01 0. -1.
        -11    1    4    4    0    0  0.49346313138E+02  0.12522721372E+02 -0.13677298811E+03  0.14594083544E+03  0.00000000000E+00 0.  1.
         11    1    4    4    0    0  0.11557150749E+03 -0.62590338952E+02 -0.13452019161E+03  0.18806915171E+03  0.00000000000E+00 0. -1.
</event>
<event>
 8    1  0.6597859E-009  0.1078197E+03  0.7561462E-02  0.1264662E+00
          1   -1    0    0  501    0  0.00000000000E+00  0.00000000000E+00  0.71700360678E+02  0.71700360678E+02  0.00000000000E+00 0. -1.
         -1   -1    0    0    0  501 -0.00000000000E+00 -0.00000000000E+00 -0.17870443869E+03  0.17870443869E+03  0.00000000000E+00 0.  1.
         25    2    1    2    0    0  0.23214281529E+02  0.22582899042E+02 -0.68650088266E+02  0.14631504884E+03  0.12508544561E+03 0.  0.
         23    2    1    2    0    0 -0.23214281529E+02 -0.22582899042E+02 -0.38353989741E+02  0.10408975052E+03  0.91185291789E+02 0.  0.
          5    1    3    3  502    0 -0.40479920375E+02 -0.23952120064E+02 -0.10898266537E+02  0.48462074065E+02  0.41800000000E+01 0. -1.
         -5    1    3    3    0  502  0.63694201904E+02  0.46535019106E+02 -0.57751821729E+02  0.97852974776E+02  0.41800000000E+01 0. -1.
        -11    1    4    4    0    0 -0.43870142056E+02 -0.42248061860E+02 -0.63712158194E+01  0.61237900731E+02  0.00000000000E+00 0. -1.
         11    1    4    4    0    0  0.20655860527E+02  0.19665162818E+02 -0.31982773922E+02  0.42851849791E+02  0.00000000000E+00 0.  1.
</event>
<event>
 8    1  0.6597859E-009  0.1244111E+03  0.7561462E-02  0.1235993E+00
         -3   -1    0    0    0  501 -0.00000000000E+00  0.00000000000E+00  0.13207441308E+03  0.13207441308E+03  0.00000000000E+00 0.  1.
          3   -1    0    0  501    0  0.00000000000E+00 -0.00000000000E+00 -0.17486495873E+03  0.17486495873E+03  0.00000000000E+00 0. -1.
         25    2    1    2    0    0  0.77280642445E+02 -0.67101682263E+02 -0.56796011887E+02  0.17128064629E+03  0.12504534925E+03 0.  0.
         23    2    1    2    0    0 -0.77280642445E+02  0.67101682263E+02  0.14005466237E+02  0.13565872552E+03  0.87932947549E+02 0.  0.
          5    1    3    3  502    0  0.31290372671E+02  0.27017917587E+02  0.15042695488E+02  0.44190614163E+02  0.41800000000E+01 0. -1.
         -5    1    3    3    0  502  0.45990269775E+02 -0.94119599850E+02 -0.71838707375E+02  0.12709003213E+03  0.41800000000E+01 0. -1.
        -11    1    4    4    0    0 -0.12401408603E+02  0.12866393733E+02  0.42757904836E+02  0.46341962076E+02  0.00000000000E+00 0.  1.
         11    1    4    4    0    0 -0.64879233843E+02  0.54235288530E+02 -0.28752438600E+02  0.89316763440E+02  0.00000000000E+00 0. -1.
</event>
<event>
 8    1  0.6597859E-009  0.1114170E+03  0.7561462E-02  0.1257968E+00
         -1   -1    0    0    0  501 -0.00000000000E+00  0.00000000000E+00  0.73561949599E+02  0.73561949599E+02  0.00000000000E+00 0.  1.
          1   -1    0    0  501    0  0.00000000000E+00 -0.00000000000E+00 -0.17666335148E+03  0.17666335148E+03  0.00000000000E+00 0. -1.
         25    2    1    2    0    0  0.20005119360E+02  0.27001473199E+02 -0.54925137872E+02  0.14069166006E+03  0.12509231824E+03 0.  0.
         23    2    1    2    0    0 -0.20005119360E+02 -0.27001473199E+02 -0.48176264007E+02  0.10953364102E+03  0.92452051066E+02 0.  0.
          5    1    3    3  502    0 -0.39532657764E+02 -0.25770752403E+02 -0.34022378132E+02  0.58326300441E+02  0.41800000000E+01 0. -1.
         -5    1    3    3    0  502  0.59537777124E+02  0.52772225602E+02 -0.20902759739E+02  0.82365359615E+02  0.41800000000E+01 0. -1.
        -11    1    4    4    0    0 -0.45520806266E+02 -0.45432264290E+02 -0.43665071799E+02  0.77735917933E+02  0.00000000000E+00 0.  1.
         11    1    4    4    0    0  0.25515686906E+02  0.18430791091E+02 -0.45111922081E+01  0.31797723089E+02  0.00000000000E+00 0. -1.
</event>
<event>
 8    1  0.6597859E-009  0.1404781E+03  0.7561462E-02  0.1212687E+00
         -1   -1    0    0    0  501 -0.00000000000E+00  0.00000000000E+00  0.44406176420E+02  0.44406176420E+02  0.00000000000E+00 0.  1.
          1   -1    0    0  501    0  0.00000000000E+00 -0.00000000000E+00 -0.53711145376E+03  0.53711145376E+03  0.00000000000E+00 0. -1.
         25    2    1    2    0    0 -0.32940466249E+02 -0.10358570555E+03 -0.23342088143E+03  0.28627144946E+03  0.12510380560E+03 0.  0.
         23    2    1    2    0    0  0.32940466249E+02  0.10358570555E+03 -0.25928439591E+03  0.29524618072E+03  0.90148968701E+02 0.  0.
          5    1    3    3  502    0 -0.16725101505E+01  0.28593285294E+02 -0.53131043632E+02  0.60504160613E+02  0.41800000000E+01 0.  1.
         -5    1    3    3    0  502 -0.31267956099E+02 -0.13217899084E+03 -0.18028983780E+03  0.22576728884E+03  0.41800000000E+01 0.  1.
        -11    1    4    4    0    0 -0.14362049495E+01  0.62639064394E+02 -0.22041193480E+03  0.22914435641E+03  0.00000000000E+00 0. -1.
         11    1    4    4    0    0  0.34376671199E+02  0.40946641156E+02 -0.38872461112E+02  0.66101824314E+02  0.00000000000E+00 0.  1.
</event>
<event>
 8    1  0.6597859E-009  0.9712475E+02  0.7561462E-02  0.1286461E+00
          1   -1    0    0  501    0  0.00000000000E+00  0.00000000000E+00  0.27852652524E+03  0.27852652524E+03  0.00000000000E+00 0. -1.
         -1   -1    0    0    0  501 -0.00000000000E+00 -0.00000000000E+00 -0.61781631084E+02  0.61781631084E+02  0.00000000000E+00 0.  1.
         25    2    1    2    0    0 -0.61503246342E+02 -0.27622758762E+02  0.13642673621E+03  0.19698860945E+03  0.12508633733E+03 0.  0.
         23    2    1    2    0    0  0.61503246342E+02  0.27622758762E+02  0.80318157942E+02  0.14331954688E+03  0.97692476217E+02 0.  0.
          5    1    3    3  502    0 -0.37999696002E+02 -0.33758377357E+02  0.15687845091E+03  0.16496037615E+03  0.41800000000E+01 0. -1.
         -5    1    3    3    0  502 -0.23503550340E+02  0.61356185954E+01 -0.20451714700E+02  0.32028233299E+02  0.41800000000E+01 0. -1.
        -11    1    4    4    0    0  0.85332669890E+02  0.36978350570E+02  0.65347614413E+02  0.11366342275E+03  0.00000000000E+00 0. -1.
         11    1    4    4    0    0 -0.23829423548E+02 -0.93555918079E+01  0.14970543529E+02  0.29656124128E+02  0.00000000000E+00 0.  1.
</event>
<event>
 8    1  0.6597859E-009  0.1248453E+03  0.7561462E-02  0.1235311E+00
          2   -1    0    0  501    0  0.00000000000E+00  0.00000000000E+00  0.13928504602E+04  0.13928504602E+04  0.00000000000E+00 0. -1.
         -2   -1    0    0    0  501 -0.00000000000E+00 -0.00000000000E+00 -0.32536232005E+02  0.32536232005E+02  0.00000000000E+00 0.  1.
         25    2    1    2    0    0 -0.87159505288E+02 -0.22093995638E+02  0.12419645709E+04  0.12514826636E+04  0.12509171726E+03 0.  0.
         23    2    1    2    0    0  0.87159505288E+02  0.22093995638E+02  0.11834965727E+03  0.17390402865E+03  0.90283142397E+02 0.  0.
          5    1    3    3  502    0  0.25507635069E+02  0.20155017987E+02  0.32462487853E+03  0.32627541794E+03  0.41800000000E+01 0.  1.
         -5    1    3    3    0  502 -0.11266714036E+03 -0.42249013626E+02  0.91733969242E+03  0.92520724563E+03  0.41800000000E+01 0.  1.
        -11    1    4    4    0    0  0.18326290336E+02  0.20725577948E+02 -0.90360403303E+01  0.29104166774E+02  0.00000000000E+00 0.  1.
         11    1    4    4    0    0  0.68833214952E+02  0.13684176903E+01  0.12738569760E+03  0.14479986188E+03  0.00000000000E+00 0. -1.
</event>
<event>
 8    1  0.6597859E-009  0.1061693E+03  0.7561462E-02  0.1267833E+00
         -1   -1    0    0    0  501 -0.00000000000E+00  0.00000000000E+00  0.36213141231E+03  0.36213141231E+03  0.00000000000E+00 0.  1.
          1   -1    0    0  501    0  0.00000000000E+00 -0.00000000000E+00 -0.60337874440E+02  0.60337874440E+02  0.00000000000E+00 0. -1.
         25    2    1    2    0    0 -0.57710095477E+02 -0.14089858920E+02  0.46831101470E+02  0.14617839625E+03  0.12508394070E+03 0.  0.
         23    2    1    2    0    0  0.57710095477E+02  0.14089858920E+02  0.25496243640E+03  0.27629089050E+03  0.88327985122E+02 0.  0.
          5    1    3    3  502    0  0.15312174144E+02 -0.48591299913E+02 -0.29688607995E+01  0.51204136929E+02  0.41800000000E+01 0. -1.
         -5    1    3    3    0  502 -0.73022269621E+02  0.34501440992E+02  0.49799962270E+02  0.94974259319E+02  0.41800000000E+01 0. -1.
        -11    1    4    4    0    0 -0.10236282661E+02  0.61489305910E+01 -0.37633335349E+00  0.11947068968E+02  0.00000000000E+00 0. -1.
         11    1    4    4    0    0  0.67946378138E+02  0.79409283295E+01  0.25533876975E+03  0.26434382153E+03  0.00000000000E+00 0.  1.
</event>
<event>
 8    1  0.6597859E-009  0.7017966E+02  0.7561462E-02  0.1359483E+00
         -1   -1    0    0    0  501 -0.00000000000E+00  0.00000000000E+00  0.22213584211E+03  0.22213584211E+03  0.00000000000E+00 0.  1.
          1   -1    0    0  501    0  0.00000000000E+00 -0.00000000000E+00 -0.58951715561E+02  0.58951715561E+02  0.00000000000E+00 0. -1.
         25    2    1    2    0    0 -0.30039374903E+02  0.14088059621E+02  0.64899920395E+02  0.14477372506E+03  0.12508634750E+03 0.  0.
         23    2    1    2    0    0  0.30039374903E+02 -0.14088059621E+02  0.98284206155E+02  0.13631383262E+03  0.88435503699E+02 0.  0.
          5    1    3    3  502    0 -0.11450062908E+02  0.24644474948E+02  0.99863944427E+02  0.10357960167E+03  0.41800000000E+01 0. -1.
         -5    1    3    3    0  502 -0.18589311994E+02 -0.10556415327E+02 -0.34964024031E+02  0.41194123385E+02  0.41800000000E+01 0. -1.
        -11    1    4    4    0    0  0.39998934779E+02  0.27355952471E+02  0.34055736638E+02  0.59228845312E+02  0.00000000000E+00 0. -1.
         11    1    4    4    0    0 -0.99595598758E+01 -0.41444012092E+02  0.64228469517E+02  0.77084987304E+02  0.00000000000E+00 0.  1.
</event>
<event>
 8    1  0.6597859E-009  0.1579345E+03  0.7561462E-02  0.1191049E+00
          2   -1    0    0  501    0  0.00000000000E+00  0.00000000000E+00  0.23331100619E+03  0.23331100619E+03  0.00000000000E+00 0.  1.
         -2   -1    0    0    0  501 -0.00000000000E+00 -0.00000000000E+00 -0.18728279961E+03  0.18728279961E+03  0.00000000000E+00 0. -1.
         25    2    1    2    0    0  0.75010319995E+02  0.11680276886E+03 -0.88656865179E+02  0.20682729508E+03  0.12509218733E+03 0.  0.
         23    2    1    2    0    0 -0.75010319995E+02 -0.11680276886E+03  0.13468507176E+03  0.21376651071E+03  0.91030860850E+02 0.  0.
          5    1    3    3  502    0  0.92429479493E+02  0.47632076399E+02 -0.16655598060E+02  0.10538930082E+03  0.41800000000E+01 0.  1.
         -5    1    3    3    0  502 -0.17419159498E+02  0.69170692457E+02 -0.72001267119E+02  0.10143799426E+03  0.41800000000E+01 0.  1.
        -11    1    4    4    0    0 -0.23504245261E+02 -0.55574156864E+02  0.39228809625E+01  0.60467557015E+02  0.00000000000E+00 0. -1.
         11    1    4    4    0    0 -0.51506074734E+02 -0.61228611992E+02  0.13076219080E+03  0.15329895369E+03  0.00000000000E+00 0.  1.
</event>
<event>
 8    1  0.6597859E-009  0.8704927E+02  0.7561462E-02  0.1310159E+00
         -1   -1    0    0    0  501 -0.00000000000E+00  0.00000000000E+00  0.10060241768E+03  0.10060241768E+03  0.00000000000E+00 0.  1.
          1   -1    0    0  501    0  0.00000000000E+00 -0.00000000000E+00 -0.15227375247E+03  0.15227375247E+03  0.00000000000E+00 0. -1.
         25    2    1    2    0    0 -0.47740966153E+01 -0.43479817536E+02  0.13850887758E+02  0.13323990308E+03  0.12509091953E+03 0.  0.
         23    2    1    2    0    0  0.47740966153E+01  0.43479817536E+02 -0.65522222545E+02  0.11963626707E+03  0.90035483120E+02 0.  0.
          5    1    3    3  502    0 -0.39004153636E+02 -0.95269844462E+01  0.56021276536E+02  0.69050295135E+02  0.41800000000E+01 0.  1.
         -5    1    3    3    0  502  0.34230057021E+02 -0.33952833090E+02 -0.42170388779E+02  0.64189607946E+02  0.41800000000E+01 0.  1.
        -11    1    4    4    0    0 -0.19661547500E+02 -0.13154263898E+02  0.67705571769E+01  0.24605925166E+02  0.00000000000E+00 0.  1.
         11    1    4    4    0    0  0.24435644115E+02  0.56634081434E+02 -0.72292779722E+02  0.95030341908E+02  0.00000000000E+00 0. -1.
</event>
<event>
 8    1  0.6597859E-009  0.1317770E+03  0.7561462E-02  0.1224843E+00
         -1   -1    0    0    0  501 -0.00000000000E+00  0.00000000000E+00  0.73825552946E+02  0.73825552946E+02  0.00000000000E+00 0.  1.
          1   -1    0    0  501    0  0.00000000000E+00 -0.00000000000E+00 -0.23934943104E+03  0.23934943104E+03  0.00000000000E+00 0. -1.
         25    2    1    2    0    0 -0.67078121493E+02  0.34098536491E+02 -0.73758249585E+02  0.16355265212E+03  0.12508799326E+03 0.  0.
         23    2    1    2    0    0  0.67078121493E+02 -0.34098536491E+02 -0.91765628512E+02  0.14962233187E+03  0.91124788313E+02 0.  0.
          5    1    3    3  502    0 -0.92955342569E+01 -0.45668102781E+02 -0.30772818839E+02  0.56003761910E+02  0.41800000000E+01 0. -1.
         -5    1    3    3    0  502 -0.57782587236E+02  0.79766639272E+02 -0.42985430746E+02  0.10754889021E+03  0.41800000000E+01 0. -1.
        -11    1    4    4    0    0  0.42090513845E+01 -0.52501638759E+02 -0.40775184479E+02  0.66608962275E+02  0.00000000000E+00 0. -1.
         11    1    4    4    0    0  0.62869070109E+02  0.18403102268E+02 -0.50990444033E+02  0.83013369598E+02  0.00000000000E+00 0.  1.
</event>
<event>
 8    1  0.6597859E-009  0.1032272E+03  0.7561462E-02  0.1273652E+00
          1   -1    0    0  501    0  0.00000000000E+00  0.00000000000E+00  0.42039317970E+02  0.42039317970E+02  0.00000000000E+00 0. -1.
         -1   -1    0    0    0  501 -0.00000000000E+00 -0.00000000000E+00 -0.30322943185E+03  0.30322943185E+03  0.00000000000E+00 0.  1.
         25    2    1    2    0    0  0.34571914166E+01 -0.30173142896E+02 -0.16864732657E+03  0.21215974423E+03  0.12508983007E+03 0.  0.
         23    2    1    2    0    0 -0.34571914166E+01  0.30173142896E+02 -0.92542787316E+02  0.13310900560E+03  0.90727444369E+02 0.  0.
          5    1    3    3  502    0 -0.52348739693E+02 -0.39941455030E+02 -0.12181702109E+03  0.13853724916E+03  0.41800000000E+01 0. -1.
         -5    1    3    3    0  502  0.55805931109E+02  0.97683121336E+01 -0.46830305473E+02  0.73622495065E+02  0.41800000000E+01 0. -1.
        -11    1    4    4    0    0 -0.27075167674E+02 -0.16253032241E+02 -0.69129020641E+02  0.76000310897E+02  0.00000000000E+00 0.  1.
         11    1    4    4    0    0  0.23617976258E+02  0.46426175137E+02 -0.23413766675E+02  0.57108694700E+02  0.00000000000E+00 0. -1.
</event>
<event>
 8    1  0.6597859E-009  0.1325959E+03  0.7561462E-02  0.1223654E+00
          4   -1    0    0  501    0  0.00000000000E+00  0.00000000000E+00  0.12393272449E+03  0.12393272449E+03  0.00000000000E+00 0. -1.
         -4   -1    0    0    0  501 -0.00000000000E+00 -0.00000000000E+00 -0.24378271957E+03  0.24378271957E+03  0.00000000000E+00 0.  1.
         25    2    1    2    0    0 -0.13997988445E+02 -0.11175067724E+03 -0.14331508849E+03  0.22106355709E+03  0.12508286909E+03 0.  0.
         23    2    1    2    0    0  0.13997988445E+02  0.11175067724E+03  0.23465093415E+02  0.14665188697E+03  0.90950578887E+02 0.  0.
          5    1    3    3  502    0 -0.51927495550E+02 -0.30686472119E+02 -0.10990973710E+03  0.12544220611E+03  0.41800000000E+01 0.  1.
         -5    1    3    3    0  502  0.37929507105E+02 -0.81064205123E+02 -0.33405351396E+02  0.95621350980E+02  0.41800000000E+01 0.  1.
        -11    1    4    4    0    0 -0.54190650899E+01  0.52584071194E+02  0.55480633784E+02  0.76632574894E+02  0.00000000000E+00 0. -1.
         11    1    4    4    0    0  0.19417053535E+02  0.59166606047E+02 -0.32015540369E+02  0.70019312081E+02  0.00000000000E+00 0.  1.
</event>
<event>
 8    1  0.6597859E-009  0.8607748E+02  0.7561462E-02  0.1312639E+00
          2   -1    0    0  501    0  0.00000000000E+00  0.00000000000E+00  0.26500160992E+03  0.26500160992E+03  0.00000000000E+00 0. -1.
         -2   -1    0    0    0  501 -0.00000000000E+00 -0.00000000000E+00 -0.62310037642E+02  0.62310037642E+02  0.00000000000E+00 0.  1.
         25    2    1    2    0    0  0.27467768386E+02 -0.51311789399E+02  0.65788160965E+02  0.15284415474E+03  0.12508347406E+03 0.  0.
         23    2    1    2    0    0 -0.27467768386E+02  0.51311789399E+02  0.13690341132E+03  0.17446749282E+03  0.91153628511E+02 0.  0.
          5    1    3    3  502    0  0.23837056280E+02 -0.14916344656E+02 -0.35263432952E+02  0.45295526198E+02  0.41800000000E+01 0. -1.
         -5    1    3    3    0  502  0.36307121067E+01 -0.36395444743E+02  0.10105159392E+03  0.10754862854E+03  0.41800000000E+01 0. -1.
        -11    1    4    4    0    0  0.32631764581E+02  0.25900782227E+02  0.66533132382E+02  0.78500575057E+02  0.00000000000E+00 0. -1.
         11    1    4    4    0    0 -0.60099532967E+02  0.25411007171E+02  0.70370278935E+02  0.95966917767E+02  0.00000000000E+00 0.  1.
</event>
<event>
 8    1  0.6597859E-009  0.1503795E+03  0.7561462E-02  0.1200007E+00
          2   -1    0    0  501    0  0.00000000000E+00  0.00000000000E+00  0.47155457562E+03  0.47155457562E+03  0.00000000000E+00 0. -1.
         -2   -1    0    0    0  501 -0.00000000000E+00 -0.00000000000E+00 -0.55747028812E+02  0.55747028812E+02  0.00000000000E+00 0.  1.
         25    2    1    2    0    0 -0.72484571749E+02  0.88740710312E+02  0.27473991884E+03  0.32289159875E+03  0.12509210497E+03 0.  0.
         23    2    1    2    0    0  0.72484571749E+02 -0.88740710312E+02  0.14106762796E+03  0.20441000568E+03  0.93565206974E+02 0.  0.
          5    1    3    3  502    0  0.25329898689E+02  0.42797213664E+02  0.38357235645E+02  0.62944063988E+02  0.41800000000E+01 0.  1.
         -5    1    3    3    0  502 -0.97814470438E+02  0.45943496649E+02  0.23638268320E+03  0.25994753476E+03  0.41800000000E+01 0.  1.
        -11    1    4    4    0    0  0.62443946781E+02 -0.98962119900E+01  0.89818229067E+02  0.10983849860E+03  0.00000000000E+00 0.  1.
         11    1    4    4    0    0  0.10040624968E+02 -0.78844498322E+02  0.51249398897E+02  0.94571507087E+02  0.00000000000E+00 0. -1.
</event>
<event>
 8    1  0.6597859E-009  0.1455853E+03  0.7561462E-02  0.1206005E+00
         -2   -1    0    0    0  501 -0.00000000000E+00  0.00000000000E+00  0.25610566122E+03  0.25610566122E+03  0.00000000000E+00 0.  1.
          2   -1    0    0  501    0  0.00000000000E+00 -0.00000000000E+00 -0.97983495563E+02  0.97983495563E+02  0.00000000000E+00 0. -1.
         25    2    1    2    0    0 -0.35252017624E+02 -0.10730841715E+03  0.10746373811E+03  0.19988501830E+03  0.12509102443E+03 0.  0.
         23    2    1    2    0    0  0.35252017624E+02  0.10730841715E+03  0.50658427549E+02  0.15420413849E+03  0.91950197965E+02 0.  0.
          5    1    3    3  502    0 -0.29035592713E+01  0.20434319121E+02 -0.99950430364E+01  0.23310198190E+02  0.41800000000E+01 0.  1.
         -5    1    3    3    0  502 -0.32348458353E+02 -0.12774273627E+03  0.11745878115E+03  0.17657482011E+03  0.41800000000E+01 0.  1.
        -11    1    4    4    0    0 -0.25779927031E+02  0.38013123411E+02  0.40627757862E+02  0.61320607450E+02  0.00000000000E+00 0.  1.
         11    1    4    4    0    0  0.61031944655E+02  0.69295293742E+02  0.10030669687E+02  0.92883531035E+02  0.00000000000E+00 0. -1.
</event>
<event>
 8    1  0.6597859E-009  0.1204158E+03  0.7561462E-02  0.1242413E+00
         -1   -1    0    0    0  501 -0.00000000000E+00  0.00000000000E+00  0.68864971711E+02  0.68864971711E+02  0.00000000000E+00 0.  1.
          1   -1    0    0  501    0  0.00000000000E+00 -0.00000000000E+00 -0.28516359245E+03  0.28516359245E+03  0.00000000000E+00 0. -1.
         25    2    1    2    0    0 -0.15583746892E+02  0.29578063199E+02 -0.19823506038E+03  0.23677456048E+03  0.12508932143E+03 0.  0.
         23    2    1    2    0    0  0.15583746892E+02 -0.29578063199E+02 -0.18063560363E+02  0.11725400369E+03  0.11092562453E+03 0.  0.
          5    1    3    3  502    0  0.53264608700E+02  0.24727841266E+02 -0.10902283457E+03  0.12390333139E+03  0.41800000000E+01 0. -1.
         -5    1    3    3    0  502 -0.68848355593E+02  0.48502219331E+01 -0.89212225813E+02  0.11287122908E+03  0.41800000000E+01 0. -1.
        -11    1    4    4    0    0 -0.28895999020E+02  0.27877992960E+02  0.62449796411E+01  0.40634480698E+02  0.00000000000E+00 0.  1.
         11    1    4    4    0    0  0.44479745913E+02 -0.57456056159E+02 -0.24308540004E+02  0.76619522988E+02  0.00000000000E+00 0. -1.
</event>
<event>
 8    1  0.6597859E-009  0.1093028E+03  0.7561462E-02  0.1261866E+00
         -3   -1    0    0    0  501 -0.00000000000E+00  0.00000000000E+00  0.15749475145E+03  0.15749475145E+03  0.00000000000E+00 0.  1.
          3   -1    0    0  501    0  0.00000000000E+00 -0.00000000000E+00 -0.87876663345E+02  0.87876663345E+02  0.00000000000E+00 0. -1.
         25    2    1    2    0    0  0.11102901546E+02  0.26176656465E+02  0.75653907917E+02  0.14892700078E+03  0.12508895240E+03 0.  0.
         23    2    1    2    0    0 -0.11102901546E+02 -0.26176656465E+02 -0.60358198149E+01  0.96444414012E+02  0.91959785270E+02 0.  0.
          5    1    3    3  502    0  0.29119765652E+02  0.72585563952E+02  0.46445703041E+02  0.91056578987E+02  0.41800000000E+01 0. -1.
         -5    1    3    3    0  502 -0.18016864106E+02 -0.46408907487E+02  0.29208204877E+02  0.57870421793E+02  0.41800000000E+01 0. -1.
        -11    1    4    4    0    0  0.18942272885E+02  0.24768547717E+02  0.13748729256E+02  0.34078119288E+02  0.00000000000E+00 0.  1.
         11    1    4    4    0    0 -0.30045174431E+02 -0.50945204182E+02 -0.19784549070E+02  0.62366294724E+02  0.00000000000E+00 0. -1.
</event>
<event>
 8    1  0.6597859E-009  0.9280946E+02  0.7561462E-02  0.1296187E+00
         -2   -1    0    0    0  501 -0.00000000000E+00  0.00000000000E+00  0.11719992235E+03  0.11719992235E+03  0.00000000000E+00 0. -1.
          2   -1    0    0  501    0  0.00000000000E+00 -0.00000000000E+00 -0.11688894240E+03  0.11688894240E+03  0.00000000000E+00 0.  1.
         25    2    1    2    0    0 -0.79716623547E+01  0.86385584681E+00 -0.43110174158E+02  0.13256859049E+03  0.12510655627E+03 0.  0.
         23    2    1    2    0    0  0.79716623547E+01 -0.86385584681E+00  0.43421154111E+02  0.10152027425E+03  0.91414855533E+02 0.  0.
          5    1    3    3  502    0  0.47773523599E+02  0.16509602311E+02  0.12440125140E+02  0.52221697014E+02  0.41800000000E+01 0.  1.
         -5    1    3    3    0  502 -0.55745185954E+02 -0.15645746464E+02 -0.55550299298E+02  0.80346893478E+02  0.41800000000E+01 0.  1.
        -11    1    4    4    0    0  0.39057033559E+02  0.15138475367E+02 -0.45779978205E+01  0.42137671636E+02  0.00000000000E+00 0.  1.
         11    1    4    4    0    0 -0.31085371204E+02 -0.16002331214E+02  0.47999151931E+02  0.59382602615E+02  0.00000000000E+00 0. -1.
</event>
<event>
 8    1  0.6597859E-009  0.1508906E+03  0.7561462E-02  0.1199383E+00
         -1   -1    0    0    0  501 -0.00000000000E+00  0.00000000000E+00  0.64497525542E+03  0.64497525542E+03  0.00000000000E+00 0.  1.
          1   -1    0    0  501    0  0.00000000000E+00 -0.00000000000E+00 -0.46547990587E+02  0.46547990587E+02  0.00000000000E+00 0. -1.
         25    2    1    2    0    0 -0.10111568553E+03  0.41595769089E+02  0.16116542102E+03  0.23146552304E+03  0.12508959013E+03 0.  0.
         23    2    1    2    0    0  0.10111568553E+03 -0.41595769089E+02  0.43726184381E+03  0.46005772297E+03  0.92198690558E+02 0.  0.
          5    1    3    3  502    0  0.22940288837E+02  0.31229341201E+02  0.57221755650E+02  0.69233881326E+02  0.41800000000E+01 0. -1.
         -5    1    3    3    0  502 -0.12405597436E+03  0.10366427888E+02  0.10394366537E+03  0.16223164172E+03  0.41800000000E+01 0. -1.
        -11    1    4    4    0    0  0.61756737127E+00  0.20240554379E+02  0.11721468992E+03  0.11895101918E+03  0.00000000000E+00 0.  1.
         11    1    4    4    0    0  0.10049811816E+03 -0.61836323468E+02  0.32004715390E+03  0.34110670379E+03  0.00000000000E+00 0. -1.
</event>
<event>
 8    1  0.6597859E-009  0.8624099E+02  0.7561462E-02  0.1312219E+00
         -2   -1    0    0    0  501 -0.00000000000E+00  0.00000000000E+00  0.56473641556E+02  0.56473641556E+02  0.00000000000E+00 0.  1.
          2   -1    0    0  501    0  0.00000000000E+00 -0.00000000000E+00 -0.24580771537E+03  0.24580771537E+03  0.00000000000E+00 0. -1.
         25    2    1    2    0    0 -0.33091777715E+02 -0.72780497906E+01 -0.64659786472E+02  0.14482289706E+03  0.12507896612E+03 0.  0.
         23    2    1    2    0    0  0.33091777715E+02  0.72780497906E+01 -0.12467428734E+03  0.15745845986E+03  0.90008071291E+02 0.  0.
          5    1    3    3  502    0  0.11298785614E+02 -0.34175805430E+02  0.22959541932E+02  0.42898265686E+02  0.41800000000E+01 0.  1.
         -5    1    3    3    0  502 -0.44390563329E+02  0.26897755640E+02 -0.87619328404E+02  0.10192463138E+03  0.41800000000E+01 0.  1.
        -11    1    4    4    0    0  0.42074390130E+02  0.35190448380E+02 -0.40101313900E+02  0.67946577092E+02  0.00000000000E+00 0.  1.
         11    1    4    4    0    0 -0.89826124148E+01 -0.27912398589E+02 -0.84572973437E+02  0.89511882769E+02  0.00000000000E+00 0. -1.
</event>
<event>
 8    1  0.6597859E-009  0.9740150E+02  0.7561462E-02  0.1285857E+00
          1   -1    0    0  501    0  0.00000000000E+00  0.00000000000E+00  0.36601984635E+03  0.36601984635E+03  0.00000000000E+00 0. -1.
         -1   -1    0    0    0  501 -0.00000000000E+00 -0.00000000000E+00 -0.49873283404E+02  0.49873283404E+02  0.00000000000E+00 0.  1.
         25    2    1    2    0    0 -0.44566970583E+02  0.61600111741E+02  0.13751460724E+03  0.20084524411E+03  0.12509099186E+03 0.  0.
         23    2    1    2    0    0  0.44566970583E+02 -0.61600111741E+02  0.17863195570E+03  0.21504788564E+03  0.92495561447E+02 0.  0.
          5    1    3    3  502    0 -0.38082089536E+02  0.52287035987E+02  0.16147841522E+03  0.17400267429E+03  0.41800000000E+01 0. -1.
         -5    1    3    3    0  502 -0.64848810472E+01  0.93130757541E+01 -0.23963807978E+02  0.26842569828E+02  0.41800000000E+01 0. -1.
        -11    1    4    4    0    0  0.61078630084E+02 -0.77547612119E+01  0.74386627472E+02  0.96561409067E+02  0.00000000000E+00 0.  1.
         11    1    4    4    0    0 -0.16511659501E+02 -0.53845350529E+02  0.10424532823E+03  0.11848647658E+03  0.00000000000E+00 0. -1.
</event>
<event>
 8    1  0.6597859E-009  0.9315572E+02  0.7561462E-02  0.1295385E+00
         -2   -1    0    0    0  501 -0.00000000000E+00  0.00000000000E+00  0.43848774408E+02  0.43848774408E+02  0.00000000000E+00 0.  1.
          2   -1    0    0  501    0  0.00000000000E+00 -0.00000000000E+00 -0.29295895872E+03  0.29295895872E+03  0.00000000000E+00 0. -1.
         25    2    1    2    0    0 -0.26968187925E+02 -0.15889491174E+02 -0.15787961903E+03  0.20384463986E+03  0.12508758533E+03 0.  0.
         23    2    1    2    0    0  0.26968187925E+02  0.15889491174E+02 -0.91230565286E+02  0.13296309327E+03  0.91522724177E+02 0.  0.
          5    1    3    3  502    0 -0.32631492572E+01  0.54365423008E+02 -0.63928928462E+02  0.84087024304E+02  0.41800000000E+01 0.  1.
         -5    1    3    3    0  502 -0.23705038668E+02 -0.70254914182E+02 -0.93950690569E+02  0.11975761555E+03  0.41800000000E+01 0.  1.
        -11    1    4    4    0    0 -0.62551116588E+01  0.22668826086E+02 -0.95894613941E+02  0.98735905733E+02  0.00000000000E+00 0. -1.
         11    1    4    4    0    0  0.33223299584E+02 -0.67793349114E+01  0.46640486555E+01  0.34227187541E+02  0.00000000000E+00 0.  1.
</event>
<event>
 8    1  0.6597859E-009  0.1085129E+03  0.7561462E-02  0.1263349E+00
         -2   -1    0    0    0  501 -0.00000000000E+00  0.00000000000E+00  0.42922621617E+02  0.42922621617E+02  0.00000000000E+00 0.  1.
          2   -1    0    0  501    0  0.00000000000E+00 -0.00000000000E+00 -0.38426433037E+03  0.38426433037E+03  0.00000000000E+00 0. -1.
         25    2    1    2    0    0 -0.53216981097E+02 -0.43662736456E+02 -0.18463355094E+03  0.23339272911E+03  0.12507652152E+03 0.  0.
         23    2    1    2    0    0  0.53216981097E+02  0.43662736456E+02 -0.15670815782E+03  0.19379422288E+03  0.90886041087E+02 0.  0.
          5    1    3    3  502    0 -0.14882904796E+02  0.24357785988E+02  0.40665079646E+01  0.29134369402E+02  0.41800000000E+01 0.  1.
         -5    1    3    3    0  502 -0.38334076301E+02 -0.68020522444E+02 -0.18870005890E+03  0.20425835971E+03  0.41800000000E+01 0.  1.
        -11    1    4    4    0    0  0.40003476024E+02  0.69940784505E+02 -0.13508038263E+03  0.15728541319E+03  0.00000000000E+00 0.  1.
         11    1    4    4    0    0  0.13213505073E+02 -0.26278048049E+02 -0.21627775186E+02  0.36508809691E+02  0.00000000000E+00 0. -1.
</event>
<event>
 8    1  0.6597859E-009  0.1141009E+03  0.7561462E-02  0.1253159E+00
         -1   -1    0    0    0  501 -0.00000000000E+00  0.00000000000E+00  0.70092289991E+02  0.70092289991E+02  0.00000000000E+00 0.  1.
          1   -1    0    0  501    0  0.00000000000E+00 -0.00000000000E+00 -0.22479515365E+03  0.22479515365E+03  0.00000000000E+00 0. -1.
         25    2    1    2    0    0 -0.35789626485E+02  0.10148782392E+02 -0.14718970893E+03  0.19671183928E+03  0.12508733809E+03 0.  0.
         23    2    1    2    0    0  0.35789626485E+02 -0.10148782392E+02 -0.75131547237E+01  0.98175604356E+02  0.90543396494E+02 0.  0.
          5    1    3    3  502    0  0.87245918702E+01  0.61485004572E+02 -0.75525287256E+02  0.97867592724E+02  0.41800000000E+01 0.  1.
         -5    1    3    3    0  502 -0.44514218355E+02 -0.51336222179E+02 -0.71664421678E+02  0.98844246559E+02  0.41800000000E+01 0.  1.
        -11    1    4    4    0    0  0.56641578082E+02  0.20992162855E+02 -0.42183097164E+01  0.60553558160E+02  0.00000000000E+00 0.  1.
         11    1    4    4    0    0 -0.20851951598E+02 -0.31140945247E+02 -0.32948450073E+01  0.37622046196E+02  0.00000000000E+00 0. -1.
</event>
<event>
 8    1  0.6597859E-009  0.7897252E+02  0.7561462E-02  0.1331993E+00
         -2   -1    0    0    0  501 -0.00000000000E+00  0.00000000000E+00  0.71755489257E+02  0.71755489257E+02  0.00000000000E+00 0.  1.
          2   -1    0    0  501    0  0.00000000000E+00 -0.00000000000E+00 -0.17188544557E+03  0.17188544557E+03  0.00000000000E+00 0. -1.
         25    2    1    2    0    0 -0.25374801522E+02 -0.90059850028E+00 -0.63336238265E+02  0.14249160668E+03  0.12509071615E+03 0.  0.
         23    2    1    2    0    0  0.25374801522E+02  0.90059850028E+00 -0.36793718049E+02  0.10114932815E+03  0.90734322431E+02 0.  0.
          5    1    3    3  502    0 -0.18300714001E+02 -0.37426849442E+02  0.23438646252E+02  0.47984661406E+02  0.41800000000E+01 0. -1.
         -5    1    3    3    0  502 -0.70740875209E+01  0.36526250942E+02 -0.86774884517E+02  0.94506945274E+02  0.41800000000E+01 0. -1.
        -11    1    4    4    0    0 -0.18626565641E+02  0.22836202996E+02  0.12057272974E+02  0.31840523652E+02  0.00000000000E+00 0.  1.
         11    1    4    4    0    0  0.44001367163E+02 -0.21935604495E+02 -0.48850991023E+02  0.69308804497E+02  0.00000000000E+00 0. -1.
</event>
<event>
 8    1  0.6597859E-009  0.1166822E+03  0.7561462E-02  0.1248673E+00
         -1   -1    0    0    0  501 -0.00000000000E+00  0.00000000000E+00  0.59250862866E+02  0.59250862866E+02  0.00000000000E+00 0.  1.
          1   -1    0    0  501    0  0.00000000000E+00 -0.00000000000E+00 -0.93705707197E+03  0.93705707197E+03  0.00000000000E+00 0. -1.
         25    2    1    2    0    0 -0.55341507168E+02  0.10121296370E+02 -0.88022338385E+03  0.89084536510E+03  0.12508851262E+03 0.  0.
         23    2    1    2    0    0  0.55341507168E+02 -0.10121296370E+02  0.24171747462E+01  0.10546256974E+03  0.89170554700E+02 0.  0.
          5    1    3    3  502    0 -0.84751630992E+02 -0.24159890127E+02 -0.66998216073E+03  0.67576631120E+03  0.41800000000E+01 0.  1.
         -5    1    3    3    0  502  0.29410123823E+02  0.34281186497E+02 -0.21024122311E+03  0.21507905390E+03  0.41800000000E+01 0.  1.
        -11    1    4    4    0    0  0.37434739486E+02 -0.46221279524E+02  0.18174940128E+02  0.62194009759E+02  0.00000000000E+00 0.  1.
         11    1    4    4    0    0  0.17906767682E+02  0.36099983155E+02 -0.15757765382E+02  0.43268559976E+02  0.00000000000E+00 0. -1.
</event>
<event>
 8    1  0.6597859E-009  0.1104518E+03  0.7561462E-02  0.1259735E+00
          1   -1    0    0  501    0  0.00000000000E+00  0.00000000000E+00  0.32166635960E+03  0.32166635960E+03  0.00000000000E+00 0. -1.
         -1   -1    0    0    0  501 -0.00000000000E+00 -0.00000000000E+00 -0.56552304783E+02  0.56552304783E+02  0.00000000000E+00 0.  1.
         25    2    1    2    0    0 -0.27339934890E+02  0.44297933117E+02  0.61215807295E+02  0.14867646534E+03  0.12509011697E+03 0.  0.
         23    2    1    2    0    0  0.27339934890E+02 -0.44297933117E+02  0.20389824752E+03  0.22954219904E+03  0.91680678888E+02 0.  0.
          5    1    3    3  502    0  0.16089427231E+02 -0.30234053187E+02 -0.10878129674E+02  0.36176978120E+02  0.41800000000E+01 0.  1.
         -5    1    3    3    0  502 -0.43429362121E+02  0.74531986304E+02  0.72093936969E+02  0.11249948722E+03  0.41800000000E+01 0.  1.
        -11    1    4    4    0    0 -0.26318026522E+02 -0.37697352266E+02  0.58405938241E+02  0.74330226084E+02  0.00000000000E+00 0.  1.
         11    1    4    4    0    0  0.53657961412E+02 -0.66005808516E+01  0.14549230928E+03  0.15521197296E+03  0.00000000000E+00 0. -1.
</event>
<event>
 8    1  0.6597859E-009  0.1046251E+03  0.7561462E-02  0.1270860E+00
         -1   -1    0    0    0  501 -0.00000000000E+00  0.00000000000E+00  0.20015004922E+03  0.20015004922E+03  0.00000000000E+00 0.  1.
          1   -1    0    0  501    0  0.00000000000E+00 -0.00000000000E+00 -0.78171262979E+02  0.78171262979E+02  0.00000000000E+00 0. -1.
         25    2    1    2    0    0  0.52556993602E+02  0.43259920400E+02  0.65049737161E+02  0.15659872458E+03  0.12513206602E+03 0.  0.
         23    2    1    2    0    0 -0.52556993602E+02 -0.43259920400E+02  0.56929049085E+02  0.12172258762E+03  0.83317545676E+02 0.  0.
          5    1    3    3  502    0  0.42443149549E+02  0.86562481244E+02  0.34473832187E+02  0.10247146729E+03  0.41800000000E+01 0.  1.
         -5    1    3    3    0  502  0.10113844053E+02 -0.43302560845E+02  0.30575904974E+02  0.54127257295E+02  0.41800000000E+01 0.  1.
        -11    1    4    4    0    0 -0.33501581407E+02 -0.26628194254E+02  0.77890634543E+02  0.88872760931E+02  0.00000000000E+00 0.  1.
         11    1    4    4    0    0 -0.19055412195E+02 -0.16631726146E+02 -0.20961585458E+02  0.32849826688E+02  0.00000000000E+00 0. -1.
</event>
<event>
 8    1  0.6597859E-009  0.2676946E+03  0.7561462E-02  0.1102606E+00
         -1   -1    0    0    0  501 -0.00000000000E+00  0.00000000000E+00  0.10089246823E+03  0.10089246823E+03  0.00000000000E+00 0.  1.
          1   -1    0    0  501    0  0.00000000000E+00 -0.00000000000E+00 -0.87728223125E+03  0.87728223125E+03  0.00000000000E+00 0. -1.
         25    2    1    2    0    0  0.18490605885E+03 -0.18361446268E+03 -0.24054681672E+03  0.37605460218E+03  0.12509904588E+03 0.  0.
         23    2    1    2    0    0 -0.18490605885E+03  0.18361446268E+03 -0.53584294631E+03  0.60212009730E+03  0.86697329625E+02 0.  0.
          5    1    3    3  502    0  0.10215488875E+03 -0.10672909663E+03 -0.21377783856E+03  0.25989451326E+03  0.41800000000E+01 0. -1.
         -5    1    3    3    0  502  0.82751170099E+02 -0.76885366047E+02 -0.26768978157E+02  0.11616008891E+03  0.41800000000E+01 0. -1.
        -11    1    4    4    0    0 -0.12032782008E+03  0.58576686928E+02 -0.26803105263E+03  0.29958414129E+03  0.00000000000E+00 0.  1.
         11    1    4    4    0    0 -0.64578238774E+02  0.12503777575E+03 -0.26781189367E+03  0.30253595601E+03  0.00000000000E+00 0. -1.
</event>
<event>
 8    1  0.6597859E-009  0.9778703E+02  0.7561462E-02  0.1285020E+00
         -1   -1    0    0    0  501 -0.00000000000E+00  0.00000000000E+00  0.26489353179E+03  0.26489353179E+03  0.00000000000E+00 0.  1.
          1   -1    0    0  501    0  0.00000000000E+00 -0.00000000000E+00 -0.51931155205E+02  0.51931155205E+02  0.00000000000E+00 0. -1.
         25    2    1    2    0    0 -0.26037228685E+02 -0.24109912135E+02  0.16023033636E+03  0.20635334926E+03  0.12509483971E+03 0.  0.
         23    2    1    2    0    0  0.26037228685E+02  0.24109912135E+02  0.52732040234E+02  0.11047133774E+03  0.90354984662E+02 0.  0.
          5    1    3    3  502    0 -0.41189801601E+02 -0.66865255913E+02  0.12913759021E+03  0.15120036974E+03  0.41800000000E+01 0. -1.
         -5    1    3    3    0  502  0.15152572915E+02  0.42755343779E+02  0.31092746149E+02  0.55152979527E+02  0.41800000000E+01 0. -1.
        -11    1    4    4    0    0  0.15918172473E+02  0.45234033106E+02  0.67486799212E+02  0.82788731321E+02  0.00000000000E+00 0.  1.
         11    1    4    4    0    0  0.10119056212E+02 -0.21124120971E+02 -0.14754758978E+02  0.27682606415E+02  0.00000000000E+00 0. -1.
</event>
<event>
 8    1  0.6597859E-009  0.2355154E+03  0.7561462E-02  0.1122817E+00
         -2   -1    0    0    0  501 -0.00000000000E+00  0.00000000000E+00  0.26584197096E+02  0.26584197096E+02  0.00000000000E+00 0.  1.
          2   -1    0    0  501    0  0.00000000000E+00 -0.00000000000E+00 -0.37793221392E+04  0.37793221392E+04  0.00000000000E+00 0. -1.
         25    2    1    2    0    0 -0.23357556885E+03 -0.30834986096E+01 -0.30146313991E+04  0.30262547023E+04  0.12509195240E+03 0.  0.
         23    2    1    2    0    0  0.23357556885E+03  0.30834986096E+01 -0.73810654300E+03  0.77965163397E+03  0.92132226758E+02 0.  0.
          5    1    3    3  502    0 -0.11194727448E+03  0.13899705093E+02 -0.76651887086E+03  0.77478645177E+03  0.41800000000E+01 0. -1.
         -5    1    3    3    0  502 -0.12162829436E+03 -0.16983203702E+02 -0.22481125282E+04  0.22514682506E+04  0.41800000000E+01 0. -1.
        -11    1    4    4    0    0  0.84918020080E+02  0.14600264067E+02 -0.15047015414E+03  0.17339407468E+03  0.00000000000E+00 0. -1.
         11    1    4    4    0    0  0.14865754877E+03 -0.11516765458E+02 -0.58763638885E+03  0.60625755929E+03  0.00000000000E+00 0.  1.
</event>
<event>
 8    1  0.6597859E-009  0.1049551E+03  0.7561462E-02  0.1270208E+00
          1   -1    0    0  501    0  0.00000000000E+00  0.00000000000E+00  0.50074929255E+02  0.50074929255E+02  0.00000000000E+00 0. -1.
         -1   -1    0    0    0  501 -0.00000000000E+00 -0.00000000000E+00 -0.29854887384E+03  0.29854887384E+03  0.00000000000E+00 0.  1.
         25    2    1    2    0    0  0.42707629589E+02  0.17160276653E+02 -0.10028549040E+03  0.16680513697E+03  0.12509339476E+03 0.  0.
         23    2    1    2    0    0 -0.42707629589E+02 -0.17160276653E+02 -0.14818845418E+03  0.18181866613E+03  0.94761768031E+02 0.  0.
          5    1    3    3  502    0 -0.31830602601E+02 -0.17745321096E+02  0.41038056642E+00  0.36684117748E+02  0.41800000000E+01 0.  1.
         -5    1    3    3    0  502  0.74538232190E+02  0.34905597749E+02 -0.10069587097E+03  0.13012101922E+03  0.41800000000E+01 0.  1.
        -11    1    4    4    0    0 -0.18919404076E+02 -0.48158787055E+02 -0.12751445602E+03  0.13761231455E+03  0.00000000000E+00 0.  1.
         11    1    4    4    0    0 -0.23788225514E+02  0.30998510402E+02 -0.20673998164E+02  0.44206351584E+02  0.00000000000E+00 0. -1.
</event>
<event>
 8    1  0.6597859E-009  0.1121872E+03  0.7561462E-02  0.1256572E+00
          2   -1    0    0  501    0  0.00000000000E+00  0.00000000000E+00  0.89102129884E+03  0.89102129884E+03  0.00000000000E+00 0. -1.
         -2   -1    0    0    0  501 -0.00000000000E+00 -0.00000000000E+00 -0.23758823286E+02  0.23758823286E+02  0.00000000000E+00 0.  1.
         25    2    1    2    0    0 -0.64553041088E+02 -0.63612775832E+02  0.36826810775E+03  0.39935168998E+03  0.12508674086E+03 0.  0.
         23    2    1    2    0    0  0.64553041088E+02  0.63612775832E+02  0.49899436780E+03  0.51542843215E+03  0.91964173477E+02 0.  0.
          5    1    3    3  502    0 -0.38224741492E+02 -0.59706889192E+02  0.36542213631E+03  0.37225912156E+03  0.41800000000E+01 0. -1.
         -5    1    3    3    0  502 -0.26328299597E+02 -0.39058866398E+01  0.28459714402E+01  0.27092568419E+02  0.41800000000E+01 0. -1.
        -11    1    4    4    0    0 -0.20330535248E+02  0.27424061073E+02  0.18634083248E+03  0.18944211685E+03  0.00000000000E+00 0. -1.
         11    1    4    4    0    0  0.84883576336E+02  0.36188714759E+02  0.31265353533E+03  0.32598631530E+03  0.00000000000E+00 0.  1.
</event>
<event>
 8    1  0.6597859E-009  0.1134065E+03  0.7561462E-02  0.1254388E+00
         -4   -1    0    0    0  501 -0.00000000000E+00  0.00000000000E+00  0.11989566951E+02  0.11989566951E+02  0.00000000000E+00 0.  1.
          4   -1    0    0  501    0  0.00000000000E+00 -0.00000000000E+00 -0.20562624806E+04  0.20562624806E+04  0.00000000000E+00 0. -1.
         25    2    1    2    0    0  0.22530584840E+02  0.43740182232E+02 -0.16974013368E+04  0.17027195421E+04  0.12514675417E+03 0.  0.
         23    2    1    2    0    0 -0.22530584840E+02 -0.43740182232E+02 -0.34687157691E+03  0.36553250551E+03  0.10427507336E+03 0.  0.
          5    1    3    3  502    0 -0.41054548988E+02 -0.88530984896E+01 -0.91383903580E+03  0.91481315529E+03  0.41800000000E+01 0. -1.
         -5    1    3    3    0  502  0.63585133828E+02  0.52593280721E+02 -0.78356230099E+03  0.78790638679E+03  0.41800000000E+01 0. -1.
        -11    1    4    4    0    0  0.25053809930E+02  0.12759710045E+02 -0.34298567617E+02  0.44349693719E+02  0.00000000000E+00 0.  1.
         11    1    4    4    0    0 -0.47584394770E+02 -0.56499892276E+02 -0.31257300929E+03  0.32118281179E+03  0.00000000000E+00 0. -1.
</event>
<event>
 8    1  0.6597859E-009  0.1491032E+03  0.7561462E-02  0.1201579E+00
          2   -1    0    0  501    0  0.00000000000E+00  0.00000000000E+00  0.10379246317E+04  0.10379246317E+04  0.00000000000E+00 0. -1.
         -2   -1    0    0    0  501 -0.00000000000E+00 -0.00000000000E+00 -0.26610295841E+02  0.26610295841E+02  0.00000000000E+00 0.  1.
         25    2    1    2    0    0  0.12403607785E+03 -0.14102490500E+01  0.48685481363E+03  0.51774710142E+03  0.12509002382E+03 0.  0.
         23    2    1    2    0    0 -0.12403607785E+03  0.14102490500E+01  0.52445952221E+03  0.54678782610E+03  0.92369902722E+02 0.  0.
          5    1    3    3  502    0  0.75842154428E+02 -0.43377241098E+02  0.14036610705E+03  0.16538964249E+03  0.41800000000E+01 0. -1.
         -5    1    3    3    0  502  0.48193923425E+02  0.41966992048E+02  0.34648870658E+03  0.35235745893E+03  0.41800000000E+01 0. -1.
        -11    1    4    4    0    0 -0.10514482920E+02  0.28163933971E+02  0.51244167726E+02  0.59411499339E+02  0.00000000000E+00 0.  1.
         11    1    4    4    0    0 -0.11352159493E+03 -0.26753684921E+02  0.47321535448E+03  0.48737632676E+03  0.00000000000E+00 0. -1.
</event>
<event>
 8    1  0.6597859E-009  0.1328793E+03  0.7561462E-02  0.1223245E+00
         -1   -1    0    0    0  501 -0.00000000000E+00  0.00000000000E+00  0.85244425620E+02  0.85244425620E+02  0.00000000000E+00 0.  1.
          1   -1    0    0  501    0  0.00000000000E+00 -0.00000000000E+00 -0.31361027670E+03  0.31361027670E+03  0.00000000000E+00 0. -1.
         25    2    1    2    0    0 -0.58999618400E+02  0.10124124532E+03 -0.80341392376E+02  0.18929608834E+03  0.12509006758E+03 0.  0.
         23    2    1    2    0    0  0.58999618400E+02 -0.10124124532E+03 -0.14802445871E+03  0.20955861398E+03  0.90955085586E+02 0.  0.
          5    1    3    3  502    0 -0.51841315303E+01  0.21791021992E+02  0.33394634728E+02  0.40427687144E+02  0.41800000000E+01 0.  1.
         -5    1    3    3    0  502 -0.53815486869E+02  0.79450223326E+02 -0.11373602710E+03  0.14886840120E+03  0.41800000000E+01 0.  1.
        -11    1    4    4    0    0  0.65995844970E+02 -0.25332874045E+02 -0.56846917449E+02  0.90712612596E+02  0.00000000000E+00 0.  1.
         11    1    4    4    0    0 -0.69962265700E+01 -0.75908371273E+02 -0.91177541261E+02  0.11884600139E+03  0.00000000000E+00 0. -1.
</event>
<event>
 8    1  0.6597859E-009  0.1496571E+03  0.7561462E-02  0.1200895E+00
         -2   -1    0    0    0  501 -0.00000000000E+00  0.00000000000E+00  0.16617079154E+02  0.16617079154E+02  0.00000000000E+00 0.  1.
          2   -1    0    0  501    0  0.00000000000E+00 -0.00000000000E+00 -0.17248075140E+04  0.17248075140E+04  0.00000000000E+00 0. -1.
         25    2    1    2    0    0  0.42734611705E+02 -0.11583097356E+03 -0.11196776334E+04  0.11333879703E+04  0.12508887636E+03 0.  0.
         23    2    1    2    0    0 -0.42734611705E+02  0.11583097356E+03 -0.58851280146E+03  0.60803662287E+03  0.90100809119E+02 0.  0.
          5    1    3    3  502    0 -0.35020534248E+02 -0.21821667530E+02 -0.50539758299E+03  0.50709645264E+03  0.41800000000E+01 0. -1.
         -5    1    3    3    0  502  0.77755145953E+02 -0.94009306031E+02 -0.61428005037E+03  0.62629151761E+03  0.41800000000E+01 0. -1.
        -11    1    4    4    0    0 -0.38801451612E+02  0.27995545089E+02 -0.90975966406E+02  0.10279070802E+03  0.00000000000E+00 0.  1.
         11    1    4    4    0    0 -0.39331600934E+01  0.87835428472E+02 -0.49753683505E+03  0.50524591485E+03  0.00000000000E+00 0. -1.
</event>
<event>
 8    1  0.6597859E-009  0.3920638E+03  0.7561462E-02  0.1046563E+00
         -1   -1    0    0    0  501 -0.00000000000E+00  0.00000000000E+00  0.30272353528E+03  0.30272353528E+03  0.00000000000E+00 0.  1.
          1   -1    0    0  501    0  0.00000000000E+00 -0.00000000000E+00 -0.59196237791E+03  0.59196237791E+03  0.00000000000E+00 0. -1.
         25    2    1    2    0    0  0.82890320825E+02  0.37968834475E+03 -0.28000306636E+03  0.49505893372E+03  0.12509031240E+03 0.  0.
         23    2    1    2    0    0 -0.82890320825E+02 -0.37968834475E+03 -0.92357762679E+01  0.39962697948E+03  0.92641128753E+02 0.  0.
          5    1    3    3  502    0  0.12579953729E+02  0.50184258890E+01 -0.45080404197E+02  0.47256270237E+02  0.41800000000E+01 0.  1.
         -5    1    3    3    0  502  0.70310367096E+02  0.37466991886E+03 -0.23492266217E+03  0.44780266348E+03  0.41800000000E+01 0. -1.
        -11    1    4    4    0    0 -0.57398473835E+02 -0.28014055822E+03  0.34329657491E+02  0.28801361520E+03  0.00000000000E+00 0.  1.
         11    1    4    4    0    0 -0.25491846990E+02 -0.99547786531E+02 -0.43565433759E+02  0.11161336428E+03  0.00000000000E+00 0. -1.
</event>
<event>
 8    1  0.6597859E-009  0.1207604E+03  0.7561462E-02  0.1241848E+00
         -1   -1    0    0    0  501 -0.00000000000E+00  0.00000000000E+00  0.26012069233E+03  0.26012069233E+03  0.00000000000E+00 0.  1.
          1   -1    0    0  501    0  0.00000000000E+00 -0.00000000000E+00 -0.85058732601E+02  0.85058732601E+02  0.00000000000E+00 0. -1.
         25    2    1    2    0    0  0.71954760692E+02 -0.53340109683E+02  0.14675733992E+03  0.21262643964E+03  0.12509848571E+03 0.  0.
         23    2    1    2    0    0 -0.71954760692E+02  0.53340109683E+02  0.28304619815E+02  0.13255298530E+03  0.93522657793E+02 0.  0.
          5    1    3    3  502    0  0.22467442174E+02 -0.63569369891E+02  0.11953902047E+02  0.68601887149E+02  0.41800000000E+01 0.  1.
         -5    1    3    3    0  502  0.49487318518E+02  0.10229260208E+02  0.13480343787E+03  0.14402455249E+03  0.41800000000E+01 0.  1.
        -11    1    4    4    0    0 -0.28028908244E+01  0.54034446833E+02 -0.75903925489E+01  0.54636907860E+02  0.00000000000E+00 0. -1.
         11    1    4    4    0    0 -0.69151869868E+02 -0.69433714996E+00  0.35895012364E+02  0.77916077436E+02  0.00000000000E+00 0.  1.
</event>
<event>
 8    1  0.6597859E-009  0.1400890E+03  0.7561462E-02  0.1213209E+00
          1   -1    0    0  501    0  0.00000000000E+00  0.00000000000E+00  0.50823484883E+02  0.50823484883E+02  0.00000000000E+00 0. -1.
         -1   -1    0    0    0  501 -0.00000000000E+00 -0.00000000000E+00 -0.48567182139E+03  0.48567182139E+03  0.00000000000E+00 0.  1.
         25    2    1    2    0    0 -0.40463912011E+01  0.11093095616E+03 -0.28634514249E+03  0.33160702536E+03  0.12509048056E+03 0.  0.
         23    2    1    2    0    0  0.40463912011E+01 -0.11093095616E+03 -0.14850319402E+03  0.20488828091E+03  0.87200680645E+02 0.  0.
          5    1    3    3  502    0  0.30982584741E+02  0.10175527707E+03 -0.27260569851E+03  0.29265234704E+03  0.41800000000E+01 0. -1.
         -5    1    3    3    0  502 -0.35028975942E+02  0.91756790870E+01 -0.13739443982E+02  0.38954678322E+02  0.41800000000E+01 0. -1.
        -11    1    4    4    0    0  0.34502124105E+02 -0.16864513393E+02 -0.21757392693E+02  0.44138333867E+02  0.00000000000E+00 0. -1.
         11    1    4    4    0    0 -0.30455732904E+02 -0.94066442764E+02 -0.12674580132E+03  0.16074994704E+03  0.00000000000E+00 0.  1.
</event>
<event>
 8    1  0.6597859E-009  0.1088190E+03  0.7561462E-02  0.1262773E+00
          1   -1    0    0  501    0  0.00000000000E+00  0.00000000000E+00  0.69824035664E+03  0.69824035664E+03  0.00000000000E+00 0. -1.
         -1   -1    0    0    0  501 -0.00000000000E+00 -0.00000000000E+00 -0.21461602544E+02  0.21461602544E+02  0.00000000000E+00 0.  1.
         25    2    1    2    0    0 -0.32563044404E+02 -0.34476248431E+02  0.45333139472E+03  0.47265772317E+03  0.12508799410E+03 0.  0.
         23    2    1    2    0    0  0.32563044404E+02  0.34476248431E+02  0.22344735938E+03  0.24704423602E+03  0.94091277856E+02 0.  0.
          5    1    3    3  502    0 -0.23673575926E+02 -0.81461360309E+02  0.26343160164E+03  0.27678524629E+03  0.41800000000E+01 0. -1.
         -5    1    3    3    0  502 -0.88894684779E+01  0.46985111879E+02  0.18989979308E+03  0.19587247688E+03  0.41800000000E+01 0. -1.
        -11    1    4    4    0    0  0.17473483539E+02  0.55860951779E+02  0.69385637759E+02  0.90775190927E+02  0.00000000000E+00 0.  1.
         11    1    4    4    0    0  0.15089560865E+02 -0.21384703348E+02  0.15406172162E+03  0.15626904509E+03  0.00000000000E+00 0. -1.
</event>
<event>
 8    1  0.6597859E-009  0.1298057E+03  0.7561462E-02  0.1227744E+00
          1   -1    0    0  501    0  0.00000000000E+00  0.00000000000E+00  0.33705507326E+03  0.33705507326E+03  0.00000000000E+00 0. -1.
         -1   -1    0    0    0  501 -0.00000000000E+00 -0.00000000000E+00 -0.62511155738E+02  0.62511155738E+02  0.00000000000E+00 0.  1.
         25    2    1    2    0    0  0.77753222822E+02  0.63317958101E+02  0.16661078154E+03  0.23121819226E+03  0.12509185597E+03 0.  0.
         23    2    1    2    0    0 -0.77753222822E+02 -0.63317958101E+02  0.10793313598E+03  0.16834803674E+03  0.81466386649E+02 0.  0.
          5    1    3    3  502    0  0.35579293465E+02 -0.34595053059E+02  0.77927667011E+02  0.92481876632E+02  0.41800000000E+01 0.  1.
         -5    1    3    3    0  502  0.42173929357E+02  0.97913011160E+02  0.88683114532E+02  0.13873631563E+03  0.41800000000E+01 0.  1.
        -11    1    4    4    0    0 -0.59480408832E+02 -0.33829952361E+02  0.16263712344E+02  0.70334152805E+02  0.00000000000E+00 0.  1.
         11    1    4    4    0    0 -0.18272813990E+02 -0.29488005740E+02  0.91669423639E+02  0.98013883934E+02  0.00000000000E+00 0. -1.
</event>
<event>
 8    1  0.6597859E-009  0.1048656E+03  0.7561462E-02  0.1270385E+00
         -1   -1    0    0    0  501 -0.00000000000E+00  0.00000000000E+00  0.84221714585E+02  0.84221714585E+02  0.00000000000E+00 0.  1.
          1   -1    0    0  501    0  0.00000000000E+00 -0.00000000000E+00 -0.24234162619E+03  0.24234162619E+03  0.00000000000E+00 0. -1.
         25    2    1    2    0    0  0.82982119692E+02 -0.20235254415E+02 -0.42159503271E+02  0.15722918828E+03  0.12509235077E+03 0.  0.
         23    2    1    2    0    0 -0.82982119692E+02  0.20235254415E+02 -0.11596040833E+03  0.16933415249E+03  0.89060323324E+02 0.  0.
          5    1    3    3  502    0 -0.19034929092E+02  0.25240782797E+01  0.25838839843E+02  0.32462555986E+02  0.41800000000E+01 0. -1.
         -5    1    3    3    0  502  0.10201704878E+03 -0.22759332695E+02 -0.67998343115E+02  0.12476663229E+03  0.41800000000E+01 0. -1.
        -11    1    4    4    0    0 -0.19759450070E+02  0.34483552664E+01 -0.10001350214E+03  0.10200503729E+03  0.00000000000E+00 0. -1.
         11    1    4    4    0    0 -0.63222669622E+02  0.16786899148E+02 -0.15946906185E+02  0.67329115203E+02  0.00000000000E+00 0.  1.
</event>
<event>
 8    1  0.6597859E-009  0.1103183E+03  0.7561462E-02  0.1259982E+00
         -1   -1    0    0    0  501 -0.00000000000E+00  0.00000000000E+00  0.19041268637E+02  0.19041268637E+02  0.00000000000E+00 0.  1.
          1   -1    0    0  501    0  0.00000000000E+00 -0.00000000000E+00 -0.11510477585E+04  0.11510477585E+04  0.00000000000E+00 0. -1.
         25    2    1    2    0    0  0.96234945972E+02  0.27827714407E+02 -0.63150177090E+03  0.65151998886E+03  0.12509301627E+03 0.  0.
         23    2    1    2    0    0 -0.96234945972E+02 -0.27827714407E+02 -0.50050471900E+03  0.51856903831E+03  0.91505886365E+02 0.  0.
          5    1    3    3  502    0  0.29029501804E+02  0.69068272279E+01 -0.51112723889E+03  0.51201459254E+03  0.41800000000E+01 0.  1.
         -5    1    3    3    0  502  0.67205444169E+02  0.20920887179E+02 -0.12037453201E+03  0.13950539632E+03  0.41800000000E+01 0.  1.
        -11    1    4    4    0    0 -0.19634455668E+02  0.21319583180E+02 -0.41441794451E+02  0.50571323926E+02  0.00000000000E+00 0.  1.
         11    1    4    4    0    0 -0.76600490304E+02 -0.49147297587E+02 -0.45906292455E+03  0.46799771438E+03  0.00000000000E+00 0. -1.
</event>
<event>
 8    1  0.6597859E-009  0.1080706E+03  0.7561462E-02  0.1264185E+00
          1   -1    0    0  501    0  0.00000000000E+00  0.00000000000E+00  0.20799981621E+03  0.20799981621E+03  0.00000000000E+00 0.  1.
         -1   -1    0    0    0  501 -0.00000000000E+00 -0.00000000000E+00 -0.63236053882E+02  0.63236053882E+02  0.00000000000E+00 0. -1.
         25    2    1    2    0    0 -0.50685430681E+00  0.37619106074E+02  0.65912874611E+02  0.14631362083E+03  0.12509082523E+03 0.  0.
         23    2    1    2    0    0  0.50685430681E+00 -0.37619106074E+02  0.78850887712E+02  0.12492224926E+03  0.89289707271E+02 0.  0.
          5    1    3    3  502    0  0.47821086742E+02 -0.21943872006E+02  0.17936244231E+02  0.55745592767E+02  0.41800000000E+01 0.  1.
         -5    1    3    3    0  502 -0.48327941049E+02  0.59562978080E+02  0.47976630380E+02  0.90568028059E+02  0.41800000000E+01 0.  1.
        -11    1    4    4    0    0  0.37676531694E+02 -0.68578395782E+01  0.78696401575E+01  0.39095808476E+02  0.00000000000E+00 0.  1.
         11    1    4    4    0    0 -0.37169677387E+02 -0.30761266496E+02  0.70981247555E+02  0.85826440786E+02  0.00000000000E+00 0. -1.
</event>
<event>
 8    1  0.6597859E-009  0.2183441E+03  0.7561462E-02  0.1135124E+00
         -2   -1    0    0    0  501 -0.00000000000E+00  0.00000000000E+00  0.65678816784E+02  0.65678816784E+02  0.00000000000E+00 0.  1.
          2   -1    0    0  501    0  0.00000000000E+00 -0.00000000000E+00 -0.18069221365E+04  0.18069221365E+04  0.00000000000E+00 0. -1.
         25    2    1    2    0    0  0.39395420093E+01 -0.19842633471E+03 -0.15899854106E+04  0.16071993289E+04  0.12509015375E+03 0.  0.
         23    2    1    2    0    0 -0.39395420093E+01  0.19842633471E+03 -0.15125790914E+03  0.26540162442E+03  0.90391022064E+02 0.  0.
          5    1    3    3  502    0  0.66533589656E+01  0.13383420944E+02 -0.25825483490E+03  0.25872072838E+03  0.41800000000E+01 0.  1.
         -5    1    3    3    0  502 -0.27138169563E+01 -0.21180975565E+03 -0.13317305757E+04  0.13484786005E+04  0.41800000000E+01 0.  1.
        -11    1    4    4    0    0  0.28207638930E+02  0.49770534730E+02 -0.10486742788E+02  0.58161402971E+02  0.00000000000E+00 0.  1.
         11    1    4    4    0    0 -0.32147180940E+02  0.14865579998E+03 -0.14077116635E+03  0.20724022145E+03  0.00000000000E+00 0. -1.
</event>
<event>
 8    1  0.6597859E-009  0.1244633E+03  0.7561462E-02  0.1235910E+00
          2   -1    0    0  501    0  0.00000000000E+00  0.00000000000E+00  0.31709785399E+03  0.31709785399E+03  0.00000000000E+00 0. -1.
         -2   -1    0    0    0  501 -0.00000000000E+00 -0.00000000000E+00 -0.79165503620E+02  0.79165503620E+02  0.00000000000E+00 0.  1.
         25    2    1    2    0    0 -0.88870422517E+02  0.37595410600E+01  0.33054313480E+02  0.15700928969E+03  0.12508894140E+03 0.  0.
         23    2    1    2    0    0  0.88870422517E+02 -0.37595410600E+01  0.20487803689E+03  0.23925406792E+03  0.85763703684E+02 0.  0.
          5    1    3    3  502    0 -0.11528027532E+03  0.59965667740E+00  0.12843455712E+01  0.11536474076E+03  0.41800000000E+01 0. -1.
         -5    1    3    3    0  502  0.26409852807E+02  0.31598843826E+01  0.31769967909E+02  0.41644548930E+02  0.41800000000E+01 0. -1.
        -11    1    4    4    0    0  0.69076462356E+02 -0.28701946955E+02  0.76529403612E+02  0.10701452718E+03  0.00000000000E+00 0. -1.
         11    1    4    4    0    0  0.19793960160E+02  0.24942405895E+02  0.12834863328E+03  0.13223954074E+03  0.00000000000E+00 0.  1.
</event>
<event>
 8    1  0.6597859E-009  0.9598261E+02  0.7561462E-02  0.1288978E+00
         -1   -1    0    0    0  501 -0.00000000000E+00  0.00000000000E+00  0.31739202758E+02  0.31739202758E+02  0.00000000000E+00 0.  1.
          1   -1    0    0  501    0  0.00000000000E+00 -0.00000000000E+00 -0.51155322436E+03  0.51155322436E+03  0.00000000000E+00 0. -1.
         25    2    1    2    0    0 -0.46086829329E+02 -0.23020191966E+02 -0.17712045564E+03  0.22287254342E+03  0.12508632909E+03 0.  0.
         23    2    1    2    0    0  0.46086829329E+02  0.23020191966E+02 -0.30269356596E+03  0.32041988370E+03  0.91605578019E+02 0.  0.
          5    1    3    3  502    0 -0.13547859281E+02 -0.45782197570E+02 -0.17654923286E+03  0.18293894645E+03  0.41800000000E+01 0. -1.
         -5    1    3    3    0  502 -0.32538970049E+02  0.22762005604E+02 -0.57122278400E+00  0.39933596963E+02  0.41800000000E+01 0. -1.
        -11    1    4    4    0    0 -0.24740107066E+02  0.22255542155E+02 -0.77294689196E+02  0.84153734511E+02  0.00000000000E+00 0.  1.
         11    1    4    4    0    0  0.70826936395E+02  0.76464981100E+00 -0.22539887676E+03  0.23626614919E+03  0.00000000000E+00 0. -1.
</event>
<event>
 8    1  0.6597859E-009  0.1275244E+03  0.7561462E-02  0.1231176E+00
         -2   -1    0    0    0  501 -0.00000000000E+00  0.00000000000E+00  0.20934937803E+02  0.20934937803E+02  0.00000000000E+00 0.  1.
          2   -1    0    0  501    0  0.00000000000E+00 -0.00000000000E+00 -0.83028199726E+03  0.83028199726E+03  0.00000000000E+00 0. -1.
         25    2    1    2    0    0 -0.56847844464E+02  0.45800021016E+02 -0.38253045168E+03  0.40903110748E+03  0.12509029170E+03 0.  0.
         23    2    1    2    0    0  0.56847844464E+02 -0.45800021016E+02 -0.42681660778E+03  0.44218582758E+03  0.89591127336E+02 0.  0.
          5    1    3    3  502    0 -0.24415779395E+01  0.78983938232E+02 -0.24346302195E+03  0.25600027199E+03  0.41800000000E+01 0.  1.
         -5    1    3    3    0  502 -0.54406266524E+02 -0.33183917216E+02 -0.13906742973E+03  0.15303083549E+03  0.41800000000E+01 0.  1.
        -11    1    4    4    0    0  0.78834112703E+02 -0.27651354392E+02 -0.35953106098E+03  0.36910973779E+03  0.00000000000E+00 0.  1.
         11    1    4    4    0    0 -0.21986268239E+02 -0.18148666624E+02 -0.67285546802E+02  0.73076089795E+02  0.00000000000E+00 0. -1.
</event>
<event>
 8    1  0.6597859E-009  0.1158681E+03  0.7561462E-02  0.1250073E+00
          2   -1    0    0  501    0  0.00000000000E+00  0.00000000000E+00  0.41818947041E+03  0.41818947041E+03  0.00000000000E+00 0. -1.
         -2   -1    0    0    0  501 -0.00000000000E+00 -0.00000000000E+00 -0.13133330879E+03  0.13133330879E+03  0.00000000000E+00 0.  1.
         25    2    1    2    0    0  0.78798251103E+02 -0.57211827241E+02 -0.66388708994E+02  0.17186383888E+03  0.12508941155E+03 0.  0.
         23    2    1    2    0    0 -0.78798251103E+02  0.57211827241E+02  0.35324487061E+03  0.37765894031E+03  0.91443857264E+02 0.  0.
          5    1    3    3  502    0  0.11425755448E+02 -0.12881339331E+02 -0.86781337035E+02  0.88571720363E+02  0.41800000000E+01 0. -1.
         -5    1    3    3    0  502  0.67372495655E+02 -0.44330487911E+02  0.20392628041E+02  0.83292118520E+02  0.41800000000E+01 0. -1.
        -11    1    4    4    0    0 -0.72240289153E+02  0.81029688727E+02  0.29742708935E+03  0.31661860860E+03  0.00000000000E+00 0.  1.
         11    1    4    4    0    0 -0.65579619496E+01 -0.23817861486E+02  0.55817781266E+02  0.61040331717E+02  0.00000000000E+00 0. -1.
</event>
<event>
 8    1  0.6597859E-009  0.1353795E+03  0.7561462E-02  0.1219685E+00
         -2   -1    0    0    0  501 -0.00000000000E+00  0.00000000000E+00  0.16122150841E+03  0.16122150841E+03  0.00000000000E+00 0.  1.
          2   -1    0    0  501    0  0.00000000000E+00 -0.00000000000E+00 -0.16423767044E+03  0.16423767044E+03  0.00000000000E+00 0. -1.
         25    2    1    2    0    0  0.28007573248E+02  0.12034162441E+03 -0.23451983325E+02  0.17738161792E+03  0.12509081552E+03 0.  0.
         23    2    1    2    0    0 -0.28007573248E+02 -0.12034162441E+03  0.20435821292E+02  0.14807756093E+03  0.79011458245E+02 0.  0.
          5    1    3    3  502    0  0.20518955745E+02  0.22084467849E+02 -0.63901487583E+02  0.70778695808E+02  0.41800000000E+01 0. -1.
         -5    1    3    3    0  502  0.74886175027E+01  0.98257156563E+02  0.40449504257E+02  0.10660292211E+03  0.41800000000E+01 0. -1.
        -11    1    4    4    0    0 -0.49323665183E+02 -0.59841394770E+02 -0.79039623186E+01  0.77950555453E+02  0.00000000000E+00 0. -1.
         11    1    4    4    0    0  0.21316091936E+02 -0.60500229643E+02  0.28339783611E+02  0.70127005478E+02  0.00000000000E+00 0.  1.
</event>
<event>
 8    1  0.6597859E-009  0.1370175E+03  0.7561462E-02  0.1217399E+00
         -2   -1    0    0    0  501 -0.00000000000E+00  0.00000000000E+00  0.23982949794E+02  0.23982949794E+02  0.00000000000E+00 0.  1.
          2   -1    0    0  501    0  0.00000000000E+00 -0.00000000000E+00 -0.10974326345E+04  0.10974326345E+04  0.00000000000E+00 0. -1.
         25    2    1    2    0    0 -0.10975203624E+03  0.46080504975E+02 -0.64087136883E+03  0.66372515362E+03  0.12508415474E+03 0.  0.
         23    2    1    2    0    0  0.10975203624E+03 -0.46080504975E+02 -0.43257831584E+03  0.45769043064E+03  0.90485405247E+02 0.  0.
          5    1    3    3  502    0 -0.10920193382E+02  0.50721592368E+02 -0.39877727436E+03  0.40216006453E+03  0.41800000000E+01 0. -1.
         -5    1    3    3    0  502 -0.98831842861E+02 -0.46410873924E+01 -0.24209409447E+03  0.26156508909E+03  0.41800000000E+01 0. -1.
        -11    1    4    4    0    0  0.41547318234E+02 -0.34003945804E+02 -0.68249474886E+02  0.86835700060E+02  0.00000000000E+00 0.  1.
         11    1    4    4    0    0  0.68204718009E+02 -0.12076559172E+02 -0.36432884096E+03  0.37085473058E+03  0.00000000000E+00 0. -1.
</event>
<event>
 8    1  0.6597859E-009  0.1624312E+03  0.7561462E-02  0.1185979E+00
          2   -1    0    0  501    0  0.00000000000E+00  0.00000000000E+00  0.27632413268E+03  0.27632413268E+03  0.00000000000E+00 0. -1.
         -2   -1    0    0    0  501 -0.00000000000E+00 -0.00000000000E+00 -0.19509752389E+03  0.19509752389E+03  0.00000000000E+00 0.  1.
         25    2    1    2    0    0  0.67729070817E+02 -0.13062921679E+03  0.18814784832E+03  0.26962292040E+03  0.12508272089E+03 0.  0.
         23    2    1    2    0    0 -0.67729070817E+02  0.13062921679E+03 -0.10692123953E+03  0.20179873616E+03  0.87403427521E+02 0.  0.
          5    1    3    3  502    0  0.65595452937E+02 -0.14680422517E+03  0.12342536325E+03  0.20274500405E+03  0.41800000000E+01 0. -1.
         -5    1    3    3    0  502  0.21336178802E+01  0.16175008385E+02  0.64722485072E+02  0.66877916351E+02  0.41800000000E+01 0. -1.
        -11    1    4    4    0    0 -0.40320854585E+02  0.74576414734E+02 -0.84162974206E+01  0.85195346183E+02  0.00000000000E+00 0. -1.
         11    1    4    4    0    0 -0.27408216232E+02  0.56052802053E+02 -0.98504942107E+02  0.11660338998E+03  0.00000000000E+00 0.  1.
</event>
<event>
 7    1  0.6597859E-009  0.1184785E+03  0.7561462E-02  0.1245628E+00
         -3   -1    0    0    0  501 -0.00000000000E+00  0.00000000000E+00  0.40973365850E+03  0.40973365850E+03  0.00000000000E+00 0.  1.
          3   -1    0    0  501    0  0.00000000000E+00 -0.00000000000E+00 -0.38250449990E+02  0.38250449990E+02  0.00000000000E+00 0. -1.
         23    2    1    2    0    0  0.13131669749E+02 -0.60637957351E+02  0.15217501339E+03  0.18782324508E+03  0.90944675878E+02 0.  0.
          5    1    1    2  502    0  0.49689449890E+02 -0.95830559135E+00  0.10123699607E+03  0.11285548969E+03  0.41800000000E+01 0. -1.
         -5    1    1    2    0  502 -0.62821119639E+02  0.61596262942E+02  0.11807119905E+03  0.14730537371E+03  0.41800000000E+01 0. -1.
        -11    1    3    3    0    0  0.15382151910E+02  0.16079692831E+02  0.65262420580E+01  0.23189630318E+02  0.00000000000E+00 0. -1.
         11    1    3    3    0    0 -0.22504821610E+01 -0.76717650181E+02  0.14564877134E+03  0.16463361477E+03  0.00000000000E+00 0.  1.
</event>
<event>
 8    1  0.6597859E-009  0.8588922E+02  0.7561462E-02  0.1313123E+00
          1   -1    0    0  501    0  0.00000000000E+00  0.00000000000E+00  0.21676044461E+03  0.21676044461E+03  0.00000000000E+00 0.  1.
         -1   -1    0    0    0  501 -0.00000000000E+00 -0.00000000000E+00 -0.72531772074E+02  0.72531772074E+02  0.00000000000E+00 0. -1.
         25    2    1    2    0    0  0.29626448010E+02  0.54137850660E+02  0.75762516685E+02  0.15873340895E+03  0.12509077858E+03 0.  0.
         23    2    1    2    0    0 -0.29626448010E+02 -0.54137850660E+02  0.68466155850E+02  0.13055880773E+03  0.92462719426E+02 0.  0.
          5    1    3    3  502    0 -0.16409825710E+02  0.52453909282E+02  0.94034971144E+02  0.10899882191E+03  0.41800000000E+01 0.  1.
         -5    1    3    3    0  502  0.46036273720E+02  0.16839413785E+01 -0.18272454459E+02  0.49734587045E+02  0.41800000000E+01 0.  1.
        -11    1    4    4    0    0 -0.62009481638E+01 -0.44731177951E+02 -0.11585416946E+02  0.46621367685E+02  0.00000000000E+00 0. -1.
         11    1    4    4    0    0 -0.23425499847E+02 -0.94066727094E+01  0.80051572796E+02  0.83937440047E+02  0.00000000000E+00 0.  1.
</event>
<event>
 8    1  0.6597859E-009  0.9832712E+02  0.7561462E-02  0.1283854E+00
          2   -1    0    0  501    0  0.00000000000E+00  0.00000000000E+00  0.28411070979E+03  0.28411070979E+03  0.00000000000E+00 0. -1.
         -2   -1    0    0    0  501 -0.00000000000E+00 -0.00000000000E+00 -0.82484350013E+02  0.82484350013E+02  0.00000000000E+00 0.  1.
         25    2    1    2    0    0 -0.25696953101E+02 -0.98704050194E+01 -0.13453427022E+02  0.12878327734E+03  0.12508548888E+03 0.  0.
         23    2    1    2    0    0  0.25696953101E+02  0.98704050194E+01  0.21507978680E+03  0.23781178247E+03  0.97659463933E+02 0.  0.
          5    1    3    3  502    0 -0.31858959124E+02 -0.50162298454E+02  0.31971900660E+02  0.67608611097E+02  0.41800000000E+01 0.  1.
         -5    1    3    3    0  502  0.61620060221E+01  0.40291893434E+02 -0.45425327682E+02  0.61174666242E+02  0.41800000000E+01 0.  1.
        -11    1    4    4    0    0 -0.21547464372E+02 -0.28161028345E+02  0.45321955744E+02  0.57544907775E+02  0.00000000000E+00 0.  1.
         11    1    4    4    0    0  0.47244417473E+02  0.38031433364E+02  0.16975783106E+03  0.18026687469E+03  0.00000000000E+00 0. -1.
</event>
<event>
 8    1  0.6597859E-009  0.8965641E+02  0.7561462E-02  0.1303686E+00
          2   -1    0    0  501    0  0.00000000000E+00  0.00000000000E+00  0.36052615961E+02  0.36052615961E+02  0.00000000000E+00 0. -1.
         -2   -1    0    0    0  501 -0.00000000000E+00 -0.00000000000E+00 -0.39529489277E+03  0.39529489277E+03  0.00000000000E+00 0.  1.
         25    2    1    2    0    0 -0.46078002232E+02  0.10068632192E+00 -0.23498252980E+03  0.27016356241E+03  0.12509343993E+03 0.  0.
         23    2    1    2    0    0  0.46078002232E+02 -0.10068632192E+00 -0.12425974701E+03  0.16118394633E+03  0.91741960951E+02 0.  0.
          5    1    3    3  502    0  0.10984028675E+02  0.23791614867E+02  0.63548177281E+00  0.26543663293E+02  0.41800000000E+01 0.  1.
         -5    1    3    3    0  502 -0.57062030908E+02 -0.23690928545E+02 -0.23561801157E+03  0.24361989912E+03  0.41800000000E+01 0.  1.
        -11    1    4    4    0    0  0.11415491386E+02 -0.37889878508E+02 -0.93147758537E+02  0.10120504561E+03  0.00000000000E+00 0. -1.
         11    1    4    4    0    0  0.34662510846E+02  0.37789192186E+02 -0.31111988474E+02  0.59978900715E+02  0.00000000000E+00 0.  1.
</event>
<event>
 8    1  0.6597859E-009  0.1451449E+03  0.7561462E-02  0.1206569E+00
          2   -1    0    0  501    0  0.00000000000E+00  0.00000000000E+00  0.23196783223E+04  0.23196783223E+04  0.00000000000E+00 0.  1.
         -2   -1    0    0    0  501 -0.00000000000E+00 -0.00000000000E+00 -0.17123208043E+02  0.17123208043E+02  0.00000000000E+00 0. -1.
         25    2    1    2    0    0 -0.81624298598E+02  0.99818527244E+02  0.18311214895E+04  0.18399126373E+04  0.12508532628E+03 0.  0.
         23    2    1    2    0    0  0.81624298598E+02 -0.99818527244E+02  0.47143362473E+03  0.49688889308E+03  0.89569219245E+02 0.  0.
          5    1    3    3  502    0 -0.64483253707E+02  0.53119612457E+02  0.16476175825E+04  0.16497396624E+04  0.41800000000E+01 0.  1.
         -5    1    3    3    0  502 -0.17141044892E+02  0.46698914787E+02  0.18350390702E+03  0.19017297483E+03  0.41800000000E+01 0.  1.
        -11    1    4    4    0    0 -0.15104957753E+02  0.31638927065E+01  0.55970031911E+02  0.58058715434E+02  0.00000000000E+00 0. -1.
         11    1    4    4    0    0  0.96729256352E+02 -0.10298241995E+03  0.41546359282E+03  0.43883017764E+03  0.00000000000E+00 0.  1.
</event>
<event>
 8    1  0.6597859E-009  0.4982823E+02  0.7561462E-02  0.1446270E+00
         -1   -1    0    0    0  501 -0.00000000000E+00  0.00000000000E+00  0.24186145338E+02  0.24186145338E+02  0.00000000000E+00 0.  1.
          1   -1    0    0  501    0  0.00000000000E+00 -0.00000000000E+00 -0.43929955122E+03  0.43929955122E+03  0.00000000000E+00 0. -1.
         25    2    1    2    0    0  0.10028778783E+02 -0.74400805814E+01 -0.25849781178E+03  0.28744525716E+03  0.12509087083E+03 0.  0.
         23    2    1    2    0    0 -0.10028778783E+02  0.74400805814E+01 -0.15661559410E+03  0.17604043940E+03  0.79409450224E+02 0.  0.
          5    1    3    3  502    0  0.68442610413E+01  0.21956822533E+01  0.13159509497E+02  0.15566310416E+02  0.41800000000E+01 0. -1.
         -5    1    3    3    0  502  0.31845177420E+01 -0.96357628348E+01 -0.27165732128E+03  0.27187894674E+03  0.41800000000E+01 0. -1.
        -11    1    4    4    0    0 -0.37184210431E+02 -0.19608841668E+02 -0.79999593205E+02  0.90372048167E+02  0.00000000000E+00 0. -1.
         11    1    4    4    0    0  0.27155431648E+02  0.27048922249E+02 -0.76616000895E+02  0.85668391230E+02  0.00000000000E+00 0.  1.
</event>
<event>
 8    1  0.6597859E-009  0.1173371E+03  0.7561462E-02  0.1247556E+00
          1   -1    0    0  501    0  0.00000000000E+00  0.00000000000E+00  0.13123470005E+03  0.13123470005E+03  0.00000000000E+00 0. -1.
         -1   -1    0    0    0  501 -0.00000000000E+00 -0.00000000000E+00 -0.11674917092E+03  0.11674917092E+03  0.00000000000E+00 0.  1.
         25    2    1    2    0    0 -0.58583719842E+02 -0.55230147057E+01 -0.53439098566E+00  0.13824337895E+03  0.12509352632E+03 0.  0.
         23    2    1    2    0    0  0.58583719842E+02  0.55230147057E+01  0.15019920119E+02  0.10974049202E+03  0.91404713592E+02 0.  0.
          5    1    3    3  502    0 -0.44387300564E+02  0.57368503713E+02 -0.84737252527E+01  0.73148165318E+02  0.41800000000E+01 0. -1.
         -5    1    3    3    0  502 -0.14196419278E+02 -0.62891518419E+02  0.79393342670E+01  0.65095213634E+02  0.41800000000E+01 0. -1.
        -11    1    4    4    0    0  0.92083553535E+01 -0.33331075499E+02 -0.17759988658E+02  0.38873790649E+02  0.00000000000E+00 0.  1.
         11    1    4    4    0    0  0.49375364489E+02  0.38854090205E+02  0.32779908777E+02  0.70866701373E+02  0.00000000000E+00 0. -1.
</event>
<event>
 8    1  0.6597859E-009  0.1546433E+03  0.7561462E-02  0.1194881E+00
         -1   -1    0    0    0  501 -0.00000000000E+00  0.00000000000E+00  0.10456331281E+03  0.10456331281E+03  0.00000000000E+00 0.  1.
          1   -1    0    0  501    0  0.00000000000E+00 -0.00000000000E+00 -0.71263579920E+03  0.71263579920E+03  0.00000000000E+00 0. -1.
         25    2    1    2    0    0  0.93224428348E+02 -0.79258785351E+02 -0.63745304513E+03  0.66103387643E+03  0.12508657781E+03 0.  0.
         23    2    1    2    0    0 -0.93224428348E+02  0.79258785351E+02  0.29380558734E+02  0.15616523558E+03  0.92474939720E+02 0.  0.
          5    1    3    3  502    0  0.12182732296E+03 -0.79728128105E+02 -0.51389179983E+03  0.53413549345E+03  0.41800000000E+01 0.  1.
         -5    1    3    3    0  502 -0.28602894616E+02  0.46934275428E+00 -0.12356124529E+03  0.12689838297E+03  0.41800000000E+01 0.  1.
        -11    1    4    4    0    0  0.68702879024E+01  0.12931263302E+02 -0.21286790437E+02  0.25836909133E+02  0.00000000000E+00 0. -1.
         11    1    4    4    0    0 -0.10009471625E+03  0.66327522050E+02  0.50667349171E+02  0.13032832645E+03  0.00000000000E+00 0.  1.
</event>
<event>
 8    1  0.6597859E-009  0.1149618E+03  0.7561462E-02  0.1251648E+00
          4   -1    0    0  501    0  0.00000000000E+00  0.00000000000E+00  0.16245405494E+02  0.16245405494E+02  0.00000000000E+00 0. -1.
         -4   -1    0    0    0  501 -0.00000000000E+00 -0.00000000000E+00 -0.13935493499E+04  0.13935493499E+04  0.00000000000E+00 0.  1.
         25    2    1    2    0    0  0.76543372189E+02  0.61169190162E+02 -0.90191600841E+03  0.91580554633E+03  0.12508698896E+03 0.  0.
         23    2    1    2    0    0 -0.76543372189E+02 -0.61169190162E+02 -0.47538793601E+03  0.49398920908E+03  0.91820974369E+02 0.  0.
          5    1    3    3  502    0  0.28196173708E+02  0.44337443311E+02 -0.10746222016E+03  0.11969308356E+03  0.41800000000E+01 0.  1.
         -5    1    3    3    0  502  0.48347198481E+02  0.16831746851E+02 -0.79445378825E+03  0.79611246276E+03  0.41800000000E+01 0.  1.
        -11    1    4    4    0    0 -0.18074701397E+02  0.19261111423E+02 -0.44258594408E+02  0.51541327329E+02  0.00000000000E+00 0.  1.
         11    1    4    4    0    0 -0.58468670793E+02 -0.80430301585E+02 -0.43112934160E+03  0.44244788175E+03  0.00000000000E+00 0. -1.
</event>
<event>
 8    1  0.6597859E-009  0.8772330E+02  0.7561462E-02  0.1308461E+00
         -2   -1    0    0    0  501 -0.00000000000E+00  0.00000000000E+00  0.93591547063E+02  0.93591547063E+02  0.00000000000E+00 0.  1.
          2   -1    0    0  501    0  0.00000000000E+00 -0.00000000000E+00 -0.37206924956E+03  0.37206924956E+03  0.00000000000E+00 0. -1.
         25    2    1    2    0    0  0.48732901629E+02 -0.70110439761E+02 -0.30177730582E+03  0.33765867580E+03  0.12511382646E+03 0.  0.
         23    2    1    2    0    0 -0.48732901629E+02  0.70110439761E+02  0.23299603324E+02  0.12800212082E+03  0.92473249941E+02 0.  0.
          5    1    3    3  502    0  0.69338018741E+01 -0.31441137405E+02 -0.20389655671E+01  0.32530793263E+02  0.41800000000E+01 0. -1.
         -5    1    3    3    0  502  0.41799099755E+02 -0.38669302356E+02 -0.29973834025E+03  0.30512788254E+03  0.41800000000E+01 0. -1.
        -11    1    4    4    0    0 -0.42320459254E+02  0.54458440116E+02  0.57534728617E+02  0.89816412578E+02  0.00000000000E+00 0.  1.
         11    1    4    4    0    0 -0.64124423748E+01  0.15651999646E+02 -0.34235125293E+02  0.38185708242E+02  0.00000000000E+00 0. -1.
</event>
<event>
 8    1  0.6597859E-009  0.1385026E+03  0.7561462E-02  0.1215358E+00
          2   -1    0    0  501    0  0.00000000000E+00  0.00000000000E+00  0.18784709561E+03  0.18784709561E+03  0.00000000000E+00 0. -1.
         -2   -1    0    0    0  501 -0.00000000000E+00 -0.00000000000E+00 -0.10931868030E+03  0.10931868030E+03  0.00000000000E+00 0.  1.
         25    2    1    2    0    0  0.55834133302E+02  0.75454022411E+02  0.54026305568E+02  0.16545578233E+03  0.12508402885E+03 0.  0.
         23    2    1    2    0    0 -0.55834133302E+02 -0.75454022411E+02  0.24502109743E+02  0.13170999358E+03  0.89086525847E+02 0.  0.
          5    1    3    3  502    0  0.72096419132E+02  0.17727788896E+01  0.53484144593E+02  0.89883605399E+02  0.41800000000E+01 0.  1.
         -5    1    3    3    0  502 -0.16262285830E+02  0.73681243521E+02  0.54216097436E+00  0.75572176929E+02  0.41800000000E+01 0.  1.
        -11    1    4    4    0    0 -0.80180912093E+02 -0.62177175783E+02  0.16100465051E+02  0.10273365966E+03  0.00000000000E+00 0. -1.
         11    1    4    4    0    0  0.24346778791E+02 -0.13276846628E+02  0.84016446922E+01  0.28976333920E+02  0.00000000000E+00 0.  1.
</event>
<event>
 8    1  0.6597859E-009  0.6662577E+02  0.7561462E-02  0.1371958E+00
          3   -1    0    0  501    0  0.00000000000E+00  0.00000000000E+00  0.13314238481E+03  0.13314238481E+03  0.00000000000E+00 0. -1.
         -3   -1    0    0    0  501 -0.00000000000E+00 -0.00000000000E+00 -0.11456001857E+03  0.11456001857E+03  0.00000000000E+00 0.  1.
         25    2    1    2    0    0 -0.48161299332E+02 -0.47710414116E+01 -0.26254928839E+02  0.13667184984E+03  0.12509036598E+03 0.  0.
         23    2    1    2    0    0  0.48161299332E+02  0.47710414116E+01  0.44837295069E+02  0.11103055354E+03  0.89303567677E+02 0.  0.
          5    1    3    3  502    0 -0.46560196901E+02 -0.19941671304E+02  0.42419297779E+02  0.66199633035E+02  0.41800000000E+01 0.  1.
         -5    1    3    3    0  502 -0.16011024307E+01  0.15170629892E+02 -0.68674226618E+02  0.70472216809E+02  0.41800000000E+01 0.  1.
        -11    1    4    4    0    0  0.10049591614E+02 -0.19141197579E+02  0.59822040072E+02  0.63608617457E+02  0.00000000000E+00 0. -1.
         11    1    4    4    0    0  0.38111707717E+02  0.23912238990E+02 -0.14984745003E+02  0.47421936079E+02  0.00000000000E+00 0.  1.
</event>
<event>
 8    1  0.6597859E-009  0.1822449E+03  0.7561462E-02  0.1165648E+00
          2   -1    0    0  501    0  0.00000000000E+00  0.00000000000E+00  0.76596648756E+03  0.76596648756E+03  0.00000000000E+00 0. -1.
         -2   -1    0    0    0  501 -0.00000000000E+00 -0.00000000000E+00 -0.48098193894E+02  0.48098193894E+02  0.00000000000E+00 0.  1.
         25    2    1    2    0    0  0.13044346506E+03  0.88812645068E+02  0.39851885017E+03  0.44650774286E+03  0.12509479203E+03 0.  0.
         23    2    1    2    0    0 -0.13044346506E+03 -0.88812645068E+02  0.31934944350E+03  0.36755693859E+03  0.90613754715E+02 0.  0.
          5    1    3    3  502    0  0.43222489501E+02  0.10382642631E+03  0.23353740943E+03  0.25923985882E+03  0.41800000000E+01 0. -1.
         -5    1    3    3    0  502  0.87220975562E+02 -0.15013781238E+02  0.16498144074E+03  0.18726788404E+03  0.41800000000E+01 0. -1.
        -11    1    4    4    0    0 -0.36662256771E+02 -0.49643022104E+02  0.20725597919E+03  0.21624891127E+03  0.00000000000E+00 0.  1.
         11    1    4    4    0    0 -0.93781208292E+02 -0.39169622964E+02  0.11209346431E+03  0.15130802732E+03  0.00000000000E+00 0. -1.
</event>
<event>
 8    1  0.6597859E-009  0.1242225E+03  0.7561462E-02  0.1236289E+00
         -1   -1    0    0    0  501 -0.00000000000E+00  0.00000000000E+00  0.54545710028E+02  0.54545710028E+02  0.00000000000E+00 0.  1.
          1   -1    0    0  501    0  0.00000000000E+00 -0.00000000000E+00 -0.37390988442E+03  0.37390988442E+03  0.00000000000E+00 0. -1.
         25    2    1    2    0    0  0.79326837163E+02 -0.19589838482E+02 -0.11091746231E+03  0.18610495237E+03  0.12512338305E+03 0.  0.
         23    2    1    2    0    0 -0.79326837163E+02  0.19589838482E+02 -0.20844671208E+03  0.24235064207E+03  0.92775498212E+02 0.  0.
          5    1    3    3  502    0  0.10538436289E+03  0.16520486580E+01 -0.50746161970E+02  0.11705228986E+03  0.41800000000E+01 0. -1.
         -5    1    3    3    0  502 -0.26057525726E+02 -0.21241887140E+02 -0.60171300336E+02  0.69052662514E+02  0.41800000000E+01 0. -1.
        -11    1    4    4    0    0 -0.59185107681E+01 -0.23318928439E+02 -0.10846768774E+03  0.11110373745E+03  0.00000000000E+00 0. -1.
         11    1    4    4    0    0 -0.73408326395E+02  0.42908766920E+02 -0.99979024349E+02  0.13124690462E+03  0.00000000000E+00 0.  1.
</event>
<event>
 8    1  0.6597859E-009  0.8726303E+02  0.7561462E-02  0.1309618E+00
         -1   -1    0    0    0  501 -0.00000000000E+00  0.00000000000E+00  0.20395121886E+02  0.20395121886E+02  0.00000000000E+00 0.  1.
          1   -1    0    0  501    0  0.00000000000E+00 -0.00000000000E+00 -0.86766329576E+03  0.86766329576E+03  0.00000000000E+00 0. -1.
         25    2    1    2    0    0 -0.48605769964E+02  0.58812716295E+02 -0.47559616431E+03  0.49765379183E+03  0.12508448562E+03 0.  0.
         23    2    1    2    0    0  0.48605769964E+02 -0.58812716295E+02 -0.37167200957E+03  0.39040462582E+03  0.91946901497E+02 0.  0.
          5    1    3    3  502    0 -0.51703203606E+02  0.16439778280E+02 -0.64675585160E+02  0.84521543341E+02  0.41800000000E+01 0.  1.
         -5    1    3    3    0  502  0.30974336419E+01  0.42372938015E+02 -0.41092057915E+03  0.41313224849E+03  0.41800000000E+01 0.  1.
        -11    1    4    4    0    0  0.35861029147E+02 -0.51409374815E+02 -0.37033834977E+03  0.37560541868E+03  0.00000000000E+00 0. -1.
         11    1    4    4    0    0  0.12744740817E+02 -0.74033414801E+01 -0.13336597960E+01  0.14799207141E+02  0.00000000000E+00 0.  1.
</event>
<event>
 8    1  0.6597859E-009  0.1229862E+03  0.7561462E-02  0.1238251E+00
          1   -1    0    0  501    0  0.00000000000E+00  0.00000000000E+00  0.46203747285E+03  0.46203747285E+03  0.00000000000E+00 0. -1.
         -1   -1    0    0    0  501 -0.00000000000E+00 -0.00000000000E+00 -0.42490885449E+02  0.42490885449E+02  0.00000000000E+00 0.  1.
         25    2    1    2    0    0  0.79666547542E+02  0.24159987483E+02  0.28710592375E+03  0.32404922498E+03  0.12509046712E+03 0.  0.
         23    2    1    2    0    0 -0.79666547542E+02 -0.24159987483E+02  0.13244066365E+03  0.18047913332E+03  0.90009579396E+02 0.  0.
          5    1    3    3  502    0  0.10187419529E+03 -0.16400626354E+02  0.18473096065E+03  0.21163726617E+03  0.41800000000E+01 0.  1.
         -5    1    3    3    0  502 -0.22207647744E+02  0.40560613837E+02  0.10237496310E+03  0.11241195881E+03  0.41800000000E+01 0.  1.
        -11    1    4    4    0    0 -0.71231999854E+02 -0.58687090634E+00  0.34051987501E+02  0.78954924314E+02  0.00000000000E+00 0.  1.
         11    1    4    4    0    0 -0.84345476881E+01 -0.23573116576E+02  0.98388676146E+02  0.10152420900E+03  0.00000000000E+00 0. -1.
</event>
<event>
 8    1  0.6597859E-009  0.2545745E+03  0.7561462E-02  0.1110448E+00
          1   -1    0    0  501    0  0.00000000000E+00  0.00000000000E+00  0.82206197529E+03  0.82206197529E+03  0.00000000000E+00 0. -1.
         -1   -1    0    0    0  501 -0.00000000000E+00 -0.00000000000E+00 -0.17153696784E+03  0.17153696784E+03  0.00000000000E+00 0.  1.
         25    2    1    2    0    0 -0.23121261714E+03 -0.83205887910E+02 -0.17106903262E+02  0.27626431785E+03  0.12508730179E+03 0.  0.
         23    2    1    2    0    0  0.23121261714E+03  0.83205887910E+02  0.66763191072E+03  0.71733462528E+03  0.91946192468E+02 0.  0.
          5    1    3    3  502    0 -0.45205672172E+02  0.11000370244E+02 -0.46200287896E+02  0.65700075675E+02  0.41800000000E+01 0. -1.
         -5    1    3    3    0  502 -0.18600694497E+03 -0.94206258154E+02  0.29093384633E+02  0.21056424217E+03  0.41800000000E+01 0. -1.
        -11    1    4    4    0    0  0.24784497959E+02  0.33310548002E+02  0.54832716573E+02  0.68778563187E+02  0.00000000000E+00 0.  1.
         11    1    4    4    0    0  0.20642811918E+03  0.49895339908E+02  0.61279919415E+03  0.64855606209E+03  0.00000000000E+00 0. -1.
</event>
<event>
 8    1  0.6597859E-009  0.1204613E+03  0.7561462E-02  0.1242338E+00
         -2   -1    0    0    0  501 -0.00000000000E+00  0.00000000000E+00  0.84914629474E+02  0.84914629474E+02  0.00000000000E+00 0.  1.
          2   -1    0    0  501    0  0.00000000000E+00 -0.00000000000E+00 -0.23368891895E+03  0.23368891895E+03  0.00000000000E+00 0. -1.
         25    2    1    2    0    0  0.51942644286E+02 -0.73637182312E+02 -0.87288468670E+02  0.17716359576E+03  0.12508872846E+03 0.  0.
         23    2    1    2    0    0 -0.51942644286E+02  0.73637182312E+02 -0.61485820802E+02  0.14143995265E+03  0.90023780931E+02 0.  0.
          5    1    3    3  502    0  0.60460122442E+02 -0.27679159195E+02  0.11671664791E+02  0.67640686118E+02  0.41800000000E+01 0. -1.
         -5    1    3    3    0  502 -0.85174781563E+01 -0.45958023117E+02 -0.98960133461E+02  0.10952290965E+03  0.41800000000E+01 0. -1.
        -11    1    4    4    0    0  0.79242418035E+01  0.66623310086E+02 -0.31639152996E+02  0.74178804636E+02  0.00000000000E+00 0.  1.
         11    1    4    4    0    0 -0.59866886089E+02  0.70138722259E+01 -0.29846667806E+02  0.67261148018E+02  0.00000000000E+00 0. -1.
</event>
<event>
 8    1  0.6597859E-009  0.1585681E+03  0.7561462E-02  0.1190323E+00
          2   -1    0    0  501    0  0.00000000000E+00  0.00000000000E+00  0.95136993716E+02  0.95136993716E+02  0.00000000000E+00 0. -1.
         -2   -1    0    0    0  501 -0.00000000000E+00 -0.00000000000E+00 -0.33508623982E+03  0.33508623982E+03  0.00000000000E+00 0.  1.
         25    2    1    2    0    0  0.12134663117E+03  0.21483989012E+02 -0.45147958294E+02  0.18130943187E+03  0.12509278663E+03 0.  0.
         23    2    1    2    0    0 -0.12134663117E+03 -0.21483989012E+02 -0.19480128781E+03  0.24891380167E+03  0.93936000822E+02 0.  0.
          5    1    3    3  502    0 -0.11750327749E+02  0.27061897356E+02 -0.37380860410E+02  0.47803949792E+02  0.41800000000E+01 0. -1.
         -5    1    3    3    0  502  0.13309695892E+03 -0.55779083438E+01 -0.77670978842E+01  0.13350548207E+03  0.41800000000E+01 0. -1.
        -11    1    4    4    0    0 -0.78264110838E+02  0.32712154927E+02 -0.93862230066E+02  0.12651274386E+03  0.00000000000E+00 0. -1.
         11    1    4    4    0    0 -0.43082520329E+02 -0.54196143939E+02 -0.10093905774E+03  0.12240105781E+03  0.00000000000E+00 0.  1.
</event>
<event>
 8    1  0.6597859E-009  0.8593398E+02  0.7561462E-02  0.1313008E+00
         -2   -1    0    0    0  501 -0.00000000000E+00  0.00000000000E+00  0.18922754642E+02  0.18922754642E+02  0.00000000000E+00 0.  1.
          2   -1    0    0  501    0  0.00000000000E+00 -0.00000000000E+00 -0.75238347393E+03  0.75238347393E+03  0.00000000000E+00 0. -1.
         25    2    1    2    0    0  0.17633030141E+02 -0.45265735202E+02 -0.38838580542E+03  0.41091506268E+03  0.12509094430E+03 0.  0.
         23    2    1    2    0    0 -0.17633030141E+02  0.45265735202E+02 -0.34507491387E+03  0.36039116590E+03  0.91897691702E+02 0.  0.
          5    1    3    3  502    0 -0.20606692357E+02  0.67953441040E+01 -0.57370220431E+01  0.22829767702E+02  0.41800000000E+01 0. -1.
         -5    1    3    3    0  502  0.38239722498E+02 -0.52061079306E+02 -0.38264878338E+03  0.38808529497E+03  0.41800000000E+01 0. -1.
        -11    1    4    4    0    0 -0.22893013219E+01 -0.18913657001E+02 -0.16341236649E+02  0.25099867269E+02  0.00000000000E+00 0.  1.
         11    1    4    4    0    0 -0.15343728819E+02  0.64179392203E+02 -0.32873367722E+03  0.33529129863E+03  0.00000000000E+00 0. -1.
</event>
<event>
 8    1  0.6597859E-009  0.9164627E+02  0.7561462E-02  0.1298913E+00
          1   -1    0    0  501    0  0.00000000000E+00  0.00000000000E+00  0.32357006247E+03  0.32357006247E+03  0.00000000000E+00 0. -1.
         -1   -1    0    0    0  501 -0.00000000000E+00 -0.00000000000E+00 -0.38381574467E+02  0.38381574467E+02  0.00000000000E+00 0.  1.
         25    2    1    2    0    0  0.24881062278E+02 -0.36350255357E+01  0.18238718978E+03  0.22260428627E+03  0.12512114370E+03 0.  0.
         23    2    1    2    0    0 -0.24881062278E+02  0.36350255357E+01  0.10280129822E+03  0.13934735066E+03  0.90649305287E+02 0.  0.
          5    1    3    3  502    0 -0.29953746331E+02 -0.48019103363E+02  0.75026556035E+02  0.94071875274E+02  0.41800000000E+01 0. -1.
         -5    1    3    3    0  502  0.54834808609E+02  0.44384077828E+02  0.10736063374E+03  0.12853241100E+03  0.41800000000E+01 0. -1.
        -11    1    4    4    0    0 -0.32382448553E+02 -0.15071594352E+02  0.11702964612E+01  0.35737172865E+02  0.00000000000E+00 0.  1.
         11    1    4    4    0    0  0.75013862742E+01  0.18706619888E+02  0.10163100176E+03  0.10361017780E+03  0.00000000000E+00 0. -1.
</event>
<event>
 8    1  0.6597859E-009  0.1866797E+03  0.7561462E-02  0.1161491E+00
         -2   -1    0    0    0  501 -0.00000000000E+00  0.00000000000E+00  0.40265551745E+02  0.40265551745E+02  0.00000000000E+00 0.  1.
          2   -1    0    0  501    0  0.00000000000E+00 -0.00000000000E+00 -0.11639317491E+04  0.11639317491E+04  0.00000000000E+00 0. -1.
         25    2    1    2    0    0  0.29074741031E+02  0.17805520822E+03 -0.75182049133E+03  0.78321839380E+03  0.12509197997E+03 0.  0.
         23    2    1    2    0    0 -0.29074741031E+02 -0.17805520822E+03 -0.37184570607E+03  0.42097890710E+03  0.80031327347E+02 0.  0.
          5    1    3    3  502    0 -0.16908569127E+02  0.98156683097E+02 -0.19712225030E+03  0.22089655522E+03  0.41800000000E+01 0. -1.
         -5    1    3    3    0  502  0.45983310158E+02  0.79898525122E+02 -0.55469824103E+03  0.56232183857E+03  0.41800000000E+01 0. -1.
        -11    1    4    4    0    0 -0.11821680643E+02 -0.12590325885E+03 -0.32517344837E+03  0.34889705394E+03  0.00000000000E+00 0. -1.
         11    1    4    4    0    0 -0.17253060388E+02 -0.52151949368E+02 -0.46672257699E+02  0.72081853156E+02  0.00000000000E+00 0.  1.
</event>
<event>
 8    1  0.6597859E-009  0.1124461E+03  0.7561462E-02  0.1256106E+00
          2   -1    0    0  501    0  0.00000000000E+00  0.00000000000E+00  0.19463123495E+03  0.19463123495E+03  0.00000000000E+00 0. -1.
         -2   -1    0    0    0  501 -0.00000000000E+00 -0.00000000000E+00 -0.72888522700E+02  0.72888522700E+02  0.00000000000E+00 0.  1.
         25    2    1    2    0    0  0.13673861779E+02  0.28326828066E+02  0.11033809930E+03  0.16974066655E+03  0.12509202229E+03 0.  0.
         23    2    1    2    0    0 -0.13673861779E+02 -0.28326828066E+02  0.11404612958E+02  0.97779091104E+02  0.91876557272E+02 0.  0.
          5    1    3    3  502    0  0.40649052617E+02 -0.38337917945E+02  0.58395395376E+02  0.80929821649E+02  0.41800000000E+01 0. -1.
         -5    1    3    3    0  502 -0.26975190839E+02  0.66664746011E+02  0.51942703919E+02  0.88810844900E+02  0.41800000000E+01 0. -1.
        -11    1    4    4    0    0  0.32198733399E+02 -0.38138440484E+02  0.21132576384E+01  0.49957631378E+02  0.00000000000E+00 0.  1.
         11    1    4    4    0    0 -0.45872595178E+02  0.98116124181E+01  0.92913553195E+01  0.47821459725E+02  0.00000000000E+00 0. -1.
</event>
<event>
 8    1  0.6597859E-009  0.4982964E+02  0.7561462E-02  0.1446263E+00
         -1   -1    0    0    0  501 -0.00000000000E+00  0.00000000000E+00  0.11907990473E+03  0.11907990473E+03  0.00000000000E+00 0.  1.
          1   -1    0    0  501    0  0.00000000000E+00 -0.00000000000E+00 -0.16721428446E+03  0.16721428446E+03  0.00000000000E+00 0. -1.
         25    2    1    2    0    0 -0.45918009019E+00 -0.18976470218E+02 -0.11246606819E+03  0.16928164828E+03  0.12508933881E+03 0.  0.
         23    2    1    2    0    0  0.45918009019E+00  0.18976470218E+02  0.64331688456E+02  0.11701254091E+03  0.95880401138E+02 0.  0.
          5    1    3    3  502    0  0.36360243396E+01 -0.43958921580E+01 -0.13860452632E+03  0.13878483944E+03  0.41800000000E+01 0.  1.
         -5    1    3    3    0  502 -0.40952044298E+01 -0.14580578060E+02  0.26138458136E+02  0.30496808843E+02  0.41800000000E+01 0.  1.
        -11    1    4    4    0    0 -0.36598226276E+02  0.36697511836E+01  0.67418753040E+02  0.76799645193E+02  0.00000000000E+00 0.  1.
         11    1    4    4    0    0  0.37057406366E+02  0.15306719034E+02 -0.30870645847E+01  0.40212895717E+02  0.00000000000E+00 0. -1.
</event>
<event>
 8    1  0.6597859E-009  0.8117679E+02  0.7561462E-02  0.1325745E+00
         -3   -1    0    0    0  501 -0.00000000000E+00  0.00000000000E+00  0.43330087250E+02  0.43330087250E+02  0.00000000000E+00 0.  1.
          3   -1    0    0  501    0  0.00000000000E+00 -0.00000000000E+00 -0.30132808836E+03  0.30132808836E+03  0.00000000000E+00 0. -1.
         25    2    1    2    0    0 -0.27207233674E+02  0.68405262859E+01 -0.10780364773E+03  0.16749387273E+03  0.12508215131E+03 0.  0.
         23    2    1    2    0    0  0.27207233674E+02 -0.68405262859E+01 -0.15019435338E+03  0.17716430288E+03  0.89676195630E+02 0.  0.
          5    1    3    3  502    0 -0.11089595053E+02  0.36993270813E+02  0.13709199712E+02  0.41193394624E+02  0.41800000000E+01 0.  1.
         -5    1    3    3    0  502 -0.16117638621E+02 -0.30152744527E+02 -0.12151284744E+03  0.12630047811E+03  0.41800000000E+01 0.  1.
        -11    1    4    4    0    0  0.28362501706E+02  0.36211106650E+02 -0.10553025093E+03  0.11511867619E+03  0.00000000000E+00 0.  1.
         11    1    4    4    0    0 -0.11552680323E+01 -0.43051632936E+02 -0.44664102454E+02  0.62045626685E+02  0.00000000000E+00 0. -1.
</event>
<event>
 8    1  0.6597859E-009  0.1344545E+03  0.7561462E-02  0.1220992E+00
          2   -1    0    0  501    0  0.00000000000E+00  0.00000000000E+00  0.67127864776E+03  0.67127864776E+03  0.00000000000E+00 0. -1.
         -2   -1    0    0    0  501 -0.00000000000E+00 -0.00000000000E+00 -0.36718194087E+02  0.36718194087E+02  0.00000000000E+00 0.  1.
         25    2    1    2    0    0 -0.95852190509E+02  0.12426035189E+02  0.46275131038E+03  0.48900766278E+03  0.12509064799E+03 0.  0.
         23    2    1    2    0    0  0.95852190509E+02 -0.12426035189E+02  0.17180914329E+03  0.21898917907E+03  0.95372061199E+02 0.  0.
          5    1    3    3  502    0  0.25441212565E+02 -0.31998665761E+01  0.32031979050E+02  0.41243357341E+02  0.41800000000E+01 0. -1.
         -5    1    3    3    0  502 -0.12129340307E+03  0.15625901766E+02  0.43071933133E+03  0.44776430543E+03  0.41800000000E+01 0. -1.
        -11    1    4    4    0    0 -0.65448530407E+01 -0.16842508941E+02  0.77939040392E+02  0.80006244918E+02  0.00000000000E+00 0. -1.
         11    1    4    4    0    0  0.10239704355E+03  0.44164737519E+01  0.93870102895E+02  0.13898293415E+03  0.00000000000E+00 0.  1.
</event>
<event>
 8    1  0.6597859E-009  0.1257563E+03  0.7561462E-02  0.1233892E+00
          1   -1    0    0  501    0  0.00000000000E+00  0.00000000000E+00  0.12426492209E+03  0.12426492209E+03  0.00000000000E+00 0. -1.
         -1   -1    0    0    0  501 -0.00000000000E+00 -0.00000000000E+00 -0.18747185289E+03  0.18747185289E+03  0.00000000000E+00 0.  1.
         25    2    1    2    0    0  0.45319017274E+02 -0.95983795527E+02 -0.33378763945E+02  0.16741722011E+03  0.12509069260E+03 0.  0.
         23    2    1    2    0    0 -0.45319017274E+02  0.95983795527E+02 -0.29828166854E+02  0.14431955488E+03  0.93122027748E+02 0.  0.
          5    1    3    3  502    0  0.16820192598E+02 -0.69222038437E+02 -0.79488901934E+02  0.10682025751E+03  0.41800000000E+01 0. -1.
         -5    1    3    3    0  502  0.28498824675E+02 -0.26761757090E+02  0.46110137988E+02  0.60596962595E+02  0.41800000000E+01 0. -1.
        -11    1    4    4    0    0  0.66255513261E+01  0.88038814733E+02 -0.23709178691E+02  0.91415840992E+02  0.00000000000E+00 0. -1.
         11    1    4    4    0    0 -0.51944568600E+02  0.79449807936E+01 -0.61189881631E+01  0.52903713886E+02  0.00000000000E+00 0.  1.
</event>
<event>
 7    1  0.6597859E-009  0.1001695E+03  0.7561462E-02  0.1279940E+00
         -2   -1    0    0    0  501 -0.00000000000E+00  0.00000000000E+00  0.57574237910E+03  0.57574237910E+03  0.00000000000E+00 0.  1.
          2   -1    0    0  501    0  0.00000000000E+00 -0.00000000000E+00 -0.24784194752E+02  0.24784194752E+02  0.00000000000E+00 0. -1.
         23    2    1    2    0    0  0.41131108550E+02 -0.28208321093E+02  0.20135269571E+03  0.22594483372E+03  0.89558262295E+02 0.  0.
          5    1    1    2  502    0  0.34836164088E+02  0.24426522581E+02  0.51675838190E+02  0.67067711951E+02  0.41800000000E+01 0.  1.
         -5    1    1    2    0  502 -0.75967272638E+02  0.37817985127E+01  0.29792965045E+03  0.30751402819E+03  0.41800000000E+01 0.  1.
        -11    1    3    3    0    0  0.48690923919E+02  0.34980025139E+01  0.18111414250E+03  0.18757764981E+03  0.00000000000E+00 0.  1.
         11    1    3    3    0    0 -0.75598153687E+01 -0.31706323607E+02  0.20238553203E+02  0.38367183906E+02  0.00000000000E+00 0. -1.
</event>
<event>
 8    1  0.6597859E-009  0.1113363E+03  0.7561462E-02  0.1258115E+00
         -2   -1    0    0    0  501 -0.00000000000E+00  0.00000000000E+00  0.69256918137E+02  0.69256918137E+02  0.00000000000E+00 0.  1.
          2   -1    0    0  501    0  0.00000000000E+00 -0.00000000000E+00 -0.24134335491E+03  0.24134335491E+03  0.00000000000E+00 0. -1.
         25    2    1    2    0    0 -0.52255354211E+02  0.22504554324E+02 -0.14222222668E+03  0.19776512117E+03  0.12508718711E+03 0.  0.
         23    2    1    2    0    0  0.52255354211E+02 -0.22504554324E+02 -0.29864210095E+02  0.11283515188E+03  0.92751406708E+02 0.  0.
          5    1    3    3  502    0  0.19203311156E+02 -0.33051269147E+02 -0.77174719665E+02  0.86223913777E+02  0.41800000000E+01 0.  1.
         -5    1    3    3    0  502 -0.71458665367E+02  0.55555823472E+02 -0.65047507015E+02  0.11154120739E+03  0.41800000000E+01 0.  1.
        -11    1    4    4    0    0 -0.19214800435E+02 -0.71952785080E+01  0.16456576714E+02  0.26302081776E+02  0.00000000000E+00 0.  1.
         11    1    4    4    0    0  0.71470154647E+02 -0.15309275816E+02 -0.46320786810E+02  0.86533070106E+02  0.00000000000E+00 0. -1.
</event>
<event>
 8    1  0.6597859E-009  0.8034795E+02  0.7561462E-02  0.1328067E+00
          1   -1    0    0  501    0  0.00000000000E+00  0.00000000000E+00  0.92093464754E+03  0.92093464754E+03  0.00000000000E+00 0. -1.
         -1   -1    0    0    0  501 -0.00000000000E+00 -0.00000000000E+00 -0.17893557435E+02  0.17893557435E+02  0.00000000000E+00 0.  1.
         25    2    1    2    0    0  0.37051611481E+02 -0.23274153583E+02  0.69107848433E+03  0.70367101813E+03  0.12509565182E+03 0.  0.
         23    2    1    2    0    0 -0.37051611481E+02  0.23274153583E+02  0.21196260577E+03  0.23515718685E+03  0.91957860691E+02 0.  0.
          5    1    3    3  502    0 -0.17722664100E+02 -0.25032506516E+02  0.56841275942E+03  0.56925500145E+03  0.41800000000E+01 0.  1.
         -5    1    3    3    0  502  0.54774275581E+02  0.17583529338E+01  0.12266572492E+03  0.13441601668E+03  0.41800000000E+01 0.  1.
        -11    1    4    4    0    0 -0.37656500860E+02 -0.11983058689E+02  0.29488033390E+02  0.49306691896E+02  0.00000000000E+00 0.  1.
         11    1    4    4    0    0  0.60488937890E+00  0.35257212271E+02  0.18247457238E+03  0.18585049495E+03  0.00000000000E+00 0. -1.
</event>
<event>
 8    1  0.6597859E-009  0.1544047E+03  0.7561462E-02  0.1195163E+00
         -1   -1    0    0    0  501 -0.00000000000E+00  0.00000000000E+00  0.83022597969E+02  0.83022597969E+02  0.00000000000E+00 0.  1.
          1   -1    0    0  501    0  0.00000000000E+00 -0.00000000000E+00 -0.41373944308E+03  0.41373944308E+03  0.00000000000E+00 0. -1.
         25    2    1    2    0    0  0.12282761716E+03 -0.60281033055E+02 -0.95550331173E+02  0.20856153798E+03  0.12509045868E+03 0.  0.
         23    2    1    2    0    0 -0.12282761716E+03  0.60281033055E+02 -0.23516651394E+03  0.28820050307E+03  0.95056899846E+02 0.  0.
          5    1    3    3  502    0  0.30811991820E+02 -0.37537534103E+02 -0.10242915251E+03  0.11343566014E+03  0.41800000000E+01 0.  1.
         -5    1    3    3    0  502  0.92015625344E+02 -0.22743498952E+02  0.68788213388E+01  0.95125877841E+02  0.41800000000E+01 0.  1.
        -11    1    4    4    0    0 -0.21902053135E+02 -0.24871269404E+02 -0.33298332385E+02  0.46979345599E+02  0.00000000000E+00 0.  1.
         11    1    4    4    0    0 -0.10092556403E+03  0.85152302459E+02 -0.20186818156E+03  0.24122115747E+03  0.00000000000E+00 0. -1.
</event>
<event>
 8    1  0.6597859E-009  0.1901291E+03  0.7561462E-02  0.1158345E+00
          1   -1    0    0  501    0  0.00000000000E+00  0.00000000000E+00  0.57649977453E+03  0.57649977453E+03  0.00000000000E+00 0. -1.
         -1   -1    0    0    0  501 -0.00000000000E+00 -0.00000000000E+00 -0.82651143163E+02  0.82651143163E+02  0.00000000000E+00 0.  1.
         25    2    1    2    0    0  0.15314723391E+03  0.39462833902E+02  0.10011238037E+03  0.22512496899E+03  0.12508945776E+03 0.  0.
         23    2    1    2    0    0 -0.15314723391E+03 -0.39462833902E+02  0.39373625100E+03  0.43402594871E+03  0.91317568326E+02 0.  0.
          5    1    3    3  502    0 -0.42458806290E+01  0.40810055213E+02  0.37287472100E+02  0.55599605074E+02  0.41800000000E+01 0.  1.
         -5    1    3    3    0  502  0.15739311454E+03 -0.13472213106E+01  0.62824908269E+02  0.16952536391E+03  0.41800000000E+01 0.  1.
        -11    1    4    4    0    0 -0.81571216664E+02  0.24916223127E+02  0.20840305675E+03  0.22518107298E+03  0.00000000000E+00 0. -1.
         11    1    4    4    0    0 -0.71576017251E+02 -0.64379057029E+02  0.18533319425E+03  0.20884487573E+03  0.00000000000E+00 0.  1.
</event>
<event>
 8    1  0.6597859E-009  0.1378369E+03  0.7561462E-02  0.1216270E+00
          2   -1    0    0  501    0  0.00000000000E+00  0.00000000000E+00  0.10706068660E+03  0.10706068660E+03  0.00000000000E+00 0. -1.
         -2   -1    0    0    0  501 -0.00000000000E+00 -0.00000000000E+00 -0.26468696892E+03  0.26468696892E+03  0.00000000000E+00 0.  1.
         25    2    1    2    0    0  0.10796045243E+03  0.45958026366E+02 -0.13585198936E+03  0.21879252531E+03  0.12508719615E+03 0.  0.
         23    2    1    2    0    0 -0.10796045243E+03 -0.45958026366E+02 -0.21774292965E+02  0.15295513021E+03  0.95674200004E+02 0.  0.
          5    1    3    3  502    0  0.85211614098E+02 -0.19716540544E+02 -0.11795010446E+03  0.14689949180E+03  0.41800000000E+01 0. -1.
         -5    1    3    3    0  502  0.22748838335E+02  0.65674566910E+02 -0.17901884899E+02  0.71893033511E+02  0.41800000000E+01 0. -1.
        -11    1    4    4    0    0 -0.53313034839E+02 -0.31623087209E+02  0.36382389353E+02  0.71874735362E+02  0.00000000000E+00 0. -1.
         11    1    4    4    0    0 -0.54647417594E+02 -0.14334939157E+02 -0.58156682319E+02  0.81080394848E+02  0.00000000000E+00 0.  1.
</event>
<event>
 8    1  0.6597859E-009  0.1129087E+03  0.7561462E-02  0.1255276E+00
         -2   -1    0    0    0  501 -0.00000000000E+00  0.00000000000E+00  0.17692440055E+03  0.17692440055E+03  0.00000000000E+00 0.  1.
          2   -1    0    0  501    0  0.00000000000E+00 -0.00000000000E+00 -0.82168596715E+02  0.82168596715E+02  0.00000000000E+00 0. -1.
         25    2    1    2    0    0  0.17873292617E+02  0.49968624725E+02  0.59033317180E+02  0.14815293660E+03  0.12509213420E+03 0.  0.
         23    2    1    2    0    0 -0.17873292617E+02 -0.49968624725E+02  0.35722486654E+02  0.11094006067E+03  0.90638198141E+02 0.  0.
          5    1    3    3  502    0  0.65163766533E+02 -0.20917262530E+01  0.31182850170E+02  0.72391534948E+02  0.41800000000E+01 0. -1.
         -5    1    3    3    0  502 -0.47290473916E+02  0.52060350978E+02  0.27850467011E+02  0.75761401649E+02  0.41800000000E+01 0. -1.
        -11    1    4    4    0    0 -0.46379384413E+02 -0.31407639790E+02  0.49003229463E+02  0.74423139100E+02  0.00000000000E+00 0. -1.
         11    1    4    4    0    0  0.28506091796E+02 -0.18560984935E+02 -0.13280742809E+02  0.36516921568E+02  0.00000000000E+00 0.  1.
</event>
<event>
 8    1  0.6597859E-009  0.1147754E+03  0.7561462E-02  0.1251974E+00
         -3   -1    0    0    0  501 -0.00000000000E+00  0.00000000000E+00  0.53604153744E+02  0.53604153744E+02  0.00000000000E+00 0.  1.
          3   -1    0    0  501    0  0.00000000000E+00 -0.00000000000E+00 -0.45209202243E+03  0.45209202243E+03  0.00000000000E+00 0. -1.
         25    2    1    2    0    0 -0.49360841668E+02  0.83883522856E+02 -0.29629467988E+03  0.33601845621E+03  0.12507968458E+03 0.  0.
         23    2    1    2    0    0  0.49360841668E+02 -0.83883522856E+02 -0.10219318881E+03  0.16967771996E+03  0.94202668301E+02 0.  0.
          5    1    3    3  502    0 -0.46503808145E+02  0.70419360463E+02 -0.71276472726E+02  0.11054093569E+03  0.41800000000E+01 0. -1.
         -5    1    3    3    0  502 -0.28570335225E+01  0.13464162393E+02 -0.22501820715E+03  0.22547752052E+03  0.41800000000E+01 0. -1.
        -11    1    4    4    0    0  0.31258568423E+02 -0.10102073855E+03 -0.62586106936E+02  0.12287924356E+03  0.00000000000E+00 0.  1.
         11    1    4    4    0    0  0.18102273245E+02  0.17137215697E+02 -0.39607081870E+02  0.46798476394E+02  0.00000000000E+00 0. -1.
</event>
<event>
 8    1  0.6597859E-009  0.7836180E+02  0.7561462E-02  0.1333766E+00
         -3   -1    0    0    0  501 -0.00000000000E+00  0.00000000000E+00  0.95547050740E+02  0.95547050740E+02  0.00000000000E+00 0.  1.
          3   -1    0    0  501    0  0.00000000000E+00 -0.00000000000E+00 -0.14105627278E+03  0.14105627278E+03  0.00000000000E+00 0. -1.
         25    2    1    2    0    0  0.22530371431E+02  0.33263520450E+02 -0.15166675561E+02  0.13225712336E+03  0.12509132345E+03 0.  0.
         23    2    1    2    0    0 -0.22530371431E+02 -0.33263520450E+02 -0.30342546479E+02  0.10434620016E+03  0.91396826700E+02 0.  0.
          5    1    3    3  502    0  0.63616372290E+02  0.22307241863E+02 -0.44091043751E+02  0.80660699240E+02  0.41800000000E+01 0.  1.
         -5    1    3    3    0  502 -0.41086000858E+02  0.10956278586E+02  0.28924368190E+02  0.51596424122E+02  0.41800000000E+01 0.  1.
        -11    1    4    4    0    0 -0.23835136439E+02 -0.15040869363E+02  0.30080819388E+02  0.41221319428E+02  0.00000000000E+00 0.  1.
         11    1    4    4    0    0  0.13047650081E+01 -0.18222651086E+02 -0.60423365867E+02  0.63124880729E+02  0.00000000000E+00 0. -1.
</event>
<event>
 8    1  0.6597859E-009  0.1243829E+03  0.7561462E-02  0.1236037E+00
          2   -1    0    0  501    0  0.00000000000E+00  0.00000000000E+00  0.17988967621E+03  0.17988967621E+03  0.00000000000E+00 0. -1.
         -2   -1    0    0    0  501 -0.00000000000E+00 -0.00000000000E+00 -0.91072965751E+02  0.91072965751E+02  0.00000000000E+00 0.  1.
         25    2    1    2    0    0 -0.67072888205E+02 -0.12809745877E+02  0.62754527948E+02  0.15571859073E+03  0.12508911543E+03 0.  0.
         23    2    1    2    0    0  0.67072888205E+02  0.12809745877E+02  0.26062182515E+02  0.11524405124E+03  0.89101582850E+02 0.  0.
          5    1    3    3  502    0  0.35113004462E+02 -0.86101716088E+01  0.14842272463E+01  0.36424352678E+02  0.41800000000E+01 0. -1.
         -5    1    3    3    0  502 -0.10218589267E+03 -0.41995742678E+01  0.61270300702E+02  0.11929423805E+03  0.41800000000E+01 0. -1.
        -11    1    4    4    0    0 -0.19468055000E+02  0.13113397346E+02  0.15340389307E+02  0.28040932573E+02  0.00000000000E+00 0. -1.
         11    1    4    4    0    0  0.86540943206E+02 -0.30365146911E+00  0.10721793208E+02  0.87203118664E+02  0.00000000000E+00 0.  1.
</event>
<event>
 8    1  0.6597859E-009  0.1054816E+03  0.7561462E-02  0.1269174E+00
          1   -1    0    0  501    0  0.00000000000E+00  0.00000000000E+00  0.62453054703E+02  0.62453054703E+02  0.00000000000E+00 0.  1.
         -1   -1    0    0    0  501 -0.00000000000E+00 -0.00000000000E+00 -0.34360914388E+03  0.34360914388E+03  0.00000000000E+00 0. -1.
         25    2    1    2    0    0 -0.17078527098E+02  0.77623576208E+02 -0.23255594179E+03  0.27576618495E+03  0.12509047536E+03 0.  0.
         23    2    1    2    0    0  0.17078527098E+02 -0.77623576208E+02 -0.48600147388E+02  0.13029601364E+03  0.91093255363E+02 0.  0.
          5    1    3    3  502    0 -0.24569059223E+02 -0.10879097890E+02 -0.43411678994E+00  0.27196586171E+02  0.41800000000E+01 0. -1.
         -5    1    3    3    0  502  0.74905321246E+01  0.88502674098E+02 -0.23212182500E+03  0.24856959878E+03  0.41800000000E+01 0. -1.
        -11    1    4    4    0    0 -0.18607066103E+02 -0.30743500184E+02  0.18979474387E+02  0.40639957683E+02  0.00000000000E+00 0.  1.
         11    1    4    4    0    0  0.35685593201E+02 -0.46880076025E+02 -0.67579621775E+02  0.89656055955E+02  0.00000000000E+00 0. -1.
</event>
<event>
 8    1  0.6597859E-009  0.1718245E+03  0.7561462E-02  0.1175958E+00
         -2   -1    0    0    0  501 -0.00000000000E+00  0.00000000000E+00  0.41529846718E+02  0.41529846718E+02  0.00000000000E+00 0.  1.
          2   -1    0    0  501    0  0.00000000000E+00 -0.00000000000E+00 -0.82936390847E+03  0.82936390847E+03  0.00000000000E+00 0. -1.
         25    2    1    2    0    0  0.82978016089E+02 -0.12492374853E+03 -0.42555560337E+03  0.46822703643E+03  0.12509073501E+03 0.  0.
         23    2    1    2    0    0 -0.82978016089E+02  0.12492374853E+03 -0.36227845838E+03  0.40266671875E+03  0.91670665347E+02 0.  0.
          5    1    3    3  502    0 -0.12983829310E+02 -0.31534404800E+02 -0.22133490831E+03  0.22398574184E+03  0.41800000000E+01 0. -1.
         -5    1    3    3    0  502  0.95961845399E+02 -0.93389343730E+02 -0.20422069506E+03  0.24424129459E+03  0.41800000000E+01 0. -1.
        -11    1    4    4    0    0 -0.62583525645E+02  0.16124179053E+02 -0.14763864505E+03  0.16116406654E+03  0.00000000000E+00 0. -1.
         11    1    4    4    0    0 -0.20394490444E+02  0.10879956948E+03 -0.21463981333E+03  0.24150265221E+03  0.00000000000E+00 0.  1.
</event>
<event>
 7    1  0.6597859E-009  0.1382181E+03  0.7561462E-02  0.1215747E+00
         -2   -1    0    0    0  501 -0.00000000000E+00  0.00000000000E+00  0.15454211758E+02  0.15454211758E+02  0.00000000000E+00 0. -1.
          2   -1    0    0  501    0  0.00000000000E+00 -0.00000000000E+00 -0.13909913754E+04  0.13909913754E+04  0.00000000000E+00 0.  1.
         23    2    1    2    0    0  0.75007911848E+02 -0.54902120182E+02 -0.45177953717E+03  0.46961393866E+03  0.88272711164E+02 0.  0.
          5    1    1    2  502    0  0.31264477324E+02 -0.23269177264E+01 -0.12222368974E+03  0.12624969236E+03  0.41800000000E+01 0.  1.
         -5    1    1    2    0  502 -0.10627238917E+03  0.57229037909E+02 -0.80153393671E+03  0.81058195611E+03  0.41800000000E+01 0.  1.
        -11    1    3    3    0    0  0.28715963729E+02 -0.69740835254E+02 -0.32959264279E+03  0.33811196497E+03  0.00000000000E+00 0.  1.
         11    1    3    3    0    0  0.46291948119E+02  0.14838715072E+02 -0.12218689439E+03  0.13150197369E+03  0.00000000000E+00 0. -1.
</event>
<event>
 8    1  0.6597859E-009  0.2455717E+03  0.7561462E-02  0.1116136E+00
         -2   -1    0    0    0  501 -0.00000000000E+00  0.00000000000E+00  0.13484052473E+03  0.13484052473E+03  0.00000000000E+00 0.  1.
          2   -1    0    0  501    0  0.00000000000E+00 -0.00000000000E+00 -0.47384361033E+03  0.47384361033E+03  0.00000000000E+00 0. -1.
         25    2    1    2    0    0 -0.12622002333E+02  0.22755312581E+03 -0.18680832501E+03  0.32013260787E+03  0.12509115203E+03 0.  0.
         23    2    1    2    0    0  0.12622002333E+02 -0.22755312581E+03 -0.15219476059E+03  0.28855152720E+03  0.90327175798E+02 0.  0.
          5    1    3    3  502    0  0.35924556702E+02  0.48744664338E+02 -0.56313418269E+01  0.60957366138E+02  0.41800000000E+01 0. -1.
         -5    1    3    3    0  502 -0.48546559036E+02  0.17880846147E+03 -0.18117698318E+03  0.25917524173E+03  0.41800000000E+01 0. -1.
        -11    1    4    4    0    0  0.36274613703E+02 -0.32710017409E+02 -0.32213108050E+02  0.58510487679E+02  0.00000000000E+00 0.  1.
         11    1    4    4    0    0 -0.23652611370E+02 -0.19484310840E+03 -0.11998165254E+03  0.23004103952E+03  0.00000000000E+00 0. -1.
</event>
<event>
 8    1  0.6597859E-009  0.2478582E+03  0.7561462E-02  0.1114666E+00
          1   -1    0    0  501    0  0.00000000000E+00  0.00000000000E+00  0.18627297680E+04  0.18627297680E+04  0.00000000000E+00 0. -1.
         -1   -1    0    0    0  501 -0.00000000000E+00 -0.00000000000E+00 -0.37994858619E+02  0.37994858619E+02  0.00000000000E+00 0.  1.
         25    2    1    2    0    0  0.22361032202E+03 -0.93066354785E+02  0.92925993318E+03  0.96841796281E+03  0.12508558973E+03 0.  0.
         23    2    1    2    0    0 -0.22361032202E+03  0.93066354785E+02  0.89547497617E+03  0.93230666379E+03  0.93044934763E+02 0.  0.
          5    1    3    3  502    0  0.13571509035E+03 -0.24957184538E+02  0.31157340052E+03  0.34078864875E+03  0.41800000000E+01 0.  1.
         -5    1    3    3    0  502  0.87895231671E+02 -0.68109170247E+02  0.61768653267E+03  0.62762931405E+03  0.41800000000E+01 0.  1.
        -11    1    4    4    0    0 -0.50608282832E+02  0.14591526633E+01  0.88805409144E+02  0.10222391164E+03  0.00000000000E+00 0. -1.
         11    1    4    4    0    0 -0.17300203919E+03  0.91607202122E+02  0.80666956703E+03  0.83008275215E+03  0.00000000000E+00 0.  1.
</event>
<event>
 8    1  0.6597859E-009  0.1030192E+03  0.7561462E-02  0.1274072E+00
          2   -1    0    0  501    0  0.00000000000E+00  0.00000000000E+00  0.46151958860E+03  0.46151958860E+03  0.00000000000E+00 0.  1.
         -2   -1    0    0    0  501 -0.00000000000E+00 -0.00000000000E+00 -0.30204431090E+02  0.30204431090E+02  0.00000000000E+00 0. -1.
         25    2    1    2    0    0  0.77620234701E+01  0.39988535004E+02  0.18751415483E+03  0.22905978932E+03  0.12508995515E+03 0.  0.
         23    2    1    2    0    0 -0.77620234701E+01 -0.39988535004E+02  0.24380100269E+03  0.26266423038E+03  0.88849519240E+02 0.  0.
          5    1    3    3  502    0  0.32811604077E+02 -0.30558121004E+02  0.28602153091E+02  0.53347499312E+02  0.41800000000E+01 0.  1.
         -5    1    3    3    0  502 -0.25049580607E+02  0.70546656008E+02  0.15891200174E+03  0.17571229000E+03  0.41800000000E+01 0.  1.
        -11    1    4    4    0    0 -0.40048795112E+02 -0.35333003812E+02  0.83800744449E+02  0.99372490753E+02  0.00000000000E+00 0. -1.
         11    1    4    4    0    0  0.32286771642E+02 -0.46555311926E+01  0.16000025824E+03  0.16329173962E+03  0.00000000000E+00 0.  1.
</event>
<event>
 8    1  0.6597859E-009  0.1440776E+03  0.7561462E-02  0.1207945E+00
          1   -1    0    0  501    0  0.00000000000E+00  0.00000000000E+00  0.70217761289E+03  0.70217761289E+03  0.00000000000E+00 0. -1.
         -1   -1    0    0    0  501 -0.00000000000E+00 -0.00000000000E+00 -0.32762079203E+02  0.32762079203E+02  0.00000000000E+00 0.  1.
         25    2    1    2    0    0  0.94503969325E+02  0.26741017029E+02  0.43764138893E+03  0.46564317838E+03  0.12508997586E+03 0.  0.
         23    2    1    2    0    0 -0.94503969325E+02 -0.26741017029E+02  0.23177414476E+03  0.26929651372E+03  0.95683205992E+02 0.  0.
          5    1    3    3  502    0  0.11129205238E+03 -0.10638586454E+02  0.25580717205E+03  0.27920222441E+03  0.41800000000E+01 0. -1.
         -5    1    3    3    0  502 -0.16788083053E+02  0.37379603483E+02  0.18183421688E+03  0.18644095397E+03  0.41800000000E+01 0. -1.
        -11    1    4    4    0    0 -0.11052814236E+03 -0.85678255428E+01  0.20591095077E+03  0.23385721613E+03  0.00000000000E+00 0. -1.
         11    1    4    4    0    0  0.16024173031E+02 -0.18173191486E+02  0.25863193992E+02  0.35439297589E+02  0.00000000000E+00 0.  1.
</event>
<event>
 8    1  0.6597859E-009  0.2086764E+03  0.7561462E-02  0.1142618E+00
          2   -1    0    0  501    0  0.00000000000E+00  0.00000000000E+00  0.78432547429E+03  0.78432547429E+03  0.00000000000E+00 0.  1.
         -2   -1    0    0    0  501 -0.00000000000E+00 -0.00000000000E+00 -0.66816230507E+02  0.66816230507E+02  0.00000000000E+00 0. -1.
         25    2    1    2    0    0  0.47218433973E+02  0.18969185925E+03  0.29041567029E+03  0.37175468873E+03  0.12509078730E+03 0.  0.
         23    2    1    2    0    0 -0.47218433973E+02 -0.18969185925E+03  0.42709357349E+03  0.47938701607E+03  0.95866619227E+02 0.  0.
          5    1    3    3  502    0  0.64815569756E+02  0.54943857078E+02  0.17017779671E+03  0.19025730054E+03  0.41800000000E+01 0.  1.
         -5    1    3    3    0  502 -0.17597135783E+02  0.13474800218E+03  0.12023787358E+03  0.18149738819E+03  0.41800000000E+01 0.  1.
        -11    1    4    4    0    0 -0.32090084994E+02 -0.15774503912E+03  0.40929053065E+03  0.43980906016E+03  0.00000000000E+00 0.  1.
         11    1    4    4    0    0 -0.15128348979E+02 -0.31946820131E+02  0.17803042849E+02  0.39577955910E+02  0.00000000000E+00 0. -1.
</event>
<event>
 8    1  0.6597859E-009  0.8725435E+02  0.7561462E-02  0.1309640E+00
          2   -1    0    0  501    0  0.00000000000E+00  0.00000000000E+00  0.19613730745E+03  0.19613730745E+03  0.00000000000E+00 0. -1.
         -2   -1    0    0    0  501 -0.00000000000E+00 -0.00000000000E+00 -0.76225737937E+02  0.76225737937E+02  0.00000000000E+00 0.  1.
         25    2    1    2    0    0 -0.20454851895E+02  0.33998884434E+02  0.16180442701E+02  0.13221547760E+03  0.12507917765E+03 0.  0.
         23    2    1    2    0    0  0.20454851895E+02 -0.33998884434E+02  0.10373112681E+03  0.14014756778E+03  0.85480225651E+02 0.  0.
          5    1    3    3  502    0 -0.25279146093E+02  0.68736267762E+02 -0.25427427029E+02  0.77638496755E+02  0.41800000000E+01 0. -1.
         -5    1    3    3    0  502  0.48242941979E+01 -0.34737383327E+02  0.41607869730E+02  0.54576980847E+02  0.41800000000E+01 0. -1.
        -11    1    4    4    0    0 -0.58590166568E+01 -0.38667040411E+02  0.10633264458E+03  0.11329651095E+03  0.00000000000E+00 0. -1.
         11    1    4    4    0    0  0.26313868552E+02  0.46681559769E+01 -0.26015177680E+01  0.26851056834E+02  0.00000000000E+00 0.  1.
</event>
<event>
 8    1  0.6597859E-009  0.9444409E+02  0.7561462E-02  0.1292433E+00
         -2   -1    0    0    0  501 -0.00000000000E+00  0.00000000000E+00  0.43318621166E+02  0.43318621166E+02  0.00000000000E+00 0.  1.
          2   -1    0    0  501    0  0.00000000000E+00 -0.00000000000E+00 -0.32720552104E+03  0.32720552104E+03  0.00000000000E+00 0. -1.
         25    2    1    2    0    0  0.89975097994E+01  0.48896701914E+02 -0.18424666431E+03  0.22817860246E+03  0.12508716430E+03 0.  0.
         23    2    1    2    0    0 -0.89975097994E+01 -0.48896701914E+02 -0.99640235558E+02  0.14234553974E+03  0.88669236492E+02 0.  0.
          5    1    3    3  502    0  0.19419002001E+02 -0.39096186382E+02 -0.80576927122E+02  0.91737249865E+02  0.41800000000E+01 0. -1.
         -5    1    3    3    0  502 -0.10421492201E+02  0.87992888297E+02 -0.10366973719E+03  0.13644135260E+03  0.41800000000E+01 0. -1.
        -11    1    4    4    0    0 -0.18281640263E+02 -0.27711698880E+02  0.64017012170E+01  0.33810329841E+02  0.00000000000E+00 0.  1.
         11    1    4    4    0    0  0.92841304632E+01 -0.21185003035E+02 -0.10604193677E+03  0.10853520990E+03  0.00000000000E+00 0. -1.
</event>
<event>
 8    1  0.6597859E-009  0.1476216E+03  0.7561462E-02  0.1203426E+00
          2   -1    0    0  501    0  0.00000000000E+00  0.00000000000E+00  0.76725477861E+02  0.76725477861E+02  0.00000000000E+00 0. -1.
         -2   -1    0    0    0  501 -0.00000000000E+00 -0.00000000000E+00 -0.43073182745E+03  0.43073182745E+03  0.00000000000E+00 0.  1.
         25    2    1    2    0    0 -0.12986263719E+02  0.13890619148E+03 -0.24971788914E+03  0.31220068502E+03  0.12508665193E+03 0.  0.
         23    2    1    2    0    0  0.12986263719E+02 -0.13890619148E+03 -0.10428846045E+03  0.19525662029E+03  0.88235433405E+02 0.  0.
          5    1    3    3  502    0 -0.88915670248E+01 -0.53617945105E+01 -0.11235718006E+03  0.11291331682E+03  0.41800000000E+01 0.  1.
         -5    1    3    3    0  502 -0.40946966940E+01  0.14426798599E+03 -0.13736070908E+03  0.19928736820E+03  0.41800000000E+01 0.  1.
        -11    1    4    4    0    0  0.11593401535E+02 -0.90777917324E+02 -0.13520090082E+02  0.92508540518E+02  0.00000000000E+00 0. -1.
         11    1    4    4    0    0  0.13928621838E+01 -0.48128274158E+02 -0.90768370368E+02  0.10274807978E+03  0.00000000000E+00 0.  1.
</event>
<event>
 8    1  0.6597859E-009  0.9764672E+02  0.7561462E-02  0.1285324E+00
         -1   -1    0    0    0  501 -0.00000000000E+00  0.00000000000E+00  0.28484064576E+02  0.28484064576E+02  0.00000000000E+00 0.  1.
          1   -1    0    0  501    0  0.00000000000E+00 -0.00000000000E+00 -0.60389552678E+03  0.60389552678E+03  0.00000000000E+00 0. -1.
         25    2    1    2    0    0  0.77553992843E+02  0.28641102565E+02 -0.38287520136E+03  0.41118723769E+03  0.12508633041E+03 0.  0.
         23    2    1    2    0    0 -0.77553992843E+02 -0.28641102565E+02 -0.19253626084E+03  0.22119235367E+03  0.70858387092E+02 0.  0.
          5    1    3    3  502    0  0.36327300957E+02 -0.14010050130E+02 -0.32781287302E+03  0.33014346339E+03  0.41800000000E+01 0. -1.
         -5    1    3    3    0  502  0.41226691886E+02  0.42651152695E+02 -0.55062328338E+02  0.81043774295E+02  0.41800000000E+01 0. -1.
        -11    1    4    4    0    0 -0.28079722466E+02  0.13979572959E+02 -0.21268519585E+02  0.37897878558E+02  0.00000000000E+00 0.  1.
         11    1    4    4    0    0 -0.49474270377E+02 -0.42620675524E+02 -0.17126774126E+03  0.18329447511E+03  0.00000000000E+00 0. -1.
</event>
<event>
 8    1  0.6597859E-009  0.2132556E+03  0.7561462E-02  0.1139014E+00
         -1   -1    0    0    0  501 -0.00000000000E+00  0.00000000000E+00  0.53319789451E+02  0.53319789451E+02  0.00000000000E+00 0.  1.
          1   -1    0    0  501    0  0.00000000000E+00 -0.00000000000E+00 -0.10598886782E+04  0.10598886782E+04  0.00000000000E+00 0. -1.
         25    2    1    2    0    0 -0.39157891949E+02 -0.19035558188E+03 -0.32139826920E+03  0.39587138716E+03  0.12509484268E+03 0.  0.
         23    2    1    2    0    0  0.39157891949E+02  0.19035558188E+03 -0.68517061959E+03  0.71733708054E+03  0.85703682021E+02 0.  0.
          5    1    3    3  502    0 -0.77528791192E+02 -0.14235949450E+03 -0.27305334964E+03  0.31757289445E+03  0.41800000000E+01 0. -1.
         -5    1    3    3    0  502  0.38370899243E+02 -0.47996087378E+02 -0.48344919559E+02  0.78298492703E+02  0.41800000000E+01 0. -1.
        -11    1    4    4    0    0  0.52560465993E+02  0.11797376830E+03 -0.53118926620E+03  0.54666484167E+03  0.00000000000E+00 0.  1.
         11    1    4    4    0    0 -0.13402574045E+02  0.72381813586E+02 -0.15398135339E+03  0.17067223887E+03  0.00000000000E+00 0. -1.
</event>
<event>
 8    1  0.6597859E-009  0.1024689E+03  0.7561462E-02  0.1275188E+00
         -1   -1    0    0    0  501 -0.00000000000E+00  0.00000000000E+00  0.69577370660E+02  0.69577370660E+02  0.00000000000E+00 0.  1.
          1   -1    0    0  501    0  0.00000000000E+00 -0.00000000000E+00 -0.21014392401E+03  0.21014392401E+03  0.00000000000E+00 0. -1.
         25    2    1    2    0    0 -0.22956580923E+02 -0.97896927764E+01 -0.27626764883E+02  0.13050295203E+03  0.12507973320E+03 0.  0.
         23    2    1    2    0    0  0.22956580923E+02  0.97896927764E+01 -0.11293978847E+03  0.14921834264E+03  0.94275528475E+02 0.  0.
          5    1    3    3  502    0  0.43636847427E+02  0.25859940193E+02 -0.19147402784E+02  0.54378363284E+02  0.41800000000E+01 0.  1.
         -5    1    3    3    0  502 -0.66593428349E+02 -0.35649632969E+02 -0.84793620996E+01  0.76124588746E+02  0.41800000000E+01 0.  1.
        -11    1    4    4    0    0  0.99794456091E+01  0.42260675996E+02 -0.10462076410E+03  0.11327426165E+03  0.00000000000E+00 0. -1.
         11    1    4    4    0    0  0.12977135313E+02 -0.32470983219E+02 -0.83190243661E+01  0.35944080995E+02  0.00000000000E+00 0.  1.
</event>
<event>
 7    1  0.6597859E-009  0.1049103E+03  0.7561462E-02  0.1270297E+00
         -2   -1    0    0    0  501 -0.00000000000E+00  0.00000000000E+00  0.24846570487E+03  0.24846570487E+03  0.00000000000E+00 0.  1.
          2   -1    0    0  501    0  0.00000000000E+00 -0.00000000000E+00 -0.12806199448E+03  0.12806199448E+03  0.00000000000E+00 0. -1.
         23    2    1    2    0    0  0.63204549287E+02 -0.13675701800E+02  0.18945475706E+03  0.22059017798E+03  0.92655716380E+02 0.  0.
          5    1    1    2  502    0  0.33369504865E+02  0.25556849199E+02 -0.24606158003E+02  0.48883655833E+02  0.41800000000E+01 0. -1.
         -5    1    1    2    0  502 -0.96574054153E+02 -0.11881147399E+02 -0.44444888668E+02  0.10705386554E+03  0.41800000000E+01 0. -1.
        -11    1    3    3    0    0  0.55682608421E+02 -0.21170202882E+02  0.19812169215E+03  0.20688386904E+03  0.00000000000E+00 0.  1.
         11    1    3    3    0    0  0.75219408665E+01  0.74945010819E+01 -0.86669350875E+01  0.13706308937E+02  0.00000000000E+00 0. -1.
</event>
<event>
 8    1  0.6597859E-009  0.2023206E+03  0.7561462E-02  0.1147796E+00
          1   -1    0    0  501    0  0.00000000000E+00  0.00000000000E+00  0.41056899878E+03  0.41056899878E+03  0.00000000000E+00 0. -1.
         -1   -1    0    0    0  501 -0.00000000000E+00 -0.00000000000E+00 -0.12015955833E+03  0.12015955833E+03  0.00000000000E+00 0.  1.
         25    2    1    2    0    0 -0.14656977931E+03  0.11879067667E+03  0.20183741667E+03  0.30326135275E+03  0.12504071429E+03 0.  0.
         23    2    1    2    0    0  0.14656977931E+03 -0.11879067667E+03  0.88572023787E+02  0.22746720437E+03  0.91117509803E+02 0.  0.
          5    1    3    3  502    0 -0.16134370750E+03  0.11906506014E+03  0.15355674062E+03  0.25259735843E+03  0.41800000000E+01 0.  1.
         -5    1    3    3    0  502  0.14773928187E+02 -0.27438346756E+00  0.48280676051E+02  0.50663994318E+02  0.41800000000E+01 0.  1.
        -11    1    4    4    0    0  0.92098357163E+02 -0.77531833876E+02  0.10204571047E+03  0.15781831225E+03  0.00000000000E+00 0. -1.
         11    1    4    4    0    0  0.54471422147E+02 -0.41258842798E+02 -0.13473686686E+02  0.69648892114E+02  0.00000000000E+00 0.  1.
</event>
<event>
 8    1  0.6597859E-009  0.1078072E+03  0.7561462E-02  0.1264685E+00
          3   -1    0    0  501    0  0.00000000000E+00  0.00000000000E+00  0.38527740095E+03  0.38527740095E+03  0.00000000000E+00 0. -1.
         -3   -1    0    0    0  501 -0.00000000000E+00 -0.00000000000E+00 -0.34540055379E+02  0.34540055379E+02  0.00000000000E+00 0.  1.
         25    2    1    2    0    0  0.36230083259E+02  0.49792432296E+01  0.17400862428E+03  0.21740218727E+03  0.12508915985E+03 0.  0.
         23    2    1    2    0    0 -0.36230083259E+02 -0.49792432296E+01  0.17672872130E+03  0.20241526906E+03  0.91659633542E+02 0.  0.
          5    1    3    3  502    0  0.75662130377E+02  0.11948208621E+02  0.62833719594E+02  0.99161819167E+02  0.41800000000E+01 0. -1.
         -5    1    3    3    0  502 -0.39432047118E+02 -0.69689653917E+01  0.11117490468E+03  0.11824036811E+03  0.41800000000E+01 0. -1.
        -11    1    4    4    0    0  0.11373477979E+02 -0.38678227001E+02  0.69214670725E+02  0.80100136635E+02  0.00000000000E+00 0.  1.
         11    1    4    4    0    0 -0.47603561238E+02  0.33698983772E+02  0.10751405057E+03  0.12231513242E+03  0.00000000000E+00 0. -1.
</event>
<event>
 8    1  0.6597859E-009  0.2275012E+03  0.7561462E-02  0.1128411E+00
         -1   -1    0    0    0  501 -0.00000000000E+00  0.00000000000E+00  0.16371089389E+03  0.16371089389E+03  0.00000000000E+00 0.  1.
          1   -1    0    0  501    0  0.00000000000E+00 -0.00000000000E+00 -0.33778053845E+03  0.33778053845E+03  0.00000000000E+00 0. -1.
         25    2    1    2    0    0 -0.13534975611E+03  0.15374214302E+03 -0.50407918542E+02  0.24524030844E+03  0.12508256319E+03 0.  0.
         23    2    1    2    0    0  0.13534975611E+03 -0.15374214302E+03 -0.12366172602E+03  0.25625112390E+03  0.91739920418E+02 0.  0.
          5    1    3    3  502    0  0.51353138702E+01 -0.11753208911E+02  0.13320484385E+02  0.18958298249E+02  0.41800000000E+01 0. -1.
         -5    1    3    3    0  502 -0.14048506998E+03  0.16549535193E+03 -0.63728402927E+02  0.22628201019E+03  0.41800000000E+01 0. -1.
        -11    1    4    4    0    0  0.13506819013E+03 -0.93793644374E+02 -0.92965564606E+02  0.18890013211E+03  0.00000000000E+00 0. -1.
         11    1    4    4    0    0  0.28156598212E+00 -0.59948498642E+02 -0.30696161412E+02  0.67350991784E+02  0.00000000000E+00 0.  1.
</event>
<event>
 8    1  0.6597859E-009  0.1126705E+03  0.7561462E-02  0.1255703E+00
          1   -1    0    0  501    0  0.00000000000E+00  0.00000000000E+00  0.43436226609E+03  0.43436226609E+03  0.00000000000E+00 0. -1.
         -1   -1    0    0    0  501 -0.00000000000E+00 -0.00000000000E+00 -0.31333497566E+02  0.31333497566E+02  0.00000000000E+00 0.  1.
         25    2    1    2    0    0  0.31627426230E+02  0.46061695918E+01  0.25144251306E+03  0.28265664415E+03  0.12509968113E+03 0.  0.
         23    2    1    2    0    0 -0.31627426230E+02 -0.46061695918E+01  0.15158625545E+03  0.18303911950E+03  0.97485463204E+02 0.  0.
          5    1    3    3  502    0  0.12275388271E+02 -0.59958102292E+02  0.12834604718E+03  0.14225273078E+03  0.41800000000E+01 0. -1.
         -5    1    3    3    0  502  0.19352037959E+02  0.64564271884E+02  0.12309646588E+03  0.14040391337E+03  0.41800000000E+01 0. -1.
        -11    1    4    4    0    0  0.22038903438E+02 -0.29893529763E+02  0.90795580600E+02  0.98097776952E+02  0.00000000000E+00 0.  1.
         11    1    4    4    0    0 -0.53666329668E+02  0.25287360171E+02  0.60790674855E+02  0.84941342548E+02  0.00000000000E+00 0. -1.
</event>
<event>
 8    1  0.6597859E-009  0.2354368E+03  0.7561462E-02  0.1122871E+00
          2   -1    0    0  501    0  0.00000000000E+00  0.00000000000E+00  0.36534074530E+02  0.36534074530E+02  0.00000000000E+00 0. -1.
         -2   -1    0    0    0  501 -0.00000000000E+00 -0.00000000000E+00 -0.15788533819E+04  0.15788533819E+04  0.00000000000E+00 0.  1.
         25    2    1    2    0    0  0.20934569745E+03  0.17239956599E+02 -0.93128586183E+03  0.96284130753E+03  0.12508872812E+03 0.  0.
         23    2    1    2    0    0 -0.20934569745E+03 -0.17239956599E+02 -0.61103344555E+03  0.65254614891E+03  0.91278517352E+02 0.  0.
          5    1    3    3  502    0 -0.86822967191E+01 -0.18569139077E+02 -0.48579323600E+02  0.52892516331E+02  0.41800000000E+01 0. -1.
         -5    1    3    3    0  502  0.21802799417E+03  0.35809095677E+02 -0.88270653823E+03  0.90994879120E+03  0.41800000000E+01 0. -1.
        -11    1    4    4    0    0 -0.16032681995E+03  0.27416544186E+02 -0.44106803050E+03  0.47010356691E+03  0.00000000000E+00 0.  1.
         11    1    4    4    0    0 -0.49018877496E+02 -0.44656500786E+02 -0.16996541505E+03  0.18244258200E+03  0.00000000000E+00 0. -1.
</event>
<event>
 8    1  0.6597859E-009  0.9785554E+02  0.7561462E-02  0.1284871E+00
         -1   -1    0    0    0  501 -0.00000000000E+00  0.00000000000E+00  0.26176614057E+03  0.26176614057E+03  0.00000000000E+00 0.  1.
          1   -1    0    0  501    0  0.00000000000E+00 -0.00000000000E+00 -0.49509336107E+02  0.49509336107E+02  0.00000000000E+00 0. -1.
         25    2    1    2    0    0 -0.18461273292E+02  0.46387229959E+02  0.12443689918E+03  0.18337061898E+03  0.12509056045E+03 0.  0.
         23    2    1    2    0    0  0.18461273292E+02 -0.46387229959E+02  0.87819905280E+02  0.12790485769E+03  0.78452043582E+02 0.  0.
          5    1    3    3  502    0  0.23109999779E+02  0.74515904633E+02  0.10133803923E+03  0.12795922291E+03  0.41800000000E+01 0. -1.
         -5    1    3    3    0  502 -0.41571273071E+02 -0.28128674674E+02  0.23098859943E+02  0.55411396068E+02  0.41800000000E+01 0. -1.
        -11    1    4    4    0    0  0.21769934892E+02 -0.10905116533E+01 -0.68965746779E+01  0.22862240117E+02  0.00000000000E+00 0. -1.
         11    1    4    4    0    0 -0.33086615999E+01 -0.45296718306E+02  0.94716479958E+02  0.10504261757E+03  0.00000000000E+00 0.  1.
</event>
<event>
 8    1  0.6597859E-009  0.9722891E+02  0.7561462E-02  0.1286233E+00
          2   -1    0    0  501    0  0.00000000000E+00  0.00000000000E+00  0.86946355384E+02  0.86946355384E+02  0.00000000000E+00 0. -1.
         -2   -1    0    0    0  501 -0.00000000000E+00 -0.00000000000E+00 -0.16857279555E+03  0.16857279555E+03  0.00000000000E+00 0.  1.
         25    2    1    2    0    0 -0.32511608683E+02  0.18542275782E+02 -0.48172754325E+01  0.13065765704E+03  0.12508955396E+03 0.  0.
         23    2    1    2    0    0  0.32511608683E+02 -0.18542275782E+02 -0.76809164731E+02  0.12486149389E+03  0.91049020755E+02 0.  0.
          5    1    3    3  502    0 -0.54418685127E+02 -0.18055687561E+02  0.38919064182E+02  0.69423102070E+02  0.41800000000E+01 0.  1.
         -5    1    3    3    0  502  0.21907076444E+02  0.36597963344E+02 -0.43736339614E+02  0.61234554968E+02  0.41800000000E+01 0.  1.
        -11    1    4    4    0    0  0.58607050496E+02  0.51930605524E+01 -0.64971586939E+02  0.87653073849E+02  0.00000000000E+00 0.  1.
         11    1    4    4    0    0 -0.26095441812E+02 -0.23735336335E+02 -0.11837577792E+02  0.37208420046E+02  0.00000000000E+00 0. -1.
</event>
<event>
 8    1  0.6597859E-009  0.1907510E+03  0.7561462E-02  0.1157786E+00
          1   -1    0    0  501    0  0.00000000000E+00  0.00000000000E+00  0.93289682961E+02  0.93289682961E+02  0.00000000000E+00 0. -1.
         -1   -1    0    0    0  501 -0.00000000000E+00 -0.00000000000E+00 -0.50588651911E+03  0.50588651911E+03  0.00000000000E+00 0.  1.
         25    2    1    2    0    0  0.13710774866E+03  0.11261226253E+03 -0.30577908738E+03  0.37500347448E+03  0.12508676660E+03 0.  0.
         23    2    1    2    0    0 -0.13710774866E+03 -0.11261226253E+03 -0.10681774877E+03  0.22417272760E+03  0.85809812570E+02 0.  0.
          5    1    3    3  502    0  0.12994899644E+02  0.50405296177E+02 -0.17612586484E+02  0.55111132288E+02  0.41800000000E+01 0.  1.
         -5    1    3    3    0  502  0.12411284901E+03  0.62206966348E+02 -0.28816650090E+03  0.31989234219E+03  0.41800000000E+01 0.  1.
        -11    1    4    4    0    0 -0.36847925879E+01 -0.36693935322E+02 -0.46233631004E+02  0.59140267345E+02  0.00000000000E+00 0. -1.
         11    1    4    4    0    0 -0.13342295607E+03 -0.75918327204E+02 -0.60584117767E+02  0.16503246025E+03  0.00000000000E+00 0.  1.
</event>
<event>
 8    1  0.6597859E-009  0.1032069E+03  0.7561462E-02  0.1273693E+00
          1   -1    0    0  501    0  0.00000000000E+00  0.00000000000E+00  0.11143513121E+03  0.11143513121E+03  0.00000000000E+00 0. -1.
         -1   -1    0    0    0  501 -0.00000000000E+00 -0.00000000000E+00 -0.14593375079E+03  0.14593375079E+03  0.00000000000E+00 0.  1.
         25    2    1    2    0    0 -0.61728359809E+02 -0.29346268126E+02 -0.18521381701E+02  0.14374355416E+03  0.12509026311E+03 0.  0.
         23    2    1    2    0    0  0.61728359809E+02  0.29346268126E+02 -0.15977237886E+02  0.11362532784E+03  0.89352387422E+02 0.  0.
          5    1    3    3  502    0 -0.46143419966E+02  0.37225347713E+02 -0.40365580780E+02  0.71845627774E+02  0.41800000000E+01 0.  1.
         -5    1    3    3    0  502 -0.15584939842E+02 -0.66571615840E+02  0.21844199079E+02  0.71897926387E+02  0.41800000000E+01 0.  1.
        -11    1    4    4    0    0  0.53120835847E+02  0.58315644794E+01 -0.48781208411E+02  0.72356317204E+02  0.00000000000E+00 0.  1.
         11    1    4    4    0    0  0.86075239617E+01  0.23514703647E+02  0.32803970525E+02  0.41269010632E+02  0.00000000000E+00 0. -1.
</event>
<event>
 8    1  0.6597859E-009  0.9549715E+02  0.7561462E-02  0.1290060E+00
         -2   -1    0    0    0  501 -0.00000000000E+00  0.00000000000E+00  0.31050515468E+02  0.31050515468E+02  0.00000000000E+00 0.  1.
          2   -1    0    0  501    0  0.00000000000E+00 -0.00000000000E+00 -0.51496671423E+03  0.51496671423E+03  0.00000000000E+00 0. -1.
         25    2    1    2    0    0  0.37687199359E+02 -0.53849455246E+02 -0.26379132519E+03  0.29925909335E+03  0.12510017140E+03 0.  0.
         23    2    1    2    0    0 -0.37687199359E+02  0.53849455246E+02 -0.22012487358E+03  0.24675813635E+03  0.90080680838E+02 0.  0.
          5    1    3    3  502    0  0.35690602380E+02 -0.46364209057E+00 -0.65923811250E+01  0.36537185868E+02  0.41800000000E+01 0.  1.
         -5    1    3    3    0  502  0.19965969788E+01 -0.53385813156E+02 -0.25719894406E+03  0.26272190748E+03  0.41800000000E+01 0.  1.
        -11    1    4    4    0    0 -0.31885459832E+02 -0.12953301191E+02 -0.12967254608E+03  0.13416199077E+03  0.00000000000E+00 0.  1.
         11    1    4    4    0    0 -0.58017395269E+01  0.66802756437E+02 -0.90452327495E+02  0.11259614557E+03  0.00000000000E+00 0. -1.
</event>
<event>
 8    1  0.6597859E-009  0.1115482E+03  0.7561462E-02  0.1257729E+00
         -1   -1    0    0    0  501 -0.00000000000E+00  0.00000000000E+00  0.21189092377E+02  0.21189092377E+02  0.00000000000E+00 0.  1.
          1   -1    0    0  501    0  0.00000000000E+00 -0.00000000000E+00 -0.64694778817E+03  0.64694778817E+03  0.00000000000E+00 0. -1.
         25    2    1    2    0    0 -0.40281236723E+02  0.24703807389E+02 -0.36667934660E+03  0.39029973948E+03  0.12508911735E+03 0.  0.
         23    2    1    2    0    0  0.40281236723E+02 -0.24703807389E+02 -0.25907934919E+03  0.27783714107E+03  0.88535369491E+02 0.  0.
          5    1    3    3  502    0  0.38647796244E+02  0.30147147080E+02 -0.19678263105E+03  0.20283830731E+03  0.41800000000E+01 0.  1.
         -5    1    3    3    0  502 -0.78929032967E+02 -0.54433396912E+01 -0.16989671555E+03  0.18746143216E+03  0.41800000000E+01 0.  1.
        -11    1    4    4    0    0 -0.12623490071E+02 -0.38070731220E+02 -0.66341453224E+02  0.77523683433E+02  0.00000000000E+00 0. -1.
         11    1    4    4    0    0  0.52904726794E+02  0.13366923831E+02 -0.19273789597E+03  0.20031345764E+03  0.00000000000E+00 0.  1.
</event>
<event>
 8    1  0.6597859E-009  0.1196844E+03  0.7561462E-02  0.1243619E+00
          2   -1    0    0  501    0  0.00000000000E+00  0.00000000000E+00  0.14681634008E+03  0.14681634008E+03  0.00000000000E+00 0.  1.
         -2   -1    0    0    0  501 -0.00000000000E+00 -0.00000000000E+00 -0.19358292228E+03  0.19358292228E+03  0.00000000000E+00 0. -1.
         25    2    1    2    0    0  0.73638581917E+02  0.60740947340E+02 -0.11195027519E+03  0.19311324824E+03  0.12509100326E+03 0.  0.
         23    2    1    2    0    0 -0.73638581917E+02 -0.60740947340E+02  0.65183692997E+02  0.14728601412E+03  0.91280626055E+02 0.  0.
          5    1    3    3  502    0  0.30789836707E+02  0.86108461486E+02 -0.28555629848E+02  0.95893574237E+02  0.41800000000E+01 0. -1.
         -5    1    3    3    0  502  0.42848745209E+02 -0.25367514146E+02 -0.83394645347E+02  0.97219673999E+02  0.41800000000E+01 0. -1.
        -11    1    4    4    0    0 -0.22343934095E+02 -0.66543212092E+01  0.68813677833E+02  0.72655719930E+02  0.00000000000E+00 0.  1.
         11    1    4    4    0    0 -0.51294647822E+02 -0.54086626131E+02 -0.36299848364E+01  0.74630294193E+02  0.00000000000E+00 0. -1.
</event>
<event>
 8    1  0.6597859E-009  0.2143750E+03  0.7561462E-02  0.1138148E+00
          3   -1    0    0  501    0  0.00000000000E+00  0.00000000000E+00  0.28156877171E+03  0.28156877171E+03  0.00000000000E+00 0. -1.
         -3   -1    0    0    0  501 -0.00000000000E+00 -0.00000000000E+00 -0.23359788036E+03  0.23359788036E+03  0.00000000000E+00 0.  1.
         25    2    1    2    0    0 -0.19072590182E+03  0.62647827429E+02  0.14127126605E+03  0.27551137676E+03  0.12509127951E+03 0.  0.
         23    2    1    2    0    0  0.19072590182E+03 -0.62647827429E+02 -0.93300374694E+02  0.23965527530E+03  0.91807250022E+02 0.  0.
          5    1    3    3  502    0 -0.50657040876E+02 -0.19578263731E+02 -0.77836031385E+01  0.55022732383E+02  0.41800000000E+01 0. -1.
         -5    1    3    3    0  502 -0.14006886094E+03  0.82226091160E+02  0.14905486918E+03  0.22048864438E+03  0.41800000000E+01 0. -1.
        -11    1    4    4    0    0  0.96893331331E+02  0.35736621834E+01 -0.93748805891E+01  0.97411380772E+02  0.00000000000E+00 0. -1.
         11    1    4    4    0    0  0.93832570489E+02 -0.66221489613E+02 -0.83925494105E+02  0.14224389453E+03  0.00000000000E+00 0.  1.
</event>
<event>
 8    1  0.6597859E-009  0.1100922E+03  0.7561462E-02  0.1260399E+00
         -2   -1    0    0    0  501 -0.00000000000E+00  0.00000000000E+00  0.34247630940E+03  0.34247630940E+03  0.00000000000E+00 0.  1.
          2   -1    0    0  501    0  0.00000000000E+00 -0.00000000000E+00 -0.49051495983E+02  0.49051495983E+02  0.00000000000E+00 0. -1.
         25    2    1    2    0    0 -0.61357478076E+02 -0.17904783400E+02  0.11739932029E+03  0.18307201258E+03  0.12508972780E+03 0.  0.
         23    2    1    2    0    0  0.61357478076E+02  0.17904783400E+02  0.17602549312E+03  0.20845579280E+03  0.91561574577E+02 0.  0.
          5    1    3    3  502    0  0.14325957216E+01  0.48595281936E+02  0.37206056473E+02  0.61362177236E+02  0.41800000000E+01 0. -1.
         -5    1    3    3    0  502 -0.62790073797E+02 -0.66500065335E+02  0.80193263817E+02  0.12170983534E+03  0.41800000000E+01 0. -1.
        -11    1    4    4    0    0  0.59335289718E+02  0.30750112286E+02  0.18219341031E+03  0.19406361012E+03  0.00000000000E+00 0.  1.
         11    1    4    4    0    0  0.20221883578E+01 -0.12845328886E+02 -0.61679171881E+01  0.14392182683E+02  0.00000000000E+00 0. -1.
</event>
<event>
 8    1  0.6597859E-009  0.1189109E+03  0.7561462E-02  0.1244905E+00
         -2   -1    0    0    0  501 -0.00000000000E+00  0.00000000000E+00  0.13763056037E+02  0.13763056037E+02  0.00000000000E+00 0.  1.
          2   -1    0    0  501    0  0.00000000000E+00 -0.00000000000E+00 -0.11386227195E+04  0.11386227195E+04  0.00000000000E+00 0. -1.
         25    2    1    2    0    0 -0.43524536924E+02  0.51616930552E+02 -0.78657308836E+03  0.79931429846E+03  0.12508969401E+03 0.  0.
         23    2    1    2    0    0  0.43524536924E+02 -0.51616930552E+02 -0.33828657507E+03  0.35307147705E+03  0.75252695624E+02 0.  0.
          5    1    3    3  502    0  0.25033829293E+02  0.63926863546E+02 -0.30137468200E+03  0.30912377431E+03  0.41800000000E+01 0. -1.
         -5    1    3    3    0  502 -0.68558366217E+02 -0.12309932994E+02 -0.48519840636E+03  0.49019052415E+03  0.41800000000E+01 0. -1.
        -11    1    4    4    0    0  0.57821314071E+02 -0.59472946745E+02 -0.25336827962E+03  0.26660048926E+03  0.00000000000E+00 0.  1.
         11    1    4    4    0    0 -0.14296777147E+02  0.78560161931E+01 -0.84918295448E+02  0.86470987788E+02  0.00000000000E+00 0. -1.
</event>
<event>
 8    1  0.6597859E-009  0.2397998E+03  0.7561462E-02  0.1119926E+00
          1   -1    0    0  501    0  0.00000000000E+00  0.00000000000E+00  0.14818008299E+03  0.14818008299E+03  0.00000000000E+00 0. -1.
         -1   -1    0    0    0  501 -0.00000000000E+00 -0.00000000000E+00 -0.50066671801E+03  0.50066671801E+03  0.00000000000E+00 0.  1.
         25    2    1    2    0    0 -0.78655191876E+02 -0.21418425343E+03 -0.61068169710E+02  0.26726543345E+03  0.12505981344E+03 0.  0.
         23    2    1    2    0    0  0.78655191876E+02  0.21418425343E+03 -0.29141846532E+03  0.38158136755E+03  0.92833638882E+02 0.  0.
          5    1    3    3  502    0 -0.10054282507E+03 -0.13120314150E+03 -0.64934184609E+01  0.16547737276E+03  0.41800000000E+01 0. -1.
         -5    1    3    3    0  502  0.21887633198E+02 -0.82981111927E+02 -0.54574751249E+02  0.10178806068E+03  0.41800000000E+01 0. -1.
        -11    1    4    4    0    0  0.58140217498E+02  0.14691663474E+03 -0.26069071457E+03  0.30483508839E+03  0.00000000000E+00 0.  1.
         11    1    4    4    0    0  0.20514974379E+02  0.67267618693E+02 -0.30727750746E+02  0.76746279156E+02  0.00000000000E+00 0. -1.
</event>
<event>
 8    1  0.6597859E-009  0.1924191E+03  0.7561462E-02  0.1156297E+00
          2   -1    0    0  501    0  0.00000000000E+00  0.00000000000E+00  0.26599542191E+03  0.26599542191E+03  0.00000000000E+00 0. -1.
         -2   -1    0    0    0  501 -0.00000000000E+00 -0.00000000000E+00 -0.14450976219E+03  0.14450976219E+03  0.00000000000E+00 0.  1.
         25    2    1    2    0    0  0.13580145551E+03  0.89727852199E+02  0.53191204583E+02  0.21206212706E+03  0.12509164124E+03 0.  0.
         23    2    1    2    0    0 -0.13580145551E+03 -0.89727852199E+02  0.68294455131E+02  0.19844305704E+03  0.90677403521E+02 0.  0.
          5    1    3    3  502    0  0.15611852263E+03  0.82315578648E+02  0.63668733524E+02  0.18766999660E+03  0.41800000000E+01 0.  1.
         -5    1    3    3    0  502 -0.20317067119E+02  0.74122735511E+01 -0.10477528942E+02  0.24392130457E+02  0.41800000000E+01 0.  1.
        -11    1    4    4    0    0 -0.37841926306E+02  0.16928072303E+02  0.17117132557E+02  0.44850498831E+02  0.00000000000E+00 0. -1.
         11    1    4    4    0    0 -0.97959529202E+02 -0.10665592450E+03  0.51177322574E+02  0.15359255821E+03  0.00000000000E+00 0.  1.
</event>
<event>
 8    1  0.6597859E-009  0.1265578E+03  0.7561462E-02  0.1232655E+00
          2   -1    0    0  501    0  0.00000000000E+00  0.00000000000E+00  0.29381207117E+03  0.29381207117E+03  0.00000000000E+00 0. -1.
         -2   -1    0    0    0  501 -0.00000000000E+00 -0.00000000000E+00 -0.59710333213E+02  0.59710333213E+02  0.00000000000E+00 0.  1.
         25    2    1    2    0    0  0.62737122273E+02 -0.45369522544E+02  0.12156227496E+03  0.19083687131E+03  0.12508790777E+03 0.  0.
         23    2    1    2    0    0 -0.62737122273E+02  0.45369522544E+02  0.11253946300E+03  0.16268553307E+03  0.88357862424E+02 0.  0.
          5    1    3    3  502    0 -0.21553130417E+02  0.26708611298E+02  0.41353858064E+02  0.53902702391E+02  0.41800000000E+01 0. -1.
         -5    1    3    3    0  502  0.84290252690E+02 -0.72078133842E+02  0.80208416892E+02  0.13693416892E+03  0.41800000000E+01 0. -1.
        -11    1    4    4    0    0 -0.79374089896E+02  0.29838337472E+02  0.11125907357E+03  0.13988979227E+03  0.00000000000E+00 0. -1.
         11    1    4    4    0    0  0.16636967622E+02  0.15531185073E+02  0.12803894218E+01  0.22795740797E+02  0.00000000000E+00 0.  1.
</event>
<event>
 8    1  0.6597859E-009  0.8128635E+02  0.7561462E-02  0.1325440E+00
          2   -1    0    0  501    0  0.00000000000E+00  0.00000000000E+00  0.74770849512E+03  0.74770849512E+03  0.00000000000E+00 0. -1.
         -2   -1    0    0    0  501 -0.00000000000E+00 -0.00000000000E+00 -0.22535314516E+02  0.22535314516E+02  0.00000000000E+00 0.  1.
         25    2    1    2    0    0 -0.45192316969E+02  0.46501017807E+02  0.49375498282E+03  0.51346555037E+03  0.12509275830E+03 0.  0.
         23    2    1    2    0    0  0.45192316969E+02 -0.46501017807E+02  0.23141819779E+03  0.25677825927E+03  0.90421247502E+02 0.  0.
          5    1    3    3  502    0 -0.28361865780E+02  0.17317574974E+02  0.21082771590E+02  0.39575870065E+02  0.41800000000E+01 0.  1.
         -5    1    3    3    0  502 -0.16830451189E+02  0.29183442833E+02  0.47267221123E+03  0.47388968030E+03  0.41800000000E+01 0.  1.
        -11    1    4    4    0    0  0.58155610364E+02 -0.13535529953E+02  0.72318942272E+02  0.93783340734E+02  0.00000000000E+00 0.  1.
         11    1    4    4    0    0 -0.12963293395E+02 -0.32965487855E+02  0.15909925551E+03  0.16299491854E+03  0.00000000000E+00 0. -1.
</event>
<event>
 8    1  0.6597859E-009  0.2010266E+03  0.7561462E-02  0.1148876E+00
          1   -1    0    0  501    0  0.00000000000E+00  0.00000000000E+00  0.39954995482E+03  0.39954995482E+03  0.00000000000E+00 0. -1.
         -1   -1    0    0    0  501 -0.00000000000E+00 -0.00000000000E+00 -0.12927046013E+03  0.12927046013E+03  0.00000000000E+00 0.  1.
         25    2    1    2    0    0 -0.11429157755E+03  0.13192304834E+03  0.27896235811E+02  0.21654403498E+03  0.12508742436E+03 0.  0.
         23    2    1    2    0    0  0.11429157755E+03 -0.13192304834E+03  0.24238325888E+03  0.31227637996E+03  0.91107836737E+02 0.  0.
          5    1    3    3  502    0 -0.93835955322E+02  0.14076401627E+02  0.15278267785E+02  0.96198905713E+02  0.41800000000E+01 0. -1.
         -5    1    3    3    0  502 -0.20455622227E+02  0.11784664671E+03  0.12617968026E+02  0.12034512927E+03  0.41800000000E+01 0. -1.
        -11    1    4    4    0    0  0.19397684124E+02 -0.73365080749E+02  0.53200888385E+02  0.92677072395E+02  0.00000000000E+00 0.  1.
         11    1    4    4    0    0  0.94893893425E+02 -0.58557967589E+02  0.18918237049E+03  0.21959930757E+03  0.00000000000E+00 0. -1.
</event>
<event>
 8    1  0.6597859E-009  0.9160148E+02  0.7561462E-02  0.1299019E+00
          1   -1    0    0  501    0  0.00000000000E+00  0.00000000000E+00  0.25816645524E+03  0.25816645524E+03  0.00000000000E+00 0. -1.
         -1   -1    0    0    0  501 -0.00000000000E+00 -0.00000000000E+00 -0.66453703707E+02  0.66453703707E+02  0.00000000000E+00 0.  1.
         25    2    1    2    0    0 -0.23312929031E+02  0.82962026566E+01  0.19649368770E+03  0.23424126411E+03  0.12508749285E+03 0.  0.
         23    2    1    2    0    0  0.23312929031E+02 -0.82962026566E+01 -0.47809361675E+01  0.90378894838E+02  0.86793822608E+02 0.  0.
          5    1    3    3  502    0 -0.64128577857E+02  0.12040874321E+02  0.50697024335E+02  0.82735227254E+02  0.41800000000E+01 0.  1.
         -5    1    3    3    0  502  0.40815648825E+02 -0.37446716640E+01  0.14579666337E+03  0.15150603685E+03  0.41800000000E+01 0.  1.
        -11    1    4    4    0    0 -0.25613733570E+02 -0.10409293383E+02  0.21293787290E+02  0.34897594663E+02  0.00000000000E+00 0. -1.
         11    1    4    4    0    0  0.48926662601E+02  0.21130907266E+01 -0.26074723457E+02  0.55481300175E+02  0.00000000000E+00 0.  1.
</event>
<event>
 8    1  0.6597859E-009  0.8706638E+02  0.7561462E-02  0.1310115E+00
          1   -1    0    0  501    0  0.00000000000E+00  0.00000000000E+00  0.25271795546E+03  0.25271795546E+03  0.00000000000E+00 0. -1.
         -1   -1    0    0    0  501 -0.00000000000E+00 -0.00000000000E+00 -0.54664155349E+02  0.54664155349E+02  0.00000000000E+00 0.  1.
         25    2    1    2    0    0  0.15985293375E+02 -0.32229882943E+02  0.74820585574E+02  0.15013345144E+03  0.12509052026E+03 0.  0.
         23    2    1    2    0    0 -0.15985293375E+02  0.32229882943E+02  0.12323321454E+03  0.15724865937E+03  0.90809805353E+02 0.  0.
          5    1    3    3  502    0 -0.25934525487E+02 -0.22570568889E+01  0.91959495135E+02  0.95664596710E+02  0.41800000000E+01 0. -1.
         -5    1    3    3    0  502  0.41919818862E+02 -0.29972826054E+02 -0.17138909561E+02  0.54468854734E+02  0.41800000000E+01 0. -1.
        -11    1    4    4    0    0 -0.51104123872E+02  0.33183964704E+02  0.91343839536E+02  0.10980211296E+03  0.00000000000E+00 0.  1.
         11    1    4    4    0    0  0.35118830497E+02 -0.95408176091E+00  0.31889375002E+02  0.47446546402E+02  0.00000000000E+00 0. -1.
</event>
<event>
 8    1  0.6597859E-009  0.1682884E+03  0.7561462E-02  0.1179645E+00
          2   -1    0    0  501    0  0.00000000000E+00  0.00000000000E+00  0.14307776298E+03  0.14307776298E+03  0.00000000000E+00 0. -1.
         -2   -1    0    0    0  501 -0.00000000000E+00 -0.00000000000E+00 -0.25332568215E+03  0.25332568215E+03  0.00000000000E+00 0.  1.
         25    2    1    2    0    0 -0.22535019778E+02 -0.14529385329E+03 -0.11134066324E+03  0.22285091657E+03  0.12509059439E+03 0.  0.
         23    2    1    2    0    0  0.22535019778E+02  0.14529385329E+03  0.10927440728E+01  0.17355252856E+03  0.92201709095E+02 0.  0.
          5    1    3    3  502    0 -0.36116855451E+02  0.66227785998E+01 -0.60005614925E+01  0.37440186728E+02  0.41800000000E+01 0. -1.
         -5    1    3    3    0  502  0.13581835672E+02 -0.15191663189E+03 -0.10534010175E+03  0.18541072984E+03  0.41800000000E+01 0. -1.
        -11    1    4    4    0    0  0.62615034516E+01  0.45500237184E+02 -0.43302604236E+02  0.63123636959E+02  0.00000000000E+00 0. -1.
         11    1    4    4    0    0  0.16273516327E+02  0.99793616106E+02  0.44395348309E+02  0.11042889160E+03  0.00000000000E+00 0.  1.
</event>
<event>
 8    1  0.6597859E-009  0.6781023E+02  0.7561462E-02  0.1367702E+00
          1   -1    0    0  501    0  0.00000000000E+00  0.00000000000E+00  0.51129848487E+02  0.51129848487E+02  0.00000000000E+00 0. -1.
         -1   -1    0    0    0  501 -0.00000000000E+00 -0.00000000000E+00 -0.24512826576E+03  0.24512826576E+03  0.00000000000E+00 0.  1.
         25    2    1    2    0    0  0.68595744112E+01 -0.15203325518E+02 -0.14660530812E+03  0.19344048185E+03  0.12509160157E+03 0.  0.
         23    2    1    2    0    0 -0.68595744112E+01  0.15203325518E+02 -0.47393109156E+02  0.10281763239E+03  0.89705985685E+02 0.  0.
          5    1    3    3  502    0 -0.29461973643E+01 -0.62660905265E+02 -0.35606073732E+02  0.72251878966E+02  0.41800000000E+01 0.  1.
         -5    1    3    3    0  502  0.98057717755E+01  0.47457579746E+02 -0.11099923438E+03  0.12118860288E+03  0.41800000000E+01 0.  1.
        -11    1    4    4    0    0 -0.11749326105E+02  0.49457634990E+01 -0.73367278642E+02  0.74466534872E+02  0.00000000000E+00 0.  1.
         11    1    4    4    0    0  0.48897516939E+01  0.10257562019E+02  0.25974169486E+02  0.28351097522E+02  0.00000000000E+00 0. -1.
</event>
<event>
 8    1  0.6597859E-009  0.1249911E+03  0.7561462E-02  0.1235083E+00
          2   -1    0    0  501    0  0.00000000000E+00  0.00000000000E+00  0.99738846112E+02  0.99738846112E+02  0.00000000000E+00 0.  1.
         -2   -1    0    0    0  501 -0.00000000000E+00 -0.00000000000E+00 -0.21667241896E+03  0.21667241896E+03  0.00000000000E+00 0. -1.
         25    2    1    2    0    0 -0.49644808519E+02  0.65988182439E+02 -0.47971020143E+01  0.14996717958E+03  0.12509234801E+03 0.  0.
         23    2    1    2    0    0  0.49644808519E+02 -0.65988182439E+02 -0.11213647084E+03  0.16644408549E+03  0.91159191905E+02 0.  0.
          5    1    3    3  502    0 -0.15607864059E+02  0.99372051070E+02  0.61764114514E+01  0.10086639883E+03  0.41800000000E+01 0. -1.
         -5    1    3    3    0  502 -0.34036944460E+02 -0.33383868631E+02 -0.10973513466E+02  0.49100780755E+02  0.41800000000E+01 0. -1.
        -11    1    4    4    0    0  0.62694117657E+02 -0.61008438578E+02 -0.45975212382E+02  0.98824602808E+02  0.00000000000E+00 0.  1.
         11    1    4    4    0    0 -0.13049309139E+02 -0.49797438605E+01 -0.66161258457E+02  0.67619482684E+02  0.00000000000E+00 0. -1.
</event>
<event>
 8    1  0.6597859E-009  0.1230458E+03  0.7561462E-02  0.1238155E+00
         -2   -1    0    0    0  501 -0.00000000000E+00  0.00000000000E+00  0.92227717900E+02  0.92227717900E+02  0.00000000000E+00 0.  1.
          2   -1    0    0  501    0  0.00000000000E+00 -0.00000000000E+00 -0.24354402733E+03  0.24354402733E+03  0.00000000000E+00 0. -1.
         25    2    1    2    0    0 -0.86898344929E+02 -0.56426895647E+02 -0.92221347099E+02  0.18678316367E+03  0.12509139245E+03 0.  0.
         23    2    1    2    0    0  0.86898344929E+02  0.56426895647E+02 -0.59094962333E+02  0.14898858156E+03  0.89275225898E+02 0.  0.
          5    1    3    3  502    0 -0.78447176394E+02 -0.75281408609E+02 -0.18828664382E+02  0.11042300924E+03  0.41800000000E+01 0.  1.
         -5    1    3    3    0  502 -0.84511685349E+01  0.18854512962E+02 -0.73392682717E+02  0.76360154433E+02  0.41800000000E+01 0.  1.
        -11    1    4    4    0    0  0.71047765405E+01 -0.10078069882E+02 -0.41929812209E+02  0.43705314255E+02  0.00000000000E+00 0. -1.
         11    1    4    4    0    0  0.79793568388E+02  0.66504965529E+02 -0.17165150123E+02  0.10528326731E+03  0.00000000000E+00 0.  1.
</event>
<event>
 8    1  0.6597859E-009  0.1145852E+03  0.7561462E-02  0.1252307E+00
          2   -1    0    0  501    0  0.00000000000E+00  0.00000000000E+00  0.38144984245E+03  0.38144984245E+03  0.00000000000E+00 0. -1.
         -2   -1    0    0    0  501 -0.00000000000E+00 -0.00000000000E+00 -0.38171194184E+02  0.38171194184E+02  0.00000000000E+00 0.  1.
         25    2    1    2    0    0 -0.20625898543E+02 -0.28394765076E+02  0.15735608669E+03  0.20405970413E+03  0.12509090477E+03 0.  0.
         23    2    1    2    0    0  0.20625898543E+02  0.28394765076E+02  0.18592256157E+03  0.21556133250E+03  0.10328503664E+03 0.  0.
          5    1    3    3  502    0 -0.40747736651E+02  0.39399757125E+02  0.89117938403E+02  0.10569861990E+03  0.41800000000E+01 0. -1.
         -5    1    3    3    0  502  0.20121838108E+02 -0.67794522200E+02  0.68238148289E+02  0.98361084231E+02  0.41800000000E+01 0. -1.
        -11    1    4    4    0    0  0.53429980348E+02  0.39950756138E+02  0.15605288877E+03  0.16971543775E+03  0.00000000000E+00 0. -1.
         11    1    4    4    0    0 -0.32804081805E+02 -0.11555991062E+02  0.29869672799E+02  0.45845894752E+02  0.00000000000E+00 0.  1.
</event>
<event>
 8    1  0.6597859E-009  0.1074605E+03  0.7561462E-02  0.1265346E+00
          1   -1    0    0  501    0  0.00000000000E+00  0.00000000000E+00  0.54838643678E+02  0.54838643678E+02  0.00000000000E+00 0. -1.
         -1   -1    0    0    0  501 -0.00000000000E+00 -0.00000000000E+00 -0.37601966358E+03  0.37601966358E+03  0.00000000000E+00 0.  1.
         25    2    1    2    0    0 -0.22139576377E+02  0.43978380091E+01 -0.37649510781E+02  0.13256750739E+03  0.12508859473E+03 0.  0.
         23    2    1    2    0    0  0.22139576377E+02 -0.43978380091E+01 -0.28353150913E+03  0.29829079987E+03  0.89876486360E+02 0.  0.
          5    1    3    3  502    0 -0.25672900092E+02  0.60976597489E+02 -0.36578347987E+02  0.75714537454E+02  0.41800000000E+01 0.  1.
         -5    1    3    3    0  502  0.35333237159E+01 -0.56578759480E+02 -0.10711627936E+01  0.56852969935E+02  0.41800000000E+01 0.  1.
        -11    1    4    4    0    0  0.34637921985E+02  0.35725630828E+02 -0.13302893169E+03  0.14203099311E+03  0.00000000000E+00 0.  1.
         11    1    4    4    0    0 -0.12498345608E+02 -0.40123468837E+02 -0.15050257743E+03  0.15625980676E+03  0.00000000000E+00 0. -1.
</event>
<event>
 8    1  0.6597859E-009  0.1218220E+03  0.7561462E-02  0.1240121E+00
          2   -1    0    0  501    0  0.00000000000E+00  0.00000000000E+00  0.23407430128E+03  0.23407430128E+03  0.00000000000E+00 0. -1.
         -2   -1    0    0    0  501 -0.00000000000E+00 -0.00000000000E+00 -0.86878031690E+02  0.86878031690E+02  0.00000000000E+00 0.  1.
         25    2    1    2    0    0  0.88119324445E+02 -0.23823903184E+02  0.97462905478E+02  0.18297432972E+03  0.12509194094E+03 0.  0.
         23    2    1    2    0    0 -0.88119324445E+02  0.23823903184E+02  0.49733364111E+02  0.13797800325E+03  0.90729973948E+02 0.  0.
          5    1    3    3  502    0 -0.18435510211E+02 -0.39856312185E+02  0.45142432683E+02  0.63116600719E+02  0.41800000000E+01 0.  1.
         -5    1    3    3    0  502  0.10655483466E+03  0.16032409000E+02  0.52320472795E+02  0.11985772900E+03  0.41800000000E+01 0.  1.
        -11    1    4    4    0    0 -0.36130183015E+02  0.53568842981E+01  0.70199169031E+02  0.79132860853E+02  0.00000000000E+00 0. -1.
         11    1    4    4    0    0 -0.51989141430E+02  0.18467018886E+02 -0.20465804920E+02  0.58845142401E+02  0.00000000000E+00 0.  1.
</event>
<event>
 8    1  0.6597859E-009  0.1344968E+03  0.7561462E-02  0.1220932E+00
          1   -1    0    0  501    0  0.00000000000E+00  0.00000000000E+00  0.44478243037E+03  0.44478243037E+03  0.00000000000E+00 0. -1.
         -1   -1    0    0    0  501 -0.00000000000E+00 -0.00000000000E+00 -0.58564579581E+02  0.58564579581E+02  0.00000000000E+00 0.  1.
         25    2    1    2    0    0 -0.91358877861E+02  0.20453141955E+02  0.32370034821E+03  0.35944018774E+03  0.12510218843E+03 0.  0.
         23    2    1    2    0    0  0.91358877861E+02 -0.20453141955E+02  0.62517502576E+02  0.14390682221E+03  0.89643514937E+02 0.  0.
          5    1    3    3  502    0 -0.46491322519E+02 -0.42238133082E+02  0.69492171920E+02  0.93766397574E+02  0.41800000000E+01 0.  1.
         -5    1    3    3    0  502 -0.44867555342E+02  0.62691275037E+02  0.25420817629E+03  0.26567379017E+03  0.41800000000E+01 0.  1.
        -11    1    4    4    0    0  0.27762819431E+01 -0.38360665637E+02  0.11582922750E+02  0.40167306469E+02  0.00000000000E+00 0.  1.
         11    1    4    4    0    0  0.88582595918E+02  0.17907523683E+02  0.50934579826E+02  0.10373951574E+03  0.00000000000E+00 0. -1.
</event>
<event>
 8    1  0.6597859E-009  0.1026180E+03  0.7561462E-02  0.1274885E+00
         -3   -1    0    0    0  501 -0.00000000000E+00  0.00000000000E+00  0.87245688378E+02  0.87245688378E+02  0.00000000000E+00 0.  1.
          3   -1    0    0  501    0  0.00000000000E+00 -0.00000000000E+00 -0.16050574482E+03  0.16050574482E+03  0.00000000000E+00 0. -1.
         25    2    1    2    0    0  0.36022908273E+01  0.33482860605E+02 -0.52855376746E+01  0.12965298859E+03  0.12509149487E+03 0.  0.
         23    2    1    2    0    0 -0.36022908273E+01 -0.33482860605E+02 -0.67974518768E+02  0.11809844461E+03  0.90513142489E+02 0.  0.
          5    1    3    3  502    0  0.48918924138E+02  0.48582978373E+02  0.24405079270E+02  0.73256038800E+02  0.41800000000E+01 0.  1.
         -5    1    3    3    0  502 -0.45316633311E+02 -0.15100117768E+02 -0.29690616944E+02  0.56396949791E+02  0.41800000000E+01 0.  1.
        -11    1    4    4    0    0 -0.40447154286E+02 -0.32906629822E+01 -0.55685895338E+02  0.68903698684E+02  0.00000000000E+00 0.  1.
         11    1    4    4    0    0  0.36844863459E+02 -0.30192197623E+02 -0.12288623430E+02  0.49194745923E+02  0.00000000000E+00 0. -1.
</event>
<event>
 8    1  0.6597859E-009  0.1102432E+03  0.7561462E-02  0.1260120E+00
         -2   -1    0    0    0  501 -0.00000000000E+00  0.00000000000E+00  0.23761499030E+03  0.23761499030E+03  0.00000000000E+00 0.  1.
          2   -1    0    0  501    0  0.00000000000E+00 -0.00000000000E+00 -0.73931703838E+02  0.73931703838E+02  0.00000000000E+00 0. -1.
         25    2    1    2    0    0  0.72209566361E+02  0.30361841574E+00  0.71534205461E+02  0.16118041814E+03  0.12509065107E+03 0.  0.
         23    2    1    2    0    0 -0.72209566361E+02 -0.30361841574E+00  0.92149081002E+02  0.15036627599E+03  0.94362334480E+02 0.  0.
          5    1    3    3  502    0 -0.13813315717E+02 -0.21518193496E+02  0.67433604355E+02  0.72239904061E+02  0.41800000000E+01 0.  1.
         -5    1    3    3    0  502  0.86022882078E+02  0.21821811912E+02  0.41006011064E+01  0.88940514084E+02  0.41800000000E+01 0.  1.
        -11    1    4    4    0    0 -0.48860720988E+02  0.37297957346E+02  0.85956339411E+02  0.10567402691E+03  0.00000000000E+00 0.  1.
         11    1    4    4    0    0 -0.23348845373E+02 -0.37601575762E+02  0.61927415902E+01  0.44692249087E+02  0.00000000000E+00 0. -1.
</event>
<event>
 8    1  0.6597859E-009  0.6137024E+02  0.7561462E-02  0.1392170E+00
          1   -1    0    0  501    0  0.00000000000E+00  0.00000000000E+00  0.36293338040E+03  0.36293338040E+03  0.00000000000E+00 0. -1.
         -1   -1    0    0    0  501 -0.00000000000E+00 -0.00000000000E+00 -0.36203739434E+02  0.36203739434E+02  0.00000000000E+00 0.  1.
         25    2    1    2    0    0  0.19023358549E+01 -0.33236418004E+02  0.15551804183E+03  0.20234256769E+03  0.12509346507E+03 0.  0.
         23    2    1    2    0    0 -0.19023358549E+01  0.33236418004E+02  0.17121159913E+03  0.19679455214E+03  0.91139484911E+02 0.  0.
          5    1    3    3  502    0 -0.13504937624E+02 -0.33674292061E+02 -0.85419987611E+01  0.37507058388E+02  0.41800000000E+01 0. -1.
         -5    1    3    3    0  502  0.15407273479E+02  0.43787405702E+00  0.16406004059E+03  0.16483550930E+03  0.41800000000E+01 0. -1.
        -11    1    4    4    0    0  0.27383323792E+02  0.20384537474E+01  0.87909555648E+01  0.28831972103E+02  0.00000000000E+00 0.  1.
         11    1    4    4    0    0 -0.29285659647E+02  0.31197964257E+02  0.16242064357E+03  0.16796258004E+03  0.00000000000E+00 0. -1.
</event>
<event>
 8    1  0.6597859E-009  0.1095741E+03  0.7561462E-02  0.1261361E+00
          1   -1    0    0  501    0  0.00000000000E+00  0.00000000000E+00  0.64605237923E+03  0.64605237923E+03  0.00000000000E+00 0. -1.
         -1   -1    0    0    0  501 -0.00000000000E+00 -0.00000000000E+00 -0.21430771072E+02  0.21430771072E+02  0.00000000000E+00 0.  1.
         25    2    1    2    0    0 -0.10475588419E+02  0.48429605419E+02  0.44181004425E+03  0.46183782653E+03  0.12507157223E+03 0.  0.
         23    2    1    2    0    0  0.10475588419E+02 -0.48429605419E+02  0.18281156391E+03  0.20564532377E+03  0.80092238435E+02 0.  0.
          5    1    3    3  502    0 -0.22705794613E+02 -0.36543935047E+02  0.21468726110E+03  0.21899567297E+03  0.41800000000E+01 0.  1.
         -5    1    3    3    0  502  0.12230206195E+02  0.84973540466E+02  0.22712278315E+03  0.24284215356E+03  0.41800000000E+01 0.  1.
        -11    1    4    4    0    0 -0.22094981158E+01  0.20128583405E+02  0.71400557237E+02  0.74216449158E+02  0.00000000000E+00 0. -1.
         11    1    4    4    0    0  0.12685086534E+02 -0.68558188824E+02  0.11141100667E+03  0.13142887461E+03  0.00000000000E+00 0.  1.
</event>
<event>
 8    1  0.6597859E-009  0.9901042E+02  0.7561462E-02  0.1282391E+00
         -1   -1    0    0    0  501 -0.00000000000E+00  0.00000000000E+00  0.16355047751E+03  0.16355047751E+03  0.00000000000E+00 0.  1.
          1   -1    0    0  501    0  0.00000000000E+00 -0.00000000000E+00 -0.87320857923E+02  0.87320857923E+02  0.00000000000E+00 0. -1.
         25    2    1    2    0    0 -0.34355405882E+02  0.12259268005E+02  0.79581987736E+02  0.15268034659E+03  0.12508961546E+03 0.  0.
         23    2    1    2    0    0  0.34355405882E+02 -0.12259268005E+02 -0.33523681515E+01  0.98190988842E+02  0.91102405854E+02 0.  0.
          5    1    3    3  502    0  0.21258455593E+02 -0.32139382007E+02  0.70985881090E+02  0.80878486163E+02  0.41800000000E+01 0.  1.
         -5    1    3    3    0  502 -0.55613861475E+02  0.44398650012E+02  0.85961066465E+01  0.71801860425E+02  0.41800000000E+01 0.  1.
        -11    1    4    4    0    0  0.15043940819E+02 -0.46385495454E+02 -0.23472077942E+02  0.54119061215E+02  0.00000000000E+00 0. -1.
         11    1    4    4    0    0  0.19311465062E+02  0.34126227449E+02  0.20119709790E+02  0.44071927627E+02  0.00000000000E+00 0.  1.
</event>
<event>
 8    1  0.6597859E-009  0.1070074E+03  0.7561462E-02  0.1266214E+00
         -1   -1    0    0    0  501 -0.00000000000E+00  0.00000000000E+00  0.25854306680E+03  0.25854306680E+03  0.00000000000E+00 0.  1.
          1   -1    0    0  501    0  0.00000000000E+00 -0.00000000000E+00 -0.58037485534E+02  0.58037485534E+02  0.00000000000E+00 0. -1.
         25    2    1    2    0    0 -0.25492744026E+02 -0.57156477962E+01  0.47382787059E+02  0.13629233892E+03  0.12509166443E+03 0.  0.
         23    2    1    2    0    0  0.25492744026E+02  0.57156477962E+01  0.15312279420E+03  0.18028821341E+03  0.91513393360E+02 0.  0.
          5    1    3    3  502    0  0.20792713664E+02  0.49940969714E+02  0.11811610362E+02  0.55528586663E+02  0.41800000000E+01 0. -1.
         -5    1    3    3    0  502 -0.46285457690E+02 -0.55656617510E+02  0.35571176697E+02  0.80763752252E+02  0.41800000000E+01 0. -1.
        -11    1    4    4    0    0 -0.11762305623E+02 -0.32086061732E+02  0.97909739897E+02  0.10370238357E+03  0.00000000000E+00 0.  1.
         11    1    4    4    0    0  0.37255049649E+02  0.37801709528E+02  0.55213054304E+02  0.76585829846E+02  0.00000000000E+00 0. -1.
</event>
<event>
 8    1  0.6597859E-009  0.2123918E+03  0.7561462E-02  0.1139686E+00
          1   -1    0    0  501    0  0.00000000000E+00  0.00000000000E+00  0.64857722136E+03  0.64857722136E+03  0.00000000000E+00 0. -1.
         -1   -1    0    0    0  501 -0.00000000000E+00 -0.00000000000E+00 -0.10072959672E+03  0.10072959672E+03  0.00000000000E+00 0.  1.
         25    2    1    2    0    0 -0.19697377872E+03 -0.24772337219E+02  0.10757508518E+03  0.25813276341E+03  0.12509111239E+03 0.  0.
         23    2    1    2    0    0  0.19697377872E+03  0.24772337219E+02  0.44027253947E+03  0.49117405467E+03  0.89441068727E+02 0.  0.
          5    1    3    3  502    0 -0.17931850033E+03  0.17249909244E+02  0.11197155169E+03  0.21215038232E+03  0.41800000000E+01 0.  1.
         -5    1    3    3    0  502 -0.17655278389E+02 -0.42022246463E+02 -0.43964665133E+01  0.45982381089E+02  0.41800000000E+01 0.  1.
        -11    1    4    4    0    0  0.83672649158E+02  0.15892788243E+02  0.29313042007E+03  0.30525257756E+03  0.00000000000E+00 0. -1.
         11    1    4    4    0    0  0.11330112956E+03  0.88795489764E+01  0.14714211940E+03  0.18592147711E+03  0.00000000000E+00 0.  1.
</event>
<event>
 8    1  0.6597859E-009  0.9731364E+02  0.7561462E-02  0.1286049E+00
          1   -1    0    0  501    0  0.00000000000E+00  0.00000000000E+00  0.13543247418E+02  0.13543247418E+02  0.00000000000E+00 0. -1.
         -1   -1    0    0    0  501 -0.00000000000E+00 -0.00000000000E+00 -0.11708650703E+04  0.11708650703E+04  0.00000000000E+00 0.  1.
         25    2    1    2    0    0  0.48495714944E+02  0.31894964513E+02 -0.74296411561E+03  0.75565350625E+03  0.12508965300E+03 0.  0.
         23    2    1    2    0    0 -0.48495714944E+02 -0.31894964513E+02 -0.41435770732E+03  0.42875481152E+03  0.93644303925E+02 0.  0.
          5    1    3    3  502    0  0.63153344290E+02  0.24529418490E+02 -0.17904068181E+03  0.19147604396E+03  0.41800000000E+01 0.  1.
         -5    1    3    3    0  502 -0.14657629346E+02  0.73655460224E+01 -0.56392343380E+03  0.56417746229E+03  0.41800000000E+01 0.  1.
        -11    1    4    4    0    0  0.27800811041E+02 -0.15325794222E+02 -0.13591808562E+03  0.13957611208E+03  0.00000000000E+00 0. -1.
         11    1    4    4    0    0 -0.76296525984E+02 -0.16569170291E+02 -0.27843962169E+03  0.28917869944E+03  0.00000000000E+00 0.  1.
</event>
<event>
 8    1  0.6597859E-009  0.9569539E+02  0.7561462E-02  0.1289618E+00
          2   -1    0    0  501    0  0.00000000000E+00  0.00000000000E+00  0.51335374067E+03  0.51335374067E+03  0.00000000000E+00 0. -1.
         -2   -1    0    0    0  501 -0.00000000000E+00 -0.00000000000E+00 -0.24663606412E+02  0.24663606412E+02  0.00000000000E+00 0.  1.
         25    2    1    2    0    0  0.16864120261E+02 -0.23167215978E+02  0.31077217971E+03  0.33622695354E+03  0.12509235850E+03 0.  0.
         23    2    1    2    0    0 -0.16864120261E+02  0.23167215978E+02  0.17791795455E+03  0.20179039355E+03  0.90793424478E+02 0.  0.
          5    1    3    3  502    0  0.64202385363E+01 -0.63789761112E+02  0.27015869633E+03  0.27769326007E+03  0.41800000000E+01 0. -1.
         -5    1    3    3    0  502  0.10443881725E+02  0.40622545134E+02  0.40613483380E+02  0.58533693467E+02  0.41800000000E+01 0. -1.
        -11    1    4    4    0    0  0.11893044493E+02 -0.25684180319E+02  0.21881751132E+02  0.35776146502E+02  0.00000000000E+00 0.  1.
         11    1    4    4    0    0 -0.28757164754E+02  0.48851396296E+02  0.15603620342E+03  0.16601424705E+03  0.00000000000E+00 0. -1.
</event>
<event>
 8    1  0.6597859E-009  0.1478907E+03  0.7561462E-02  0.1203089E+00
          1   -1    0    0  501    0  0.00000000000E+00  0.00000000000E+00  0.83773854783E+03  0.83773854783E+03  0.00000000000E+00 0. -1.
         -1   -1    0    0    0  501 -0.00000000000E+00 -0.00000000000E+00 -0.37946973676E+02  0.37946973676E+02  0.00000000000E+00 0.  1.
         25    2    1    2    0    0 -0.53441414852E+02  0.12953746684E+03  0.42711568079E+03  0.46659421091E+03  0.12508562161E+03 0.  0.
         23    2    1    2    0    0  0.53441414852E+02 -0.12953746684E+03  0.37267589337E+03  0.40909131060E+03  0.93981055427E+02 0.  0.
          5    1    3    3  502    0  0.93680181142E+01  0.61668939494E+02  0.55416408445E+02  0.83542016894E+02  0.41800000000E+01 0. -1.
         -5    1    3    3    0  502 -0.62809432966E+02  0.67868527349E+02  0.37169927235E+03  0.38305219401E+03  0.41800000000E+01 0. -1.
        -11    1    4    4    0    0  0.31548959551E+02 -0.59899499739E+02  0.68618247108E+02  0.96393727772E+02  0.00000000000E+00 0.  1.
         11    1    4    4    0    0  0.21892455300E+02 -0.69637967104E+02  0.30405764626E+03  0.31269758283E+03  0.00000000000E+00 0. -1.
</event>
<event>
 8    1  0.6597859E-009  0.1559392E+03  0.7561462E-02  0.1193359E+00
          1   -1    0    0  501    0  0.00000000000E+00  0.00000000000E+00  0.12860472989E+04  0.12860472989E+04  0.00000000000E+00 0. -1.
         -1   -1    0    0    0  501 -0.00000000000E+00 -0.00000000000E+00 -0.21936369668E+02  0.21936369668E+02  0.00000000000E+00 0.  1.
         25    2    1    2    0    0 -0.11586092933E+03 -0.49739967836E+02  0.76216003271E+03  0.78258056313E+03  0.12508638205E+03 0.  0.
         23    2    1    2    0    0  0.11586092933E+03  0.49739967836E+02  0.50195089656E+03  0.52540310548E+03  0.90531217519E+02 0.  0.
          5    1    3    3  502    0  0.16865133283E+02  0.20913143822E+02  0.11627606749E+03  0.11941268181E+03  0.41800000000E+01 0.  1.
         -5    1    3    3    0  502 -0.13272606262E+03 -0.70653111658E+02  0.64588396522E+03  0.66316788132E+03  0.41800000000E+01 0.  1.
        -11    1    4    4    0    0  0.49222111941E+02  0.46248958653E+02  0.12030826324E+03  0.13797050658E+03  0.00000000000E+00 0.  1.
         11    1    4    4    0    0  0.66638817392E+02  0.34910091831E+01  0.38164263332E+03  0.38743259891E+03  0.00000000000E+00 0. -1.
</event>
<event>
 8    1  0.6597859E-009  0.1215361E+03  0.7561462E-02  0.1240584E+00
          1   -1    0    0  501    0  0.00000000000E+00  0.00000000000E+00  0.59525609900E+03  0.59525609900E+03  0.00000000000E+00 0. -1.
         -1   -1    0    0    0  501 -0.00000000000E+00 -0.00000000000E+00 -0.31898957898E+02  0.31898957898E+02  0.00000000000E+00 0.  1.
         25    2    1    2    0    0 -0.59366535348E+01  0.79835320610E+02  0.37771502476E+03  0.40586172856E+03  0.12508469335E+03 0.  0.
         23    2    1    2    0    0  0.59366535348E+01 -0.79835320610E+02  0.18564211634E+03  0.22129332834E+03  0.89993441616E+02 0.  0.
          5    1    3    3  502    0 -0.49347489693E+02 -0.81975551484E+01  0.13360372463E+03  0.14272281627E+03  0.41800000000E+01 0.  1.
         -5    1    3    3    0  502  0.43410836158E+02  0.88032875758E+02  0.24411130012E+03  0.26313891228E+03  0.41800000000E+01 0.  1.
        -11    1    4    4    0    0  0.28337953527E+02 -0.46991186961E+02  0.34062679448E+02  0.64586975415E+02  0.00000000000E+00 0.  1.
         11    1    4    4    0    0 -0.22401299992E+02 -0.32844133649E+02  0.15157943690E+03  0.15670635292E+03  0.00000000000E+00 0. -1.
</event>
<event>
 8    1  0.6597859E-009  0.1442413E+03  0.7561462E-02  0.1207733E+00
          2   -1    0    0  501    0  0.00000000000E+00  0.00000000000E+00  0.84946208639E+03  0.84946208639E+03  0.00000000000E+00 0. -1.
         -2   -1    0    0    0  501 -0.00000000000E+00 -0.00000000000E+00 -0.32210483994E+02  0.32210483994E+02  0.00000000000E+00 0.  1.
         25    2    1    2    0    0  0.88520810051E+02  0.78948035871E+02  0.33432918796E+03  0.37615575774E+03  0.12509365283E+03 0.  0.
         23    2    1    2    0    0 -0.88520810051E+02 -0.78948035871E+02  0.48292241444E+03  0.50551681265E+03  0.90909093733E+02 0.  0.
          5    1    3    3  502    0  0.61463141541E+01  0.58037668833E+02  0.42886593766E+02  0.72545713216E+02  0.41800000000E+01 0.  1.
         -5    1    3    3    0  502  0.82374495897E+02  0.20910367038E+02  0.29144259420E+03  0.30361004452E+03  0.41800000000E+01 0.  1.
        -11    1    4    4    0    0  0.13327980851E+02 -0.27977789033E+02  0.60039293567E+02  0.67565586838E+02  0.00000000000E+00 0.  1.
         11    1    4    4    0    0 -0.10184879090E+03 -0.50970246838E+02  0.42288312087E+03  0.43795122581E+03  0.00000000000E+00 0. -1.
</event>
<event>
 8    1  0.6597859E-009  0.1051648E+03  0.7561462E-02  0.1269795E+00
          2   -1    0    0  501    0  0.00000000000E+00  0.00000000000E+00  0.84637183329E+02  0.84637183329E+02  0.00000000000E+00 0.  1.
         -2   -1    0    0    0  501 -0.00000000000E+00 -0.00000000000E+00 -0.19410296554E+03  0.19410296554E+03  0.00000000000E+00 0. -1.
         25    2    1    2    0    0 -0.36634868546E+02 -0.47320136966E+02 -0.97719564636E+02  0.16964525292E+03  0.12509632117E+03 0.  0.
         23    2    1    2    0    0  0.36634868546E+02  0.47320136966E+02 -0.11746217574E+02  0.10909489595E+03  0.90456695376E+02 0.  0.
          5    1    3    3  502    0 -0.12163260357E+02 -0.68334968118E+02 -0.31140534581E+01  0.69604471832E+02  0.41800000000E+01 0. -1.
         -5    1    3    3    0  502 -0.24471608189E+02  0.21014831151E+02 -0.94605511178E+02  0.10004078109E+03  0.41800000000E+01 0. -1.
        -11    1    4    4    0    0  0.65427920062E+02  0.44944631638E+02 -0.11473694235E+02  0.80202732473E+02  0.00000000000E+00 0.  1.
         11    1    4    4    0    0 -0.28793051517E+02  0.23755053287E+01 -0.27252333877E+00  0.28892163473E+02  0.00000000000E+00 0. -1.
</event>
<event>
 8    1  0.6597859E-009  0.1118469E+03  0.7561462E-02  0.1257188E+00
         -1   -1    0    0    0  501 -0.00000000000E+00  0.00000000000E+00  0.19486545920E+03  0.19486545920E+03  0.00000000000E+00 0.  1.
          1   -1    0    0  501    0  0.00000000000E+00 -0.00000000000E+00 -0.12060669907E+03  0.12060669907E+03  0.00000000000E+00 0. -1.
         25    2    1    2    0    0 -0.10024277164E+03  0.15296012056E+02  0.79587110684E+01  0.16122741318E+03  0.12509339083E+03 0.  0.
         23    2    1    2    0    0  0.10024277164E+03 -0.15296012056E+02  0.66300049063E+02  0.15424474509E+03  0.95462891385E+02 0.  0.
          5    1    3    3  502    0 -0.50057391260E+01 -0.32628491259E+01  0.53476457440E+02  0.53971358228E+02  0.41800000000E+01 0. -1.
         -5    1    3    3    0  502 -0.95237032512E+02  0.18558861182E+02 -0.45517746372E+02  0.10725605496E+03  0.41800000000E+01 0. -1.
        -11    1    4    4    0    0  0.92782392890E+01 -0.26080254698E+02  0.55485112959E+02  0.62006960653E+02  0.00000000000E+00 0.  1.
         11    1    4    4    0    0  0.90964532349E+02  0.10784242642E+02  0.10814936104E+02  0.92237784436E+02  0.00000000000E+00 0. -1.
</event>
<event>
 8    1  0.6597859E-009  0.1100810E+03  0.7561462E-02  0.1260420E+00
          1   -1    0    0  501    0  0.00000000000E+00  0.00000000000E+00  0.24679544852E+03  0.24679544852E+03  0.00000000000E+00 0. -1.
         -1   -1    0    0    0  501 -0.00000000000E+00 -0.00000000000E+00 -0.10954587000E+03  0.10954587000E+03  0.00000000000E+00 0.  1.
         25    2    1    2    0    0 -0.59942487774E+02 -0.70298042865E+02  0.15735355096E+03  0.22123110198E+03  0.12509254098E+03 0.  0.
         23    2    1    2    0    0  0.59942487774E+02  0.70298042865E+02 -0.20103972448E+02  0.13511021654E+03  0.96517792320E+02 0.  0.
          5    1    3    3  502    0 -0.31637139845E+02  0.15780050520E+02  0.11636935815E+03  0.12169313262E+03  0.41800000000E+01 0. -1.
         -5    1    3    3    0  502 -0.28305347929E+02 -0.86078093385E+02  0.40984192816E+02  0.99537969353E+02  0.41800000000E+01 0. -1.
        -11    1    4    4    0    0  0.93907198652E+01  0.22073179910E+02 -0.52784610147E+02  0.57979530520E+02  0.00000000000E+00 0.  1.
         11    1    4    4    0    0  0.50551767909E+02  0.48224862955E+02  0.32680637699E+02  0.77130686021E+02  0.00000000000E+00 0. -1.
</event>
<event>
 8    1  0.6597859E-009  0.2659545E+03  0.7561462E-02  0.1103618E+00
          2   -1    0    0  501    0  0.00000000000E+00  0.00000000000E+00  0.28040618737E+03  0.28040618737E+03  0.00000000000E+00 0. -1.
         -2   -1    0    0    0  501 -0.00000000000E+00 -0.00000000000E+00 -0.26600089951E+03  0.26600089951E+03  0.00000000000E+00 0.  1.
         25    2    1    2    0    0  0.24253175391E+03  0.51455622616E+02  0.38824654798E+02  0.28040042636E+03  0.12509081712E+03 0.  0.
         23    2    1    2    0    0 -0.24253175391E+03 -0.51455622616E+02 -0.24419366944E+02  0.26600666052E+03  0.93241113284E+02 0.  0.
          5    1    3    3  502    0  0.20761388402E+03  0.79465914359E+02  0.21047238061E+01  0.22235165537E+03  0.41800000000E+01 0. -1.
         -5    1    3    3    0  502  0.34917869887E+02 -0.28010291743E+02  0.36719930991E+02  0.58048770986E+02  0.41800000000E+01 0. -1.
        -11    1    4    4    0    0 -0.23269371770E+03 -0.22208816656E+02 -0.25448621993E+02  0.23513236731E+03  0.00000000000E+00 0.  1.
         11    1    4    4    0    0 -0.98380362054E+01 -0.29246805960E+02  0.10292550494E+01  0.30874293210E+02  0.00000000000E+00 0. -1.
</event>
<event>
 8    1  0.6597859E-009  0.1113074E+03  0.7561462E-02  0.1258168E+00
          2   -1    0    0  501    0  0.00000000000E+00  0.00000000000E+00  0.92889082564E+03  0.92889082564E+03  0.00000000000E+00 0. -1.
         -2   -1    0    0    0  501 -0.00000000000E+00 -0.00000000000E+00 -0.19390974635E+02  0.19390974635E+02  0.00000000000E+00 0.  1.
         25    2    1    2    0    0  0.21513005305E+02  0.46411467119E+02  0.69394236678E+03  0.70697929200E+03  0.12508747830E+03 0.  0.
         23    2    1    2    0    0 -0.21513005305E+02 -0.46411467119E+02  0.21555748422E+03  0.24130250827E+03  0.95629691084E+02 0.  0.
          5    1    3    3  502    0 -0.51500546804E+02  0.14818745891E+02  0.33654890063E+03  0.34081451916E+03  0.41800000000E+01 0.  1.
         -5    1    3    3    0  502  0.73013552110E+02  0.31592721229E+02  0.35739346614E+03  0.36616477284E+03  0.41800000000E+01 0.  1.
        -11    1    4    4    0    0  0.10806088953E+02 -0.54760469410E+02  0.58970915029E+02  0.81197594717E+02  0.00000000000E+00 0.  1.
         11    1    4    4    0    0 -0.32319094258E+02  0.83490022904E+01  0.15658656919E+03  0.16010491356E+03  0.00000000000E+00 0. -1.
</event>
<event>
 8    1  0.6597859E-009  0.1413455E+03  0.7561462E-02  0.1211530E+00
          2   -1    0    0  501    0  0.00000000000E+00  0.00000000000E+00  0.47719970794E+03  0.47719970794E+03  0.00000000000E+00 0. -1.
         -2   -1    0    0    0  501 -0.00000000000E+00 -0.00000000000E+00 -0.62566069955E+02  0.62566069955E+02  0.00000000000E+00 0.  1.
         25    2    1    2    0    0  0.71150483548E+02  0.88724410328E+02  0.33107330136E+03  0.37173925860E+03  0.12508450429E+03 0.  0.
         23    2    1    2    0    0 -0.71150483548E+02 -0.88724410328E+02  0.83560336630E+02  0.16802651930E+03  0.91193031712E+02 0.  0.
          5    1    3    3  502    0  0.50797981131E+02 -0.13948434610E+02  0.54134528848E+02  0.75650600319E+02  0.41800000000E+01 0. -1.
         -5    1    3    3    0  502  0.20352502417E+02  0.10267284494E+03  0.27693877251E+03  0.29608865828E+03  0.41800000000E+01 0. -1.
        -11    1    4    4    0    0 -0.12936131663E+02 -0.57691200877E+02 -0.29923353486E+01  0.59199427632E+02  0.00000000000E+00 0. -1.
         11    1    4    4    0    0 -0.58214351885E+02 -0.31033209451E+02  0.86552671979E+02  0.10882709167E+03  0.00000000000E+00 0.  1.
</event>
<event>
 8    1  0.6597859E-009  0.1009702E+03  0.7561462E-02  0.1278269E+00
         -2   -1    0    0    0  501 -0.00000000000E+00  0.00000000000E+00  0.56941095576E+02  0.56941095576E+02  0.00000000000E+00 0.  1.
          2   -1    0    0  501    0  0.00000000000E+00 -0.00000000000E+00 -0.37641954542E+03  0.37641954542E+03  0.00000000000E+00 0. -1.
         25    2    1    2    0    0  0.64633966857E+02  0.13530374130E+02 -0.27949112254E+03  0.31324430640E+03  0.12508432042E+03 0.  0.
         23    2    1    2    0    0 -0.64633966857E+02 -0.13530374130E+02 -0.39987327303E+02  0.12011633460E+03  0.92023512196E+02 0.  0.
          5    1    3    3  502    0  0.35417418435E+02  0.36686225716E+02 -0.26750899637E+02  0.57735220769E+02  0.41800000000E+01 0.  1.
         -5    1    3    3    0  502  0.29216548422E+02 -0.23155851586E+02 -0.25274022291E+03  0.25550908563E+03  0.41800000000E+01 0.  1.
        -11    1    4    4    0    0 -0.74197189493E+02  0.21259211355E+02 -0.26905283280E+02  0.81737820282E+02  0.00000000000E+00 0.  1.
         11    1    4    4    0    0  0.95632226357E+01 -0.34789585485E+02 -0.13082044023E+02  0.38378514317E+02  0.00000000000E+00 0. -1.
</event>
<event>
 8    1  0.6597859E-009  0.8621727E+02  0.7561462E-02  0.1312280E+00
          3   -1    0    0  501    0  0.00000000000E+00  0.00000000000E+00  0.27121228891E+02  0.27121228891E+02  0.00000000000E+00 0. -1.
         -3   -1    0    0    0  501 -0.00000000000E+00 -0.00000000000E+00 -0.58145125952E+03  0.58145125952E+03  0.00000000000E+00 0.  1.
         25    2    1    2    0    0  0.46162806617E+02 -0.43453410570E+02 -0.31050458790E+03  0.34070734481E+03  0.12509673097E+03 0.  0.
         23    2    1    2    0    0 -0.46162806617E+02  0.43453410570E+02 -0.24382544273E+03  0.26786514360E+03  0.91003763809E+02 0.  0.
          5    1    3    3  502    0  0.10243546221E+02 -0.17322426364E+02 -0.29148281206E+03  0.29220660297E+03  0.41800000000E+01 0.  1.
         -5    1    3    3    0  502  0.35919260396E+02 -0.26130984206E+02 -0.19021775837E+02  0.48500741839E+02  0.41800000000E+01 0.  1.
        -11    1    4    4    0    0 -0.52030079151E+02  0.65957557906E+02 -0.21498481217E+03  0.23081593976E+03  0.00000000000E+00 0.  1.
         11    1    4    4    0    0  0.58672725339E+01 -0.22504147336E+02 -0.28840630562E+02  0.37049203845E+02  0.00000000000E+00 0. -1.
</event>
<event>
 8    1  0.6597859E-009  0.1064850E+03  0.7561462E-02  0.1267221E+00
          2   -1    0    0  501    0  0.00000000000E+00  0.00000000000E+00  0.73734498907E+03  0.73734498907E+03  0.00000000000E+00 0. -1.
         -2   -1    0    0    0  501 -0.00000000000E+00 -0.00000000000E+00 -0.19342071991E+02  0.19342071991E+02  0.00000000000E+00 0.  1.
         25    2    1    2    0    0  0.67431103651E+01 -0.25017605778E+02  0.55490523706E+03  0.56941837006E+03  0.12508440318E+03 0.  0.
         23    2    1    2    0    0 -0.67431103651E+01  0.25017605778E+02  0.16309768002E+03  0.18726869100E+03  0.88302657165E+02 0.  0.
          5    1    3    3  502    0 -0.17993939009E+02 -0.72033440239E+02  0.31296409987E+03  0.32167778686E+03  0.41800000000E+01 0. -1.
         -5    1    3    3    0  502  0.24737049374E+02  0.47015834461E+02  0.24194113719E+03  0.24774058320E+03  0.41800000000E+01 0. -1.
        -11    1    4    4    0    0  0.33191013625E+02  0.30413412318E+02  0.12048139514E+03  0.12861720572E+03  0.00000000000E+00 0.  1.
         11    1    4    4    0    0 -0.39934123991E+02 -0.53958065402E+01  0.42616284888E+02  0.58651485273E+02  0.00000000000E+00 0. -1.
</event>
<event>
 8    1  0.6597859E-009  0.1262264E+03  0.7561462E-02  0.1233165E+00
          2   -1    0    0  501    0  0.00000000000E+00  0.00000000000E+00  0.67148352212E+03  0.67148352212E+03  0.00000000000E+00 0. -1.
         -2   -1    0    0    0  501 -0.00000000000E+00 -0.00000000000E+00 -0.30487398889E+02  0.30487398889E+02  0.00000000000E+00 0.  1.
         25    2    1    2    0    0 -0.62271265307E+02 -0.66404626565E+02  0.37634805399E+03  0.40690563734E+03  0.12508818905E+03 0.  0.
         23    2    1    2    0    0  0.62271265307E+02  0.66404626565E+02  0.26464806923E+03  0.29506528367E+03  0.93475323833E+02 0.  0.
          5    1    3    3  502    0 -0.94166034103E+02 -0.66081572561E+02  0.23166334544E+03  0.25868783163E+03  0.41800000000E+01 0.  1.
         -5    1    3    3    0  502  0.31894768796E+02 -0.32305400409E+00  0.14468470855E+03  0.14821780571E+03  0.41800000000E+01 0.  1.
        -11    1    4    4    0    0  0.12370555237E+02  0.51681042181E+02  0.45913464667E+02  0.70228249270E+02  0.00000000000E+00 0.  1.
         11    1    4    4    0    0  0.49900710070E+02  0.14723584384E+02  0.21873460457E+03  0.22483703440E+03  0.00000000000E+00 0. -1.
</event>
<event>
 8    1  0.6597859E-009  0.1085234E+03  0.7561462E-02  0.1263329E+00
          2   -1    0    0  501    0  0.00000000000E+00  0.00000000000E+00  0.12087059332E+04  0.12087059332E+04  0.00000000000E+00 0.  1.
         -2   -1    0    0    0  501 -0.00000000000E+00 -0.00000000000E+00 -0.17786836789E+02  0.17786836789E+02  0.00000000000E+00 0. -1.
         25    2    1    2    0    0 -0.67170485866E+02 -0.83122073959E+01  0.93654435343E+03  0.94728218576E+03  0.12508895455E+03 0.  0.
         23    2    1    2    0    0  0.67170485866E+02  0.83122073959E+01  0.25437474300E+03  0.27921058425E+03  0.93118599202E+02 0.  0.
          5    1    3    3  502    0 -0.75967989048E+02 -0.28007208488E+02  0.90619386139E+03  0.90981334674E+03  0.41800000000E+01 0.  1.
         -5    1    3    3    0  502  0.87975031826E+01  0.19695001092E+02  0.30350492042E+02  0.37468839019E+02  0.41800000000E+01 0.  1.
        -11    1    4    4    0    0  0.13285094184E+02 -0.39678224158E+02  0.75306072954E+02  0.86150216619E+02  0.00000000000E+00 0.  1.
         11    1    4    4    0    0  0.53885391682E+02  0.47990431554E+02  0.17906867005E+03  0.19306036763E+03  0.00000000000E+00 0. -1.
</event>
<event>
 8    1  0.6597859E-009  0.1470163E+03  0.7561462E-02  0.1204188E+00
         -3   -1    0    0    0  501 -0.00000000000E+00  0.00000000000E+00  0.47451183551E+03  0.47451183551E+03  0.00000000000E+00 0.  1.
          3   -1    0    0  501    0  0.00000000000E+00 -0.00000000000E+00 -0.65804933608E+02  0.65804933608E+02  0.00000000000E+00 0. -1.
         25    2    1    2    0    0  0.10595334697E+03 -0.72757604291E+01  0.77732555248E+02  0.18157713054E+03  0.12509538666E+03 0.  0.
         23    2    1    2    0    0 -0.10595334697E+03  0.72757604291E+01  0.33097434666E+03  0.35873963859E+03  0.88719004300E+02 0.  0.
          5    1    3    3  502    0  0.91053120395E+02  0.48053573562E+02  0.31247809008E+02  0.10767411311E+03  0.41800000000E+01 0.  1.
         -5    1    3    3    0  502  0.14900226573E+02 -0.55329333991E+02  0.46484746240E+02  0.73903017427E+02  0.41800000000E+01 0.  1.
        -11    1    4    4    0    0 -0.35249060861E+02  0.41947740861E+02  0.91507380802E+02  0.10665697350E+03  0.00000000000E+00 0.  1.
         11    1    4    4    0    0 -0.70704286107E+02 -0.34671980432E+02  0.23946696585E+03  0.25208266509E+03  0.00000000000E+00 0. -1.
</event>
<event>
 8    1  0.6597859E-009  0.1263872E+03  0.7561462E-02  0.1232917E+00
          2   -1    0    0  501    0  0.00000000000E+00  0.00000000000E+00  0.62273111408E+03  0.62273111408E+03  0.00000000000E+00 0. -1.
         -2   -1    0    0    0  501 -0.00000000000E+00 -0.00000000000E+00 -0.25976985530E+02  0.25976985530E+02  0.00000000000E+00 0.  1.
         25    2    1    2    0    0  0.20422803995E+02  0.62898826379E+02  0.34717040000E+03  0.37489642940E+03  0.12508674133E+03 0.  0.
         23    2    1    2    0    0 -0.20422803995E+02 -0.62898826379E+02  0.24958372856E+03  0.27381167022E+03  0.91145158426E+02 0.  0.
          5    1    3    3  502    0  0.64929925791E+02  0.23481595271E+01  0.13773347098E+03  0.15234628497E+03  0.41800000000E+01 0. -1.
         -5    1    3    3    0  502 -0.44507121797E+02  0.60550666852E+02  0.20943692902E+03  0.22255014442E+03  0.41800000000E+01 0. -1.
        -11    1    4    4    0    0  0.16543996014E+02  0.17396520384E+02  0.46781479046E+02  0.52581836287E+02  0.00000000000E+00 0. -1.
         11    1    4    4    0    0 -0.36966800009E+02 -0.80295346763E+02  0.20280224951E+03  0.22122983393E+03  0.00000000000E+00 0.  1.
</event>
<event>
 8    1  0.6597859E-009  0.2505992E+03  0.7561462E-02  0.1112927E+00
         -1   -1    0    0    0  501 -0.00000000000E+00  0.00000000000E+00  0.24820676635E+03  0.24820676635E+03  0.00000000000E+00 0.  1.
          1   -1    0    0  501    0  0.00000000000E+00 -0.00000000000E+00 -0.38589663966E+03  0.38589663966E+03  0.00000000000E+00 0. -1.
         25    2    1    2    0    0 -0.23818646215E+01 -0.24895693871E+03  0.81220457585E+02  0.29022329027E+03  0.12509022692E+03 0.  0.
         23    2    1    2    0    0  0.23818646215E+01  0.24895693871E+03 -0.21891033089E+03  0.34388011574E+03  0.91359566639E+02 0.  0.
          5    1    3    3  502    0  0.44549440222E+01 -0.15459450515E+03 -0.14722465866E+02  0.15541406291E+03  0.41800000000E+01 0.  1.
         -5    1    3    3    0  502 -0.68368086437E+01 -0.94362433558E+02  0.95942923451E+02  0.13480922735E+03  0.41800000000E+01 0.  1.
        -11    1    4    4    0    0 -0.14616506473E+02  0.18588444731E+03 -0.20496128301E+03  0.27708445923E+03  0.00000000000E+00 0.  1.
         11    1    4    4    0    0  0.16998371095E+02  0.63072491400E+02 -0.13949047881E+02  0.66795656506E+02  0.00000000000E+00 0. -1.
</event>
<event>
 8    1  0.6597859E-009  0.1179658E+03  0.7561462E-02  0.1246491E+00
          1   -1    0    0  501    0  0.00000000000E+00  0.00000000000E+00  0.31689802707E+03  0.31689802707E+03  0.00000000000E+00 0. -1.
         -1   -1    0    0    0  501 -0.00000000000E+00 -0.00000000000E+00 -0.47504125652E+02  0.47504125652E+02  0.00000000000E+00 0.  1.
         25    2    1    2    0    0  0.53254422335E+02  0.19864772907E+02  0.13860671668E+03  0.19516625138E+03  0.12508957218E+03 0.  0.
         23    2    1    2    0    0 -0.53254422335E+02 -0.19864772907E+02  0.13078718474E+03  0.16923590134E+03  0.91131004110E+02 0.  0.
          5    1    3    3  502    0  0.25112561160E+02 -0.48594958878E+02  0.93442375380E+02  0.10835617506E+03  0.41800000000E+01 0. -1.
         -5    1    3    3    0  502  0.28141861175E+02  0.68459731785E+02  0.45164341303E+02  0.86810076326E+02  0.41800000000E+01 0. -1.
        -11    1    4    4    0    0 -0.78639610364E+02 -0.21415205353E+02  0.92657050149E+02  0.12340230258E+03  0.00000000000E+00 0. -1.
         11    1    4    4    0    0  0.25385188029E+02  0.15504324462E+01  0.38130134590E+02  0.45833598767E+02  0.00000000000E+00 0.  1.
</event>
<event>
 8    1  0.6597859E-009  0.1378785E+03  0.7561462E-02  0.1216212E+00
         -1   -1    0    0    0  501 -0.00000000000E+00  0.00000000000E+00  0.14984514947E+03  0.14984514947E+03  0.00000000000E+00 0.  1.
          1   -1    0    0  501    0  0.00000000000E+00 -0.00000000000E+00 -0.19407233180E+03  0.19407233180E+03  0.00000000000E+00 0. -1.
         25    2    1    2    0    0  0.53862704602E+02  0.10151096560E+03 -0.87202000673E+02  0.19093645592E+03  0.12508746617E+03 0.  0.
         23    2    1    2    0    0 -0.53862704602E+02 -0.10151096560E+03  0.42974818341E+02  0.15298102534E+03  0.91382120897E+02 0.  0.
          5    1    3    3  502    0 -0.34548543309E+01 -0.22879573015E+02  0.71413963783E+01  0.24574027387E+02  0.41800000000E+01 0. -1.
         -5    1    3    3    0  502  0.57317558933E+02  0.12439053862E+03 -0.94343397051E+02  0.16636242853E+03  0.41800000000E+01 0. -1.
        -11    1    4    4    0    0 -0.26226530625E+02 -0.40637341367E+02 -0.27667582580E+02  0.55720010300E+02  0.00000000000E+00 0. -1.
         11    1    4    4    0    0 -0.27636173977E+02 -0.60873624235E+02  0.70642400921E+02  0.97261015045E+02  0.00000000000E+00 0.  1.
</event>
<event>
 8    1  0.6597859E-009  0.1109602E+03  0.7561462E-02  0.1258802E+00
         -2   -1    0    0    0  501 -0.00000000000E+00  0.00000000000E+00  0.50483681415E+02  0.50483681415E+02  0.00000000000E+00 0.  1.
          2   -1    0    0  501    0  0.00000000000E+00 -0.00000000000E+00 -0.41892177330E+03  0.41892177330E+03  0.00000000000E+00 0. -1.
         25    2    1    2    0    0  0.37860464221E+02  0.88612853221E+02 -0.21209193712E+03  0.26441645449E+03  0.12508964427E+03 0.  0.
         23    2    1    2    0    0 -0.37860464221E+02 -0.88612853221E+02 -0.15634615476E+03  0.20498900023E+03  0.91053377748E+02 0.  0.
          5    1    3    3  502    0  0.55840694792E+02  0.29038844369E+02 -0.26133619208E+02  0.68277932966E+02  0.41800000000E+01 0. -1.
         -5    1    3    3    0  502 -0.17980230571E+02  0.59574008852E+02 -0.18595831792E+03  0.19613852152E+03  0.41800000000E+01 0. -1.
        -11    1    4    4    0    0 -0.28780473543E+02 -0.62005338565E+02 -0.16242612485E+03  0.17622492361E+03  0.00000000000E+00 0. -1.
         11    1    4    4    0    0 -0.90799906786E+01 -0.26607514656E+02  0.60799700973E+01  0.28764076611E+02  0.00000000000E+00 0.  1.
</event>
<event>
 8    1  0.6597859E-009  0.8758026E+02  0.7561462E-02  0.1308820E+00
         -2   -1    0    0    0  501 -0.00000000000E+00  0.00000000000E+00  0.22119070792E+02  0.22119070792E+02  0.00000000000E+00 0.  1.
          2   -1    0    0  501    0  0.00000000000E+00 -0.00000000000E+00 -0.80346943352E+03  0.80346943352E+03  0.00000000000E+00 0. -1.
         25    2    1    2    0    0 -0.52475892531E+02 -0.46135334125E+02 -0.33244861881E+03  0.36200995343E+03  0.12508770475E+03 0.  0.
         23    2    1    2    0    0  0.52475892531E+02  0.46135334125E+02 -0.44890174392E+03  0.46357855089E+03  0.92250250926E+02 0.  0.
          5    1    3    3  502    0 -0.37855835479E+02 -0.41704101647E+02 -0.40179632408E+02  0.69312131942E+02  0.41800000000E+01 0.  1.
         -5    1    3    3    0  502 -0.14620057052E+02 -0.44312324784E+01 -0.29226898640E+03  0.29269782148E+03  0.41800000000E+01 0.  1.
        -11    1    4    4    0    0  0.11323920338E+02  0.58727022446E+02 -0.35851602104E+03  0.36347053757E+03  0.00000000000E+00 0. -1.
         11    1    4    4    0    0  0.41151972193E+02 -0.12591688321E+02 -0.90385722879E+02  0.10010801332E+03  0.00000000000E+00 0.  1.
</event>
<event>
 8    1  0.6597859E-009  0.2933294E+03  0.7561462E-02  0.1088624E+00
          1   -1    0    0  501    0  0.00000000000E+00  0.00000000000E+00  0.15256279462E+04  0.15256279462E+04  0.00000000000E+00 0. -1.
         -1   -1    0    0    0  501 -0.00000000000E+00 -0.00000000000E+00 -0.84641055999E+02  0.84641055999E+02  0.00000000000E+00 0.  1.
         25    2    1    2    0    0 -0.13185965940E+03 -0.25500274455E+03  0.31351285657E+03  0.44311551902E+03  0.12509069694E+03 0.  0.
         23    2    1    2    0    0  0.13185965940E+03  0.25500274455E+03  0.11274740336E+04  0.11671534832E+04  0.92931088813E+02 0.  0.
          5    1    3    3  502    0  0.11890673612E+02 -0.28371088940E+02  0.86477890762E+00  0.31056835787E+02  0.41800000000E+01 0. -1.
         -5    1    3    3    0  502 -0.14375033302E+03 -0.22663165561E+03  0.31264807766E+03  0.41205868324E+03  0.41800000000E+01 0. -1.
        -11    1    4    4    0    0  0.73032895482E+02  0.15042709080E+03  0.82448801363E+03  0.84127438930E+03  0.00000000000E+00 0. -1.
         11    1    4    4    0    0  0.58826763921E+02  0.10457565374E+03  0.30298602002E+03  0.32587909389E+03  0.00000000000E+00 0.  1.
</event>
<event>
 8    1  0.6597859E-009  0.9182842E+02  0.7561462E-02  0.1298483E+00
         -1   -1    0    0    0  501 -0.00000000000E+00  0.00000000000E+00  0.29459237713E+02  0.29459237713E+02  0.00000000000E+00 0.  1.
          1   -1    0    0  501    0  0.00000000000E+00 -0.00000000000E+00 -0.66782654059E+03  0.66782654059E+03  0.00000000000E+00 0. -1.
         25    2    1    2    0    0 -0.38335545750E+02  0.17623658107E+02 -0.53284536247E+03  0.54895810195E+03  0.12510239804E+03 0.  0.
         23    2    1    2    0    0  0.38335545750E+02 -0.17623658107E+02 -0.10552194041E+03  0.14832767635E+03  0.95320576331E+02 0.  0.
          5    1    3    3  502    0 -0.17313820754E+02  0.43332137385E+02 -0.49956677412E+03  0.50175878340E+03  0.41800000000E+01 0.  1.
         -5    1    3    3    0  502 -0.21021724997E+02 -0.25708479278E+02 -0.33278588359E+02  0.47199318552E+02  0.41800000000E+01 0.  1.
        -11    1    4    4    0    0  0.20587163308E+02  0.38943193883E+02 -0.54764601288E+02  0.70282040359E+02  0.00000000000E+00 0. -1.
         11    1    4    4    0    0  0.17748382442E+02 -0.56566851989E+02 -0.50757339120E+02  0.78045635995E+02  0.00000000000E+00 0.  1.
</event>
<event>
 8    1  0.6597859E-009  0.8483372E+02  0.7561462E-02  0.1315868E+00
          3   -1    0    0  501    0  0.00000000000E+00  0.00000000000E+00  0.60424098971E+02  0.60424098971E+02  0.00000000000E+00 0. -1.
         -3   -1    0    0    0  501 -0.00000000000E+00 -0.00000000000E+00 -0.22253568074E+03  0.22253568074E+03  0.00000000000E+00 0.  1.
         25    2    1    2    0    0  0.20512167033E+01  0.35945391707E+02 -0.10629896695E+03  0.16805314814E+03  0.12508441770E+03 0.  0.
         23    2    1    2    0    0 -0.20512167033E+01 -0.35945391707E+02 -0.55812614819E+02  0.11490663157E+03  0.93766770931E+02 0.  0.
          5    1    3    3  502    0 -0.55565049096E+02  0.44407003099E+02 -0.50871603979E+02  0.87549123906E+02  0.41800000000E+01 0.  1.
         -5    1    3    3    0  502  0.57616265799E+02 -0.84616113927E+01 -0.55427362968E+02  0.80504024232E+02  0.41800000000E+01 0.  1.
        -11    1    4    4    0    0 -0.92486029335E+01 -0.12796838715E+02 -0.79476589632E+02  0.81029772534E+02  0.00000000000E+00 0.  1.
         11    1    4    4    0    0  0.71973862301E+01 -0.23148552991E+02  0.23663974813E+02  0.33876859035E+02  0.00000000000E+00 0. -1.
</event>
<event>
 8    1  0.6597859E-009  0.9847851E+02  0.7561462E-02  0.1283528E+00
         -2   -1    0    0    0  501 -0.00000000000E+00  0.00000000000E+00  0.78678761043E+02  0.78678761043E+02  0.00000000000E+00 0.  1.
          2   -1    0    0  501    0  0.00000000000E+00 -0.00000000000E+00 -0.24915803585E+03  0.24915803585E+03  0.00000000000E+00 0. -1.
         25    2    1    2    0    0  0.48713886844E+02  0.24938593422E+02 -0.18331744466E+03  0.22857128236E+03  0.12507825306E+03 0.  0.
         23    2    1    2    0    0 -0.48713886844E+02 -0.24938593422E+02  0.12838169846E+02  0.99265514540E+02  0.81815937069E+02 0.  0.
          5    1    3    3  502    0 -0.41441222980E+02  0.16714422784E+02 -0.74319191451E+02  0.86819131008E+02  0.41800000000E+01 0. -1.
         -5    1    3    3    0  502  0.90155109824E+02  0.82241706389E+01 -0.10899825320E+03  0.14175215135E+03  0.41800000000E+01 0. -1.
        -11    1    4    4    0    0 -0.21584932240E+02 -0.26618315236E+02 -0.31963918481E+02  0.46862950082E+02  0.00000000000E+00 0. -1.
         11    1    4    4    0    0 -0.27128954604E+02  0.16797218132E+01  0.44802088327E+02  0.52402564458E+02  0.00000000000E+00 0.  1.
</event>
<event>
 8    1  0.6597859E-009  0.8306943E+02  0.7561462E-02  0.1320560E+00
         -1   -1    0    0    0  501 -0.00000000000E+00  0.00000000000E+00  0.20600435694E+03  0.20600435694E+03  0.00000000000E+00 0.  1.
          1   -1    0    0  501    0  0.00000000000E+00 -0.00000000000E+00 -0.13255940381E+03  0.13255940381E+03  0.00000000000E+00 0. -1.
         25    2    1    2    0    0  0.73221824661E+02  0.10299847705E+02  0.13962854761E+03  0.20152202169E+03  0.12508985350E+03 0.  0.
         23    2    1    2    0    0 -0.73221824661E+02 -0.10299847705E+02 -0.66183594479E+02  0.13704173905E+03  0.94512684839E+02 0.  0.
          5    1    3    3  502    0  0.93867984665E+01  0.18710225288E+02  0.13517089221E+03  0.13684599744E+03  0.41800000000E+01 0. -1.
         -5    1    3    3    0  502  0.63835026195E+02 -0.84103775829E+01  0.44576553999E+01  0.64676024244E+02  0.41800000000E+01 0. -1.
        -11    1    4    4    0    0 -0.19480255421E+02  0.11104845723E+02  0.22106900355E+02  0.31488299304E+02  0.00000000000E+00 0.  1.
         11    1    4    4    0    0 -0.53741569240E+02 -0.21404693427E+02 -0.88290494833E+02  0.10555343975E+03  0.00000000000E+00 0. -1.
</event>
<event>
 8    1  0.6597859E-009  0.1630231E+03  0.7561462E-02  0.1185325E+00
         -1   -1    0    0    0  501 -0.00000000000E+00  0.00000000000E+00  0.37069865225E+03  0.37069865225E+03  0.00000000000E+00 0.  1.
          1   -1    0    0  501    0  0.00000000000E+00 -0.00000000000E+00 -0.83672755050E+02  0.83672755050E+02  0.00000000000E+00 0. -1.
         25    2    1    2    0    0  0.13269728599E+03 -0.13791564485E+02  0.19900438546E+03  0.27028004180E+03  0.12509907516E+03 0.  0.
         23    2    1    2    0    0 -0.13269728599E+03  0.13791564485E+02  0.88021511740E+02  0.18409136549E+03  0.91340392826E+02 0.  0.
          5    1    3    3  502    0  0.10386300537E+03 -0.65131509387E+02  0.11945859992E+03  0.17122344143E+03  0.41800000000E+01 0. -1.
         -5    1    3    3    0  502  0.28834280615E+02  0.51339944902E+02  0.79545785536E+02  0.99056600374E+02  0.41800000000E+01 0. -1.
        -11    1    4    4    0    0 -0.11780923731E+03 -0.78610799576E+01  0.10045352833E+03  0.15502168986E+03  0.00000000000E+00 0.  1.
         11    1    4    4    0    0 -0.14888048674E+02  0.21652644443E+02 -0.12432016592E+02  0.29069675630E+02  0.00000000000E+00 0. -1.
</event>
<event>
 8    1  0.6597859E-009  0.1140682E+03  0.7561462E-02  0.1253216E+00
         -1   -1    0    0    0  501 -0.00000000000E+00  0.00000000000E+00  0.31781832667E+03  0.31781832667E+03  0.00000000000E+00 0.  1.
          1   -1    0    0  501    0  0.00000000000E+00 -0.00000000000E+00 -0.50299550488E+02  0.50299550488E+02  0.00000000000E+00 0. -1.
         25    2    1    2    0    0 -0.60046680412E+02  0.21464769833E+02  0.16139370023E+03  0.21392004188E+03  0.12509003827E+03 0.  0.
         23    2    1    2    0    0  0.60046680412E+02 -0.21464769833E+02  0.10612507595E+03  0.15419783527E+03  0.91913548970E+02 0.  0.
          5    1    3    3  502    0  0.60663482348E+01 -0.31373773145E+02  0.67839107488E+00  0.32234249436E+02  0.41800000000E+01 0. -1.
         -5    1    3    3    0  502 -0.66113028647E+02  0.52838542978E+02  0.16071530915E+03  0.18168579245E+03  0.41800000000E+01 0. -1.
        -11    1    4    4    0    0 -0.36969766962E+00 -0.45972972243E+02  0.52456494976E+02  0.69751951359E+02  0.00000000000E+00 0.  1.
         11    1    4    4    0    0  0.60416378081E+02  0.24508202410E+02  0.53668580974E+02  0.84445883912E+02  0.00000000000E+00 0. -1.
</event>
<event>
 8    1  0.6597859E-009  0.1101700E+03  0.7561462E-02  0.1260255E+00
         -1   -1    0    0    0  501 -0.00000000000E+00  0.00000000000E+00  0.21595751057E+03  0.21595751057E+03  0.00000000000E+00 0.  1.
          1   -1    0    0  501    0  0.00000000000E+00 -0.00000000000E+00 -0.82047331728E+02  0.82047331728E+02  0.00000000000E+00 0. -1.
         25    2    1    2    0    0  0.20062540316E+02 -0.72302886086E+01  0.13032290063E+03  0.18191139137E+03  0.12511160333E+03 0.  0.
         23    2    1    2    0    0 -0.20062540316E+02  0.72302886086E+01  0.35872782170E+01  0.11609345092E+03  0.11406155437E+03 0.  0.
          5    1    3    3  502    0  0.61836770971E+02 -0.34251861865E+02  0.10300887970E+03  0.12500111192E+03  0.41800000000E+01 0. -1.
         -5    1    3    3    0  502 -0.41774230655E+02  0.27021573256E+02  0.27314020928E+02  0.56910279453E+02  0.41800000000E+01 0. -1.
        -11    1    4    4    0    0 -0.90907631942E+01  0.52366345840E+02  0.31615590058E+02  0.61841908823E+02  0.00000000000E+00 0.  1.
         11    1    4    4    0    0 -0.10971777122E+02 -0.45136057231E+02 -0.28028311841E+02  0.54251542101E+02  0.00000000000E+00 0. -1.
</event>
<event>
 8    1  0.6597859E-009  0.7027001E+02  0.7561462E-02  0.1359177E+00
         -1   -1    0    0    0  501 -0.00000000000E+00  0.00000000000E+00  0.68393048331E+02  0.68393048331E+02  0.00000000000E+00 0.  1.
          1   -1    0    0  501    0  0.00000000000E+00 -0.00000000000E+00 -0.17357601555E+03  0.17357601555E+03  0.00000000000E+00 0. -1.
         25    2    1    2    0    0  0.43198909197E+01  0.10028007131E+02 -0.69714272004E+02  0.14362066245E+03  0.12509033766E+03 0.  0.
         23    2    1    2    0    0 -0.43198909197E+01 -0.10028007131E+02 -0.35468695217E+02  0.98348401434E+02  0.91077754362E+02 0.  0.
          5    1    3    3  502    0 -0.12038200258E+02 -0.22201559739E+02 -0.95599906729E+02  0.98967884118E+02  0.41800000000E+01 0. -1.
         -5    1    3    3    0  502  0.16358091178E+02  0.32229566870E+02  0.25885634724E+02  0.44652778331E+02  0.41800000000E+01 0. -1.
        -11    1    4    4    0    0  0.27484543728E+02 -0.30247572728E+02  0.71132150390E+01  0.41483896009E+02  0.00000000000E+00 0.  1.
         11    1    4    4    0    0 -0.31804434648E+02  0.20219565597E+02 -0.42581910256E+02  0.56864505425E+02  0.00000000000E+00 0. -1.
</event>
<event>
 8    1  0.6597859E-009  0.6070992E+02  0.7561462E-02  0.1394876E+00
          1   -1    0    0  501    0  0.00000000000E+00  0.00000000000E+00  0.16652120358E+03  0.16652120358E+03  0.00000000000E+00 0. -1.
         -1   -1    0    0    0  501 -0.00000000000E+00 -0.00000000000E+00 -0.65115075043E+02  0.65115075043E+02  0.00000000000E+00 0.  1.
         25    2    1    2    0    0  0.13592130877E+02  0.58387079227E+01  0.95244596031E+02  0.15791833328E+03  0.12509128819E+03 0.  0.
         23    2    1    2    0    0 -0.13592130877E+02 -0.58387079227E+01  0.61615325076E+01  0.73717945346E+02  0.71955086347E+02 0.  0.
          5    1    3    3  502    0  0.34462339790E+02  0.91552240947E+01 -0.19714365385E+02  0.40958510649E+02  0.41800000000E+01 0.  1.
         -5    1    3    3    0  502 -0.20870208914E+02 -0.33165161720E+01  0.11495896142E+03  0.11695982263E+03  0.41800000000E+01 0.  1.
        -11    1    4    4    0    0 -0.23068942008E+02 -0.30103784159E+02 -0.14361749340E+02  0.40554577426E+02  0.00000000000E+00 0.  1.
         11    1    4    4    0    0  0.94768111317E+01  0.24265076237E+02  0.20523281848E+02  0.33163367920E+02  0.00000000000E+00 0. -1.
</event>
<event>
 8    1  0.6597859E-009  0.9412114E+02  0.7561462E-02  0.1293168E+00
          2   -1    0    0  501    0  0.00000000000E+00  0.00000000000E+00  0.10818302550E+03  0.10818302550E+03  0.00000000000E+00 0. -1.
         -2   -1    0    0    0  501 -0.00000000000E+00 -0.00000000000E+00 -0.11405360403E+03  0.11405360403E+03  0.00000000000E+00 0.  1.
         25    2    1    2    0    0  0.17708386946E+02  0.89877980262E+01  0.14279658202E+02  0.12745691845E+03  0.12508792884E+03 0.  0.
         23    2    1    2    0    0 -0.17708386946E+02 -0.89877980262E+01 -0.20150236738E+02  0.94779711083E+02  0.90458797862E+02 0.  0.
          5    1    3    3  502    0  0.27317566031E+02  0.50645772165E+02 -0.30621378974E+02  0.65317569630E+02  0.41800000000E+01 0. -1.
         -5    1    3    3    0  502 -0.96091790847E+01 -0.41657974139E+02  0.44901037176E+02  0.62139348818E+02  0.41800000000E+01 0. -1.
        -11    1    4    4    0    0  0.34176881511E+02  0.30987400398E+01  0.69420376800E+01  0.35012187975E+02  0.00000000000E+00 0.  1.
         11    1    4    4    0    0 -0.51885268457E+02 -0.12086538066E+02 -0.27092274418E+02  0.59767523108E+02  0.00000000000E+00 0. -1.
</event>
<event>
 8    1  0.6597859E-009  0.9798553E+02  0.7561462E-02  0.1284590E+00
          1   -1    0    0  501    0  0.00000000000E+00  0.00000000000E+00  0.13721822268E+03  0.13721822268E+03  0.00000000000E+00 0. -1.
         -1   -1    0    0    0  501 -0.00000000000E+00 -0.00000000000E+00 -0.11460153575E+03  0.11460153575E+03  0.00000000000E+00 0.  1.
         25    2    1    2    0    0 -0.33319652362E+02  0.37712231985E+02 -0.25308610267E+02  0.13717449655E+03  0.12507559744E+03 0.  0.
         23    2    1    2    0    0  0.33319652362E+02 -0.37712231985E+02  0.47925297193E+02  0.11464526188E+03  0.91182730198E+02 0.  0.
          5    1    3    3  502    0 -0.40497175511E+02 -0.11362823635E+02 -0.62212351091E+02  0.75212924512E+02  0.41800000000E+01 0.  1.
         -5    1    3    3    0  502  0.71775231496E+01  0.49075055619E+02  0.36903740824E+02  0.61961572038E+02  0.41800000000E+01 0.  1.
        -11    1    4    4    0    0  0.65019042272E+02 -0.22829280222E+02  0.28241311245E+02  0.74472971972E+02  0.00000000000E+00 0.  1.
         11    1    4    4    0    0 -0.31699389911E+02 -0.14882951763E+02  0.19683985948E+02  0.40172289911E+02  0.00000000000E+00 0. -1.
</event>
<event>
 8    1  0.6597859E-009  0.1631499E+03  0.7561462E-02  0.1185186E+00
          1   -1    0    0  501    0  0.00000000000E+00  0.00000000000E+00  0.35886590888E+02  0.35886590888E+02  0.00000000000E+00 0. -1.
         -1   -1    0    0    0  501 -0.00000000000E+00 -0.00000000000E+00 -0.89906302770E+03  0.89906302770E+03  0.00000000000E+00 0.  1.
         25    2    1    2    0    0  0.13838964529E+03 -0.72547585909E+01 -0.36235417013E+03  0.40761819551E+03  0.12509085999E+03 0.  0.
         23    2    1    2    0    0 -0.13838964529E+03  0.72547585909E+01 -0.50082226669E+03  0.52733142309E+03  0.89728264889E+02 0.  0.
          5    1    3    3  502    0  0.85992468832E+01  0.44797666539E+02 -0.10833894093E+03  0.11762472740E+03  0.41800000000E+01 0. -1.
         -5    1    3    3    0  502  0.12979039840E+03 -0.52052425130E+02 -0.25401522920E+03  0.28999346811E+03  0.41800000000E+01 0. -1.
        -11    1    4    4    0    0 -0.77377755363E+02  0.15828792983E+02 -0.41029350645E+03  0.41782607524E+03  0.00000000000E+00 0.  1.
         11    1    4    4    0    0 -0.61011889922E+02 -0.85740343921E+01 -0.90528760238E+02  0.10950534785E+03  0.00000000000E+00 0. -1.
</event>
<event>
 8    1  0.6597859E-009  0.6246761E+02  0.7561462E-02  0.1387759E+00
         -1   -1    0    0    0  501 -0.00000000000E+00  0.00000000000E+00  0.65828520568E+03  0.65828520568E+03  0.00000000000E+00 0.  1.
          1   -1    0    0  501    0  0.00000000000E+00 -0.00000000000E+00 -0.25994992346E+02  0.25994992346E+02  0.00000000000E+00 0. -1.
         25    2    1    2    0    0 -0.40907672073E+02 -0.27111237402E+02  0.48875320338E+03  0.50688918658E+03  0.12509395199E+03 0.  0.
         23    2    1    2    0    0  0.40907672073E+02  0.27111237402E+02  0.14353700995E+03  0.17739101145E+03  0.91957821250E+02 0.  0.
          5    1    3    3  502    0 -0.34385593455E+02 -0.26337272149E+02  0.43365262702E+02  0.61433210487E+02  0.41800000000E+01 0.  1.
         -5    1    3    3    0  502 -0.65220786179E+01 -0.77396525242E+00  0.44538794068E+03  0.44545597609E+03  0.41800000000E+01 0.  1.
        -11    1    4    4    0    0 -0.55723775485E+01  0.26574664666E+02  0.67924076313E+00  0.27161103838E+02  0.00000000000E+00 0. -1.
         11    1    4    4    0    0  0.46480049622E+02  0.53657273546E+00  0.14285776919E+03  0.15022990761E+03  0.00000000000E+00 0.  1.
</event>
<event>
 8    1  0.6597859E-009  0.1705243E+03  0.7561462E-02  0.1177302E+00
          2   -1    0    0  501    0  0.00000000000E+00  0.00000000000E+00  0.18019751816E+03  0.18019751816E+03  0.00000000000E+00 0. -1.
         -2   -1    0    0    0  501 -0.00000000000E+00 -0.00000000000E+00 -0.23536780801E+03  0.23536780801E+03  0.00000000000E+00 0.  1.
         25    2    1    2    0    0 -0.71223848243E+01  0.13932957260E+03 -0.13403808385E+03  0.23038367871E+03  0.12508786244E+03 0.  0.
         23    2    1    2    0    0  0.71223848243E+01 -0.13932957260E+03  0.78867793999E+02  0.18518164745E+03  0.92782840311E+02 0.  0.
          5    1    3    3  502    0  0.47240413976E+02  0.31825239109E+02 -0.11047000035E+02  0.58172254269E+02  0.41800000000E+01 0.  1.
         -5    1    3    3    0  502 -0.54362798801E+02  0.10750433349E+03 -0.12299108381E+03  0.17221142445E+03  0.41800000000E+01 0.  1.
        -11    1    4    4    0    0 -0.39115180737E+02 -0.63865726207E+02  0.56728835525E+02  0.93952057604E+02  0.00000000000E+00 0. -1.
         11    1    4    4    0    0  0.46237565561E+02 -0.75463846393E+02  0.22138958474E+02  0.91229589847E+02  0.00000000000E+00 0.  1.
</event>
<event>
 8    1  0.6597859E-009  0.1235888E+03  0.7561462E-02  0.1237291E+00
          2   -1    0    0  501    0  0.00000000000E+00  0.00000000000E+00  0.31381313703E+03  0.31381313703E+03  0.00000000000E+00 0. -1.
         -2   -1    0    0    0  501 -0.00000000000E+00 -0.00000000000E+00 -0.92611946941E+02  0.92611946941E+02  0.00000000000E+00 0.  1.
         25    2    1    2    0    0 -0.86541860870E+02 -0.66766145977E+02  0.30343443433E+02  0.16886750217E+03  0.12509315248E+03 0.  0.
         23    2    1    2    0    0  0.86541860870E+02  0.66766145977E+02  0.19085774666E+03  0.23755758180E+03  0.89775905911E+02 0.  0.
          5    1    3    3  502    0  0.31965119581E+01 -0.25551545553E+02  0.60206828942E+02  0.65615804652E+02  0.41800000000E+01 0. -1.
         -5    1    3    3    0  502 -0.89738372828E+02 -0.41214600424E+02 -0.29863385509E+02  0.10325169752E+03  0.41800000000E+01 0. -1.
        -11    1    4    4    0    0  0.48138250804E+02  0.68598752546E+02  0.17846563771E+03  0.19716253165E+03  0.00000000000E+00 0. -1.
         11    1    4    4    0    0  0.38403610066E+02 -0.18326065688E+01  0.12392108941E+02  0.40395050154E+02  0.00000000000E+00 0.  1.
</event>
<event>
 8    1  0.6597859E-009  0.1455947E+03  0.7561462E-02  0.1205993E+00
         -2   -1    0    0    0  501 -0.00000000000E+00  0.00000000000E+00  0.49607449962E+02  0.49607449962E+02  0.00000000000E+00 0.  1.
          2   -1    0    0  501    0  0.00000000000E+00 -0.00000000000E+00 -0.46315237151E+03  0.46315237151E+03  0.00000000000E+00 0. -1.
         25    2    1    2    0    0 -0.93713668504E+02  0.36859164512E+02 -0.27502353081E+03  0.31847771776E+03  0.12509702049E+03 0.  0.
         23    2    1    2    0    0  0.93713668504E+02 -0.36859164512E+02 -0.13852139074E+03  0.19428210372E+03  0.91741541623E+02 0.  0.
          5    1    3    3  502    0 -0.76078456403E+02 -0.34148430563E+02 -0.11162257740E+03  0.13939554879E+03  0.41800000000E+01 0. -1.
         -5    1    3    3    0  502 -0.17635212101E+02  0.71007595075E+02 -0.16340095341E+03  0.17908216896E+03  0.41800000000E+01 0. -1.
        -11    1    4    4    0    0 -0.17314105135E+02  0.33592440172E+00 -0.29970479768E+02  0.34613880732E+02  0.00000000000E+00 0. -1.
         11    1    4    4    0    0  0.11102777364E+03 -0.37195088914E+02 -0.10855091097E+03  0.15966822298E+03  0.00000000000E+00 0.  1.
</event>
<event>
 8    1  0.6597859E-009  0.1194682E+03  0.7561462E-02  0.1243977E+00
          1   -1    0    0  501    0  0.00000000000E+00  0.00000000000E+00  0.29333177251E+02  0.29333177251E+02  0.00000000000E+00 0. -1.
         -1   -1    0    0    0  501 -0.00000000000E+00 -0.00000000000E+00 -0.53823202100E+03  0.53823202100E+03  0.00000000000E+00 0.  1.
         25    2    1    2    0    0 -0.32496513509E+01  0.54167219048E+02 -0.35010518871E+03  0.37571934152E+03  0.12508690012E+03 0.  0.
         23    2    1    2    0    0  0.32496513509E+01 -0.54167219048E+02 -0.15879365504E+03  0.19184585672E+03  0.92977201553E+02 0.  0.
          5    1    3    3  502    0  0.41348604347E+02  0.72729973096E+02 -0.17484070963E+03  0.19387135480E+03  0.41800000000E+01 0. -1.
         -5    1    3    3    0  502 -0.44598255698E+02 -0.18562754047E+02 -0.17526447908E+03  0.18184798672E+03  0.41800000000E+01 0. -1.
        -11    1    4    4    0    0 -0.41576634175E+02 -0.80115758931E+01 -0.75906759303E+02  0.86917420379E+02  0.00000000000E+00 0.  1.
         11    1    4    4    0    0  0.44826285525E+02 -0.46155643155E+02 -0.82886895733E+02  0.10492843634E+03  0.00000000000E+00 0. -1.
</event>
<event>
 7    1  0.6597859E-009  0.7189376E+02  0.7561462E-02  0.1353769E+00
          1   -1    0    0  501    0  0.00000000000E+00  0.00000000000E+00  0.12313116775E+03  0.12313116775E+03  0.00000000000E+00 0. -1.
         -1   -1    0    0    0  501 -0.00000000000E+00 -0.00000000000E+00 -0.10391382599E+03  0.10391382599E+03  0.00000000000E+00 0.  1.
         23    2    1    2    0    0 -0.38140840247E+02 -0.24746928466E+02 -0.32156039190E+02  0.84296299815E+02  0.63282866107E+02 0.  0.
          5    1    1    2  502    0 -0.21767180307E+02  0.25407296063E+02  0.71792037903E+02  0.79315256653E+02  0.41800000000E+01 0.  1.
         -5    1    1    2    0  502  0.59908020554E+02 -0.66036759613E+00 -0.20418656962E+02  0.63433437272E+02  0.41800000000E+01 0.  1.
        -11    1    3    3    0    0 -0.15612595163E+02 -0.22482475728E+02  0.15556778807E+02  0.31483776925E+02  0.00000000000E+00 0. -1.
         11    1    3    3    0    0 -0.22528245084E+02 -0.22644527380E+01 -0.47712817997E+02  0.52812522890E+02  0.00000000000E+00 0.  1.
</event>
<event>
 8    1  0.6597859E-009  0.1599422E+03  0.7561462E-02  0.1188762E+00
         -1   -1    0    0    0  501 -0.00000000000E+00  0.00000000000E+00  0.56635673158E+02  0.56635673158E+02  0.00000000000E+00 0.  1.
          1   -1    0    0  501    0  0.00000000000E+00 -0.00000000000E+00 -0.57114743581E+03  0.57114743581E+03  0.00000000000E+00 0. -1.
         25    2    1    2    0    0 -0.11662017466E+03 -0.69714482847E+02 -0.19485569581E+03  0.26847177886E+03  0.12509188462E+03 0.  0.
         23    2    1    2    0    0  0.11662017466E+03  0.69714482847E+02 -0.31965606684E+03  0.35931133011E+03  0.92001394659E+02 0.  0.
          5    1    3    3  502    0 -0.11178325481E+03  0.14366874099E+01 -0.10263940887E+03  0.15182187188E+03  0.41800000000E+01 0. -1.
         -5    1    3    3    0  502 -0.48369198518E+01 -0.71151170257E+02 -0.92216286940E+02  0.11664990698E+03  0.41800000000E+01 0. -1.
        -11    1    4    4    0    0  0.45450207943E+02  0.19402634275E+02 -0.32323664055E+02  0.59050849924E+02  0.00000000000E+00 0.  1.
         11    1    4    4    0    0  0.71169966719E+02  0.50311848572E+02 -0.28733240279E+03  0.30026048019E+03  0.00000000000E+00 0. -1.
</event>
<event>
 8    1  0.6597859E-009  0.1104346E+03  0.7561462E-02  0.1259767E+00
         -1   -1    0    0    0  501 -0.00000000000E+00  0.00000000000E+00  0.23720143000E+02  0.23720143000E+02  0.00000000000E+00 0.  1.
          1   -1    0    0  501    0  0.00000000000E+00 -0.00000000000E+00 -0.95614289900E+03  0.95614289900E+03  0.00000000000E+00 0. -1.
         25    2    1    2    0    0  0.41295515093E+02  0.50474204255E+02 -0.77252419201E+03  0.78529865069E+03  0.12508948268E+03 0.  0.
         23    2    1    2    0    0 -0.41295515093E+02 -0.50474204255E+02 -0.15989856399E+03  0.19456439131E+03  0.89636971929E+02 0.  0.
          5    1    3    3  502    0 -0.34984759734E+02  0.45324757898E+02 -0.21464688099E+03  0.22219141075E+03  0.41800000000E+01 0.  1.
         -5    1    3    3    0  502  0.76280274828E+02  0.51494463570E+01 -0.55787731102E+03  0.56310723995E+03  0.41800000000E+01 0.  1.
        -11    1    4    4    0    0 -0.75757044314E+00 -0.46114701335E+02 -0.22639525935E+02  0.51377891420E+02  0.00000000000E+00 0.  1.
         11    1    4    4    0    0 -0.40537944650E+02 -0.43595029202E+01 -0.13725903806E+03  0.14318649989E+03  0.00000000000E+00 0. -1.
</event>
<event>
 8    1  0.6597859E-009  0.1201638E+03  0.7561462E-02  0.1242827E+00
         -1   -1    0    0    0  501 -0.00000000000E+00  0.00000000000E+00  0.43312466287E+02  0.43312466287E+02  0.00000000000E+00 0.  1.
          1   -1    0    0  501    0  0.00000000000E+00 -0.00000000000E+00 -0.37983975043E+03  0.37983975043E+03  0.00000000000E+00 0. -1.
         25    2    1    2    0    0 -0.19356659329E+02  0.57202453737E+02 -0.13851641787E+03  0.19616655949E+03  0.12509084726E+03 0.  0.
         23    2    1    2    0    0  0.19356659329E+02 -0.57202453737E+02 -0.19801086627E+03  0.22698565722E+03  0.93098788659E+02 0.  0.
          5    1    3    3  502    0 -0.59307400799E+02 -0.78474775853E+00 -0.98528615740E+02  0.11507972948E+03  0.41800000000E+01 0. -1.
         -5    1    3    3    0  502  0.39950741470E+02  0.57987201496E+02 -0.39987802127E+02  0.81086830006E+02  0.41800000000E+01 0. -1.
        -11    1    4    4    0    0 -0.31665073030E+02  0.25347262079E+01 -0.68555631508E+02  0.75557767955E+02  0.00000000000E+00 0. -1.
         11    1    4    4    0    0  0.51021732358E+02 -0.59737179945E+02 -0.12945523476E+03  0.15142788927E+03  0.00000000000E+00 0.  1.
</event>
<event>
 8    1  0.6597859E-009  0.1006791E+03  0.7561462E-02  0.1278874E+00
          1   -1    0    0  501    0  0.00000000000E+00  0.00000000000E+00  0.75120633249E+03  0.75120633249E+03  0.00000000000E+00 0. -1.
         -1   -1    0    0    0  501 -0.00000000000E+00 -0.00000000000E+00 -0.18363040950E+02  0.18363040950E+02  0.00000000000E+00 0.  1.
         25    2    1    2    0    0  0.97987276501E+01  0.30743099518E+02  0.52049850665E+03  0.53629014766E+03  0.12508906354E+03 0.  0.
         23    2    1    2    0    0 -0.97987276501E+01 -0.30743099518E+02  0.21234478489E+03  0.23327922578E+03  0.91037005005E+02 0.  0.
          5    1    3    3  502    0 -0.49367439994E+02  0.14138074718E+02  0.37160126459E+03  0.37515596961E+03  0.41800000000E+01 0. -1.
         -5    1    3    3    0  502  0.59166167644E+02  0.16605024800E+02  0.14889724206E+03  0.16113417805E+03  0.41800000000E+01 0. -1.
        -11    1    4    4    0    0 -0.38417172195E+02 -0.42511731309E+02  0.87015785316E+02  0.10418672330E+03  0.00000000000E+00 0.  1.
         11    1    4    4    0    0  0.28618444545E+02  0.11768631791E+02  0.12532899957E+03  0.12909250248E+03  0.00000000000E+00 0. -1.
</event>
<event>
 8    1  0.6597859E-009  0.1287471E+03  0.7561462E-02  0.1229327E+00
          1   -1    0    0  501    0  0.00000000000E+00  0.00000000000E+00  0.64759944596E+02  0.64759944596E+02  0.00000000000E+00 0. -1.
         -1   -1    0    0    0  501 -0.00000000000E+00 -0.00000000000E+00 -0.30704318845E+03  0.30704318845E+03  0.00000000000E+00 0.  1.
         25    2    1    2    0    0  0.22169935915E+02  0.68894913628E+02 -0.19223437947E+03  0.24049768507E+03  0.12508822763E+03 0.  0.
         23    2    1    2    0    0 -0.22169935915E+02 -0.68894913628E+02 -0.50048864389E+02  0.13130544798E+03  0.97458794679E+02 0.  0.
          5    1    3    3  502    0 -0.51542563519E+02  0.18232934641E+02 -0.67855828607E+02  0.87240825510E+02  0.41800000000E+01 0. -1.
         -5    1    3    3    0  502  0.73712499434E+02  0.50661978986E+02 -0.12437855086E+03  0.15325685956E+03  0.41800000000E+01 0. -1.
        -11    1    4    4    0    0 -0.55147436258E+02 -0.53098926004E+02 -0.55197213105E+02  0.94379383359E+02  0.00000000000E+00 0.  1.
         11    1    4    4    0    0  0.32977500343E+02 -0.15795987623E+02  0.51483487157E+01  0.36926064621E+02  0.00000000000E+00 0. -1.
</event>
<event>
 8    1  0.6597859E-009  0.1125684E+03  0.7561462E-02  0.1255886E+00
         -1   -1    0    0    0  501 -0.00000000000E+00  0.00000000000E+00  0.52370934939E+02  0.52370934939E+02  0.00000000000E+00 0.  1.
          1   -1    0    0  501    0  0.00000000000E+00 -0.00000000000E+00 -0.24892743011E+03  0.24892743011E+03  0.00000000000E+00 0. -1.
         25    2    1    2    0    0  0.17536446961E+02  0.30038442351E+02 -0.99629140804E+02  0.16365312085E+03  0.12508614343E+03 0.  0.
         23    2    1    2    0    0 -0.17536446961E+02 -0.30038442351E+02 -0.96927354370E+02  0.13764524420E+03  0.91331627788E+02 0.  0.
          5    1    3    3  502    0  0.15888096718E+02 -0.47244882698E+02 -0.54801202721E+02  0.74196730239E+02  0.41800000000E+01 0.  1.
         -5    1    3    3    0  502  0.16483502427E+01  0.77283325049E+02 -0.44827938083E+02  0.89456390615E+02  0.41800000000E+01 0.  1.
        -11    1    4    4    0    0 -0.46368297046E+01  0.33017427847E+02 -0.34634006295E+02  0.48074578765E+02  0.00000000000E+00 0. -1.
         11    1    4    4    0    0 -0.12899617256E+02 -0.63055870198E+02 -0.62293348075E+02  0.89570665434E+02  0.00000000000E+00 0.  1.
</event>
<event>
 8    1  0.6597859E-009  0.1976069E+03  0.7561462E-02  0.1151774E+00
         -4   -1    0    0    0  501 -0.00000000000E+00  0.00000000000E+00  0.12269593471E+04  0.12269593471E+04  0.00000000000E+00 0.  1.
          4   -1    0    0  501    0  0.00000000000E+00 -0.00000000000E+00 -0.41068275326E+02  0.41068275326E+02  0.00000000000E+00 0. -1.
         25    2    1    2    0    0 -0.74346682394E+02  0.17704767925E+03  0.73484596749E+03  0.76975278153E+03  0.12508972314E+03 0.  0.
         23    2    1    2    0    0  0.74346682394E+02 -0.17704767925E+03  0.45104510430E+03  0.49827484091E+03  0.89234640456E+02 0.  0.
          5    1    3    3  502    0 -0.78244941466E+01  0.84063929347E+02  0.13639924592E+03  0.16046866863E+03  0.41800000000E+01 0. -1.
         -5    1    3    3    0  502 -0.66522188247E+02  0.92983749902E+02  0.59844672157E+03  0.60928411290E+03  0.41800000000E+01 0. -1.
        -11    1    4    4    0    0  0.31227621614E+02 -0.12422753447E+03  0.37431995093E+03  0.39562996643E+03  0.00000000000E+00 0.  1.
         11    1    4    4    0    0  0.43119060779E+02 -0.52820144784E+02  0.76725153376E+02  0.10264487448E+03  0.00000000000E+00 0. -1.
</event>
<event>
 8    1  0.6597859E-009  0.1185948E+03  0.7561462E-02  0.1245433E+00
         -1   -1    0    0    0  501 -0.00000000000E+00  0.00000000000E+00  0.30526539104E+03  0.30526539104E+03  0.00000000000E+00 0.  1.
          1   -1    0    0  501    0  0.00000000000E+00 -0.00000000000E+00 -0.59098219811E+02  0.59098219811E+02  0.00000000000E+00 0. -1.
         25    2    1    2    0    0  0.52609045198E+02 -0.57103620857E+02  0.15364391613E+03  0.21279730500E+03  0.12509078662E+03 0.  0.
         23    2    1    2    0    0 -0.52609045198E+02  0.57103620857E+02  0.92523255100E+02  0.15156630586E+03  0.91560128798E+02 0.  0.
          5    1    3    3  502    0 -0.22057458811E+02 -0.36690834446E+02  0.26848330725E+01  0.43097906564E+02  0.41800000000E+01 0. -1.
         -5    1    3    3    0  502  0.74666504009E+02 -0.20412786411E+02  0.15095908306E+03  0.16969939843E+03  0.41800000000E+01 0. -1.
        -11    1    4    4    0    0  0.22249945919E+02  0.29322111869E+02  0.13444060921E+02  0.39186593522E+02  0.00000000000E+00 0.  1.
         11    1    4    4    0    0 -0.74858991116E+02  0.27781508988E+02  0.79079194179E+02  0.11237971234E+03  0.00000000000E+00 0. -1.
</event>
<event>
 8    1  0.6597859E-009  0.1222839E+03  0.7561462E-02  0.1239376E+00
         -1   -1    0    0    0  501 -0.00000000000E+00  0.00000000000E+00  0.49213648610E+02  0.49213648610E+02  0.00000000000E+00 0.  1.
          1   -1    0    0  501    0  0.00000000000E+00 -0.00000000000E+00 -0.44691452189E+03  0.44691452189E+03  0.00000000000E+00 0. -1.
         25    2    1    2    0    0  0.38665053417E+02 -0.93770960549E+02 -0.21760296816E+03  0.27071208400E+03  0.12508397689E+03 0.  0.
         23    2    1    2    0    0 -0.38665053417E+02  0.93770960549E+02 -0.18009790512E+03  0.22541608650E+03  0.89939853373E+02 0.  0.
          5    1    3    3  502    0  0.65401207074E+02 -0.75833738970E+02 -0.21609974442E+03  0.23821134690E+03  0.41800000000E+01 0.  1.
         -5    1    3    3    0  502 -0.26736153657E+02 -0.17937221579E+02 -0.15032237329E+01  0.32500737098E+02  0.41800000000E+01 0.  1.
        -11    1    4    4    0    0 -0.47433993824E+02  0.57408353579E+02 -0.49140801546E+02  0.89221752994E+02  0.00000000000E+00 0.  1.
         11    1    4    4    0    0  0.87689404073E+01  0.36362606970E+02 -0.13095710358E+03  0.13619433351E+03  0.00000000000E+00 0. -1.
</event>
<event>
 8    1  0.6597859E-009  0.1414033E+03  0.7561462E-02  0.1211453E+00
          2   -1    0    0  501    0  0.00000000000E+00  0.00000000000E+00  0.36260588419E+03  0.36260588419E+03  0.00000000000E+00 0. -1.
         -2   -1    0    0    0  501 -0.00000000000E+00 -0.00000000000E+00 -0.78146109049E+02  0.78146109049E+02  0.00000000000E+00 0.  1.
         25    2    1    2    0    0 -0.11297156643E+03 -0.59403023479E+02  0.17043884809E+03  0.24695741596E+03  0.12508904964E+03 0.  0.
         23    2    1    2    0    0  0.11297156643E+03  0.59403023479E+02  0.11402092705E+03  0.19379457727E+03  0.90908043402E+02 0.  0.
          5    1    3    3  502    0 -0.12416176960E+03 -0.60656118257E+02  0.18314917490E+03  0.22946982890E+03  0.41800000000E+01 0.  1.
         -5    1    3    3    0  502  0.11190203167E+02  0.12530947783E+01 -0.12710326811E+02  0.17487587057E+02  0.41800000000E+01 0.  1.
        -11    1    4    4    0    0  0.45897683572E+02  0.44308514690E+02  0.10714634793E+03  0.12470036771E+03  0.00000000000E+00 0.  1.
         11    1    4    4    0    0  0.67073882859E+02  0.15094508789E+02  0.68745791165E+01  0.69094209565E+02  0.00000000000E+00 0. -1.
</event>
<event>
 8    1  0.6597859E-009  0.1281905E+03  0.7561462E-02  0.1230166E+00
          1   -1    0    0  501    0  0.00000000000E+00  0.00000000000E+00  0.94120709014E+03  0.94120709014E+03  0.00000000000E+00 0. -1.
         -1   -1    0    0    0  501 -0.00000000000E+00 -0.00000000000E+00 -0.23582819666E+02  0.23582819666E+02  0.00000000000E+00 0.  1.
         25    2    1    2    0    0 -0.88284048405E+02 -0.88668649857E+01  0.65401854317E+03  0.67175928409E+03  0.12509031318E+03 0.  0.
         23    2    1    2    0    0  0.88284048405E+02  0.88668649857E+01  0.26360572730E+03  0.29303062572E+03  0.92229461905E+02 0.  0.
          5    1    3    3  502    0 -0.48979962312E+02 -0.56765528065E+02  0.20221106595E+03  0.21570384669E+03  0.41800000000E+01 0. -1.
         -5    1    3    3    0  502 -0.39304086093E+02  0.47898663079E+02  0.45180747722E+03  0.45605543740E+03  0.41800000000E+01 0. -1.
        -11    1    4    4    0    0  0.66696869067E+02 -0.31232032398E+02  0.10669337607E+03  0.12964331332E+03  0.00000000000E+00 0.  1.
         11    1    4    4    0    0  0.21587179339E+02  0.40098897384E+02  0.15691235123E+03  0.16338731240E+03  0.00000000000E+00 0. -1.
</event>
<event>
 8    1  0.6597859E-009  0.4465258E+02  0.7561462E-02  0.1476522E+00
         -2   -1    0    0    0  501 -0.00000000000E+00  0.00000000000E+00  0.36798586759E+02  0.36798586759E+02  0.00000000000E+00 0.  1.
          2   -1    0    0  501    0  0.00000000000E+00 -0.00000000000E+00 -0.30491891574E+03  0.30491891574E+03  0.00000000000E+00 0. -1.
         25    2    1    2    0    0  0.12534088052E+02 -0.14974817588E+02 -0.21194353923E+03  0.24687558862E+03  0.12508454704E+03 0.  0.
         23    2    1    2    0    0 -0.12534088052E+02  0.14974817588E+02 -0.56176789755E+02  0.94841913888E+02  0.73876981514E+02 0.  0.
          5    1    3    3  502    0  0.33347002717E+01 -0.38709348972E+01  0.16587059852E+02  0.17852375680E+02  0.41800000000E+01 0.  1.
         -5    1    3    3    0  502  0.91993877798E+01 -0.11103882691E+02 -0.22853059908E+03  0.22902321294E+03  0.41800000000E+01 0.  1.
        -11    1    4    4    0    0 -0.31143913818E+02 -0.13280601026E+02 -0.50099407338E+02  0.60467084824E+02  0.00000000000E+00 0.  1.
         11    1    4    4    0    0  0.18609825766E+02  0.28255418615E+02 -0.60773824170E+01  0.34374829064E+02  0.00000000000E+00 0. -1.
</event>
<event>
 8    1  0.6597859E-009  0.1721705E+03  0.7561462E-02  0.1175603E+00
         -2   -1    0    0    0  501 -0.00000000000E+00  0.00000000000E+00  0.67869693349E+02  0.67869693349E+02  0.00000000000E+00 0.  1.
          2   -1    0    0  501    0  0.00000000000E+00 -0.00000000000E+00 -0.54889241911E+03  0.54889241911E+03  0.00000000000E+00 0. -1.
         25    2    1    2    0    0  0.13648936808E+03  0.70491032502E+02 -0.18530727562E+03  0.27126587769E+03  0.12509219297E+03 0.  0.
         23    2    1    2    0    0 -0.13648936808E+03 -0.70491032502E+02 -0.29571545015E+03  0.34549623477E+03  0.91223283888E+02 0.  0.
          5    1    3    3  502    0  0.47377839304E+02  0.60265552731E+02 -0.14265840106E+02  0.78087022591E+02  0.41800000000E+01 0. -1.
         -5    1    3    3    0  502  0.89111528772E+02  0.10225479771E+02 -0.17104143551E+03  0.19317885510E+03  0.41800000000E+01 0. -1.
        -11    1    4    4    0    0 -0.10244034774E+03 -0.91843922405E+02 -0.21364317881E+03  0.25411166596E+03  0.00000000000E+00 0.  1.
         11    1    4    4    0    0 -0.34049020336E+02  0.21352889902E+02 -0.82072271342E+02  0.91384568808E+02  0.00000000000E+00 0. -1.
</event>
<event>
 8    1  0.6597859E-009  0.2104845E+03  0.7561462E-02  0.1141183E+00
          1   -1    0    0  501    0  0.00000000000E+00  0.00000000000E+00  0.78159484103E+03  0.78159484103E+03  0.00000000000E+00 0. -1.
         -1   -1    0    0    0  501 -0.00000000000E+00 -0.00000000000E+00 -0.72892837996E+02  0.72892837996E+02  0.00000000000E+00 0.  1.
         25    2    1    2    0    0 -0.15401298358E+03  0.12824167615E+03  0.24147312454E+03  0.33782009431E+03  0.12508884696E+03 0.  0.
         23    2    1    2    0    0  0.15401298358E+03 -0.12824167615E+03  0.46722887849E+03  0.51666758472E+03  0.92068678648E+02 0.  0.
          5    1    3    3  502    0 -0.13534069359E+03  0.11253741240E+03  0.25479505466E+03  0.30970916165E+03  0.41800000000E+01 0. -1.
         -5    1    3    3    0  502 -0.18672289991E+02  0.15704263745E+02 -0.13321930114E+02  0.28110932664E+02  0.41800000000E+01 0. -1.
        -11    1    4    4    0    0  0.47481694049E+02 -0.98811158708E+02  0.21708935071E+03  0.24319938846E+03  0.00000000000E+00 0. -1.
         11    1    4    4    0    0  0.10653128953E+03 -0.29430517439E+02  0.25013952778E+03  0.27346819626E+03  0.00000000000E+00 0.  1.
</event>
<event>
 8    1  0.6597859E-009  0.1555601E+03  0.7561462E-02  0.1193803E+00
          1   -1    0    0  501    0  0.00000000000E+00  0.00000000000E+00  0.21421212381E+03  0.21421212381E+03  0.00000000000E+00 0. -1.
         -1   -1    0    0    0  501 -0.00000000000E+00 -0.00000000000E+00 -0.20495427550E+03  0.20495427550E+03  0.00000000000E+00 0.  1.
         25    2    1    2    0    0 -0.10552967345E+03  0.75865540261E+02 -0.11956549316E+03  0.21641384404E+03  0.12508777942E+03 0.  0.
         23    2    1    2    0    0  0.10552967345E+03 -0.75865540261E+02  0.12882334147E+03  0.20275255526E+03  0.87298643628E+02 0.  0.
          5    1    3    3  502    0 -0.11254822596E+03  0.25520623202E+02 -0.11840778301E+03  0.16539734234E+03  0.41800000000E+01 0. -1.
         -5    1    3    3    0  502  0.70185525078E+01  0.50344917059E+02 -0.11577101474E+01  0.51016501701E+02  0.41800000000E+01 0. -1.
        -11    1    4    4    0    0  0.83140372722E+02 -0.21551776095E+02  0.36498820277E+02  0.93321832980E+02  0.00000000000E+00 0. -1.
         11    1    4    4    0    0  0.22389300728E+02 -0.54313764166E+02  0.92324521197E+02  0.10943072228E+03  0.00000000000E+00 0.  1.
</event>
<event>
 8    1  0.6597859E-009  0.1107574E+03  0.7561462E-02  0.1259174E+00
          1   -1    0    0  501    0  0.00000000000E+00  0.00000000000E+00  0.10518699561E+03  0.10518699561E+03  0.00000000000E+00 0. -1.
         -1   -1    0    0    0  501 -0.00000000000E+00 -0.00000000000E+00 -0.28780889453E+03  0.28780889453E+03  0.00000000000E+00 0.  1.
         25    2    1    2    0    0 -0.29384345553E+02 -0.30119731746E+02 -0.24310236971E+03  0.27662147636E+03  0.12510012399E+03 0.  0.
         23    2    1    2    0    0  0.29384345553E+02  0.30119731746E+02  0.60480470788E+02  0.11637441378E+03  0.90080402047E+02 0.  0.
          5    1    3    3  502    0  0.39389607937E+02 -0.46580664154E+02 -0.11185980985E+03  0.12748093562E+03  0.41800000000E+01 0.  1.
         -5    1    3    3    0  502 -0.68773953490E+02  0.16460932408E+02 -0.13124255986E+03  0.14914054074E+03  0.41800000000E+01 0.  1.
        -11    1    4    4    0    0  0.54770953750E+01  0.54855685585E+02  0.60666503695E+02  0.81972980215E+02  0.00000000000E+00 0. -1.
         11    1    4    4    0    0  0.23907250178E+02 -0.24735953839E+02 -0.18603290721E+00  0.34401433569E+02  0.00000000000E+00 0.  1.
</event>
<event>
 7    1  0.6597859E-009  0.6995008E+02  0.7561462E-02  0.1360263E+00
          2   -1    0    0  501    0  0.00000000000E+00  0.00000000000E+00  0.26567480868E+03  0.26567480868E+03  0.00000000000E+00 0. -1.
         -2   -1    0    0    0  501 -0.00000000000E+00 -0.00000000000E+00 -0.41793039140E+02  0.41793039140E+02  0.00000000000E+00 0.  1.
         25    2    1    2    0    0 -0.24738553662E+02 -0.46118054568E+02  0.18360426776E+03  0.22824134058E+03  0.12507882081E+03 0.  0.
          5    1    3    3  502    0 -0.35301964290E+02 -0.59343537353E+02  0.33023267219E+02  0.76654371605E+02  0.41800000000E+01 0.  1.
         -5    1    3    3    0  502  0.10563410628E+02  0.13225482785E+02  0.15058100054E+03  0.15158696898E+03  0.41800000000E+01 0.  1.
        -11    1    1    2    0    0  0.95005337668E+01  0.28255818042E+02 -0.30301342230E+01  0.29963863378E+02  0.00000000000E+00 0.  1.
         11    1    1    2    0    0  0.15238019895E+02  0.17862236525E+02  0.43307636000E+02  0.49262643858E+02  0.00000000000E+00 0. -1.
</event>
<event>
 8    1  0.6597859E-009  0.6766104E+02  0.7561462E-02  0.1368232E+00
          2   -1    0    0  501    0  0.00000000000E+00  0.00000000000E+00  0.31065998295E+03  0.31065998295E+03  0.00000000000E+00 0. -1.
         -2   -1    0    0    0  501 -0.00000000000E+00 -0.00000000000E+00 -0.37545813286E+02  0.37545813286E+02  0.00000000000E+00 0.  1.
         25    2    1    2    0    0 -0.12782173029E+02 -0.12650147103E+02  0.15854637976E+03  0.20275038970E+03  0.12508939131E+03 0.  0.
         23    2    1    2    0    0  0.12782173029E+02  0.12650147103E+02  0.11456778990E+03  0.14545540654E+03  0.87795709686E+02 0.  0.
          5    1    3    3  502    0 -0.45657815811E+02 -0.28472793956E+02  0.17100309499E+02  0.56614743002E+02  0.41800000000E+01 0. -1.
         -5    1    3    3    0  502  0.32875642782E+02  0.15822646853E+02  0.14144607027E+03  0.14613564670E+03  0.41800000000E+01 0. -1.
        -11    1    4    4    0    0 -0.14408773235E+02 -0.51388331652E+00 -0.98246844271E+01  0.17447098506E+02  0.00000000000E+00 0.  1.
         11    1    4    4    0    0  0.27190946263E+02  0.13164030420E+02  0.12439247433E+03  0.12800830803E+03  0.00000000000E+00 0. -1.
</event>
<event>
 8    1  0.6597859E-009  0.1241224E+03  0.7561462E-02  0.1236447E+00
         -2   -1    0    0    0  501 -0.00000000000E+00  0.00000000000E+00  0.57276528537E+02  0.57276528537E+02  0.00000000000E+00 0.  1.
          2   -1    0    0  501    0  0.00000000000E+00 -0.00000000000E+00 -0.28340394097E+03  0.28340394097E+03  0.00000000000E+00 0. -1.
         25    2    1    2    0    0 -0.49486247932E+02  0.44068508249E+02 -0.13521564823E+03  0.19575803243E+03  0.12508802333E+03 0.  0.
         23    2    1    2    0    0  0.49486247932E+02 -0.44068508249E+02 -0.90911764197E+02  0.14492243707E+03  0.91359956999E+02 0.  0.
          5    1    3    3  502    0  0.64633062385E+01  0.74222848508E+02 -0.51949903379E+02  0.90923431685E+02  0.41800000000E+01 0.  1.
         -5    1    3    3    0  502 -0.55949554171E+02 -0.30154340259E+02 -0.83265744853E+02  0.10483460075E+03  0.41800000000E+01 0.  1.
        -11    1    4    4    0    0  0.14517347823E+02  0.27037793527E+02 -0.11595055984E+02  0.32806112081E+02  0.00000000000E+00 0.  1.
         11    1    4    4    0    0  0.34968900109E+02 -0.71106301776E+02 -0.79316708213E+02  0.11211632499E+03  0.00000000000E+00 0. -1.
</event>
<event>
 8    1  0.6597859E-009  0.1382017E+03  0.7561462E-02  0.1215769E+00
         -2   -1    0    0    0  501 -0.00000000000E+00  0.00000000000E+00  0.34110077760E+02  0.34110077760E+02  0.00000000000E+00 0.  1.
          2   -1    0    0  501    0  0.00000000000E+00 -0.00000000000E+00 -0.68528184885E+03  0.68528184885E+03  0.00000000000E+00 0. -1.
         25    2    1    2    0    0 -0.10735232051E+03  0.12592094003E+01 -0.38336470519E+03  0.41730398465E+03  0.12509201449E+03 0.  0.
         23    2    1    2    0    0  0.10735232051E+03 -0.12592094003E+01 -0.26780706590E+03  0.30208794196E+03  0.89500803388E+02 0.  0.
          5    1    3    3  502    0 -0.43213056509E+02 -0.50094896686E+02 -0.26493394167E+03  0.27310132328E+03  0.41800000000E+01 0. -1.
         -5    1    3    3    0  502 -0.64139263999E+02  0.51354106086E+02 -0.11843076352E+03  0.14420266137E+03  0.41800000000E+01 0. -1.
        -11    1    4    4    0    0  0.10684236779E+03 -0.20334582286E+02 -0.25931915723E+03  0.28120315094E+03  0.00000000000E+00 0. -1.
         11    1    4    4    0    0  0.50995271614E+00  0.19075372885E+02 -0.84879086686E+01  0.20884791022E+02  0.00000000000E+00 0.  1.
</event>
<event>
 8    1  0.6597859E-009  0.1008464E+03  0.7561462E-02  0.1278526E+00
          2   -1    0    0  501    0  0.00000000000E+00  0.00000000000E+00  0.23167472429E+03  0.23167472429E+03  0.00000000000E+00 0. -1.
         -2   -1    0    0    0  501 -0.00000000000E+00 -0.00000000000E+00 -0.78236179023E+02  0.78236179023E+02  0.00000000000E+00 0.  1.
         25    2    1    2    0    0 -0.44051479801E+02  0.30567185307E+02  0.16868879618E+02  0.13713986857E+03  0.12509156152E+03 0.  0.
         23    2    1    2    0    0  0.44051479801E+02 -0.30567185307E+02  0.13656966565E+03  0.17277103474E+03  0.91234155774E+02 0.  0.
          5    1    3    3  502    0 -0.72590602779E+02  0.42325732253E+02  0.44787050261E+02  0.95311150941E+02  0.41800000000E+01 0.  1.
         -5    1    3    3    0  502  0.28539122978E+02 -0.11758546946E+02 -0.27918170643E+02  0.41828717632E+02  0.41800000000E+01 0.  1.
        -11    1    4    4    0    0  0.53510981225E+02 -0.44482594766E+02  0.13931090786E+03  0.15572300857E+03  0.00000000000E+00 0. -1.
         11    1    4    4    0    0 -0.94595014240E+01  0.13915409459E+02 -0.27412422088E+01  0.17048026174E+02  0.00000000000E+00 0.  1.
</event>
<event>
 8    1  0.6597859E-009  0.9490583E+02  0.7561462E-02  0.1291388E+00
         -1   -1    0    0    0  501 -0.00000000000E+00  0.00000000000E+00  0.10449586098E+03  0.10449586098E+03  0.00000000000E+00 0.  1.
          1   -1    0    0  501    0  0.00000000000E+00 -0.00000000000E+00 -0.12038353841E+03  0.12038353841E+03  0.00000000000E+00 0. -1.
         25    2    1    2    0    0  0.13308259687E+02 -0.30770862195E+02 -0.41352365791E+01  0.12957130851E+03  0.12509063942E+03 0.  0.
         23    2    1    2    0    0 -0.13308259687E+02  0.30770862195E+02 -0.11752440849E+02  0.95308090876E+02  0.88439564587E+02 0.  0.
          5    1    3    3  502    0  0.61656123944E+01  0.48751797968E+02 -0.53744635654E+01  0.49609574076E+02  0.41800000000E+01 0. -1.
         -5    1    3    3    0  502  0.71426472922E+01 -0.79522660164E+02  0.12392269863E+01  0.79961734432E+02  0.41800000000E+01 0. -1.
        -11    1    4    4    0    0 -0.25513679777E+02  0.38433057226E+02  0.27353841535E+02  0.53630964845E+02  0.00000000000E+00 0.  1.
         11    1    4    4    0    0  0.12205420090E+02 -0.76621950302E+01 -0.39106282385E+02  0.41677126031E+02  0.00000000000E+00 0. -1.
</event>
<event>
 8    1  0.6597859E-009  0.1595360E+03  0.7561462E-02  0.1189222E+00
         -2   -1    0    0    0  501 -0.00000000000E+00  0.00000000000E+00  0.18711564460E+03  0.18711564460E+03  0.00000000000E+00 0.  1.
          2   -1    0    0  501    0  0.00000000000E+00 -0.00000000000E+00 -0.17844443838E+03  0.17844443838E+03  0.00000000000E+00 0. -1.
         25    2    1    2    0    0 -0.62219308057E+02 -0.12551016990E+03  0.47863527010E+02  0.19381172250E+03  0.12509205218E+03 0.  0.
         23    2    1    2    0    0  0.62219308057E+02  0.12551016990E+03 -0.39192320789E+02  0.17174836048E+03  0.91309453375E+02 0.  0.
          5    1    3    3  502    0 -0.24591260729E+02 -0.13425468648E+03  0.65133089290E+02  0.15129059014E+03  0.41800000000E+01 0. -1.
         -5    1    3    3    0  502 -0.37628047328E+02  0.87445165736E+01 -0.17269562280E+02  0.42521132360E+02  0.41800000000E+01 0. -1.
        -11    1    4    4    0    0 -0.17620289979E+01  0.21346225813E+02 -0.44502337118E+02  0.49388501815E+02  0.00000000000E+00 0. -1.
         11    1    4    4    0    0  0.63981337055E+02  0.10416394409E+03  0.53100163281E+01  0.12235985867E+03  0.00000000000E+00 0.  1.
</event>
<event>
 8    1  0.6597859E-009  0.1052210E+03  0.7561462E-02  0.1269685E+00
         -3   -1    0    0    0  501 -0.00000000000E+00  0.00000000000E+00  0.35090535465E+03  0.35090535465E+03  0.00000000000E+00 0.  1.
          3   -1    0    0  501    0  0.00000000000E+00 -0.00000000000E+00 -0.54510768042E+02  0.54510768042E+02  0.00000000000E+00 0. -1.
         25    2    1    2    0    0  0.56379034355E+02 -0.33333617663E+02  0.24786098741E+03  0.28525834278E+03  0.12509007742E+03 0.  0.
         23    2    1    2    0    0 -0.56379034355E+02  0.33333617663E+02  0.48533599204E+02  0.12015777991E+03  0.88276023016E+02 0.  0.
          5    1    3    3  502    0 -0.26121131397E+02  0.18935060329E+02  0.22343261821E+02  0.39465728980E+02  0.41800000000E+01 0. -1.
         -5    1    3    3    0  502  0.82500165752E+02 -0.52268677992E+02  0.22551772558E+03  0.24579261380E+03  0.41800000000E+01 0. -1.
        -11    1    4    4    0    0 -0.43166047421E+01 -0.10973915631E+02 -0.20088357105E+02  0.23293818749E+02  0.00000000000E+00 0. -1.
         11    1    4    4    0    0 -0.52062429613E+02  0.44307533294E+02  0.68621956308E+02  0.96863961159E+02  0.00000000000E+00 0.  1.
</event>
<event>
 8    1  0.6597859E-009  0.1034974E+03  0.7561462E-02  0.1273109E+00
         -1   -1    0    0    0  501 -0.00000000000E+00  0.00000000000E+00  0.18330613154E+03  0.18330613154E+03  0.00000000000E+00 0.  1.
          1   -1    0    0  501    0  0.00000000000E+00 -0.00000000000E+00 -0.61700602515E+02  0.61700602515E+02  0.00000000000E+00 0. -1.
         25    2    1    2    0    0 -0.26338504250E+02  0.14125239744E+02  0.59386791859E+02  0.14165476460E+03  0.12508414001E+03 0.  0.
         23    2    1    2    0    0  0.26338504250E+02 -0.14125239744E+02  0.62218737161E+02  0.10335196945E+03  0.76923462821E+02 0.  0.
          5    1    3    3  502    0 -0.45836470707E+02  0.61688040692E+02  0.37753857562E+02  0.85727606826E+02  0.41800000000E+01 0. -1.
         -5    1    3    3    0  502  0.19497966457E+02 -0.47562800948E+02  0.21632934297E+02  0.55927157770E+02  0.41800000000E+01 0. -1.
        -11    1    4    4    0    0  0.43636419684E+01  0.29386261517E+02  0.39885345843E+02  0.49733636004E+02  0.00000000000E+00 0.  1.
         11    1    4    4    0    0  0.21974862282E+02 -0.43511501261E+02  0.22333391317E+02  0.53618333450E+02  0.00000000000E+00 0. -1.
</event>
<event>
 8    1  0.6597859E-009  0.1404387E+03  0.7561462E-02  0.1212740E+00
         -2   -1    0    0    0  501 -0.00000000000E+00  0.00000000000E+00  0.11818251300E+03  0.11818251300E+03  0.00000000000E+00 0.  1.
          2   -1    0    0  501    0  0.00000000000E+00 -0.00000000000E+00 -0.22093154731E+03  0.22093154731E+03  0.00000000000E+00 0. -1.
         25    2    1    2    0    0 -0.11681282313E+03  0.64339741046E+01 -0.34460687332E+02  0.17470512938E+03  0.12509081336E+03 0.  0.
         23    2    1    2    0    0  0.11681282313E+03 -0.64339741046E+01 -0.68288346976E+02  0.16440893094E+03  0.93168484847E+02 0.  0.
          5    1    3    3  502    0 -0.89694078697E+00 -0.38978884193E+02 -0.31178985407E+02  0.50097499406E+02  0.41800000000E+01 0. -1.
         -5    1    3    3    0  502 -0.11591588235E+03  0.45412858297E+02 -0.32817019245E+01  0.12460762997E+03  0.41800000000E+01 0. -1.
        -11    1    4    4    0    0  0.47632859689E+02 -0.51277643295E+01  0.20274418931E+02  0.52021489331E+02  0.00000000000E+00 0.  1.
         11    1    4    4    0    0  0.69179963445E+02 -0.13062097752E+01 -0.88562765908E+02  0.11238744161E+03  0.00000000000E+00 0. -1.
</event>
<event>
 8    1  0.6597859E-009  0.1069006E+03  0.7561462E-02  0.1266420E+00
         -2   -1    0    0    0  501 -0.00000000000E+00  0.00000000000E+00  0.10693405364E+02  0.10693405364E+02  0.00000000000E+00 0.  1.
          2   -1    0    0  501    0  0.00000000000E+00 -0.00000000000E+00 -0.31458171799E+04  0.31458171799E+04  0.00000000000E+00 0. -1.
         25    2    1    2    0    0 -0.35586901890E+02  0.14942200604E+02 -0.28718730503E+04  0.28748552576E+04  0.12509291843E+03 0.  0.
         23    2    1    2    0    0  0.35586901890E+02 -0.14942200604E+02 -0.26325072425E+03  0.28165532766E+03  0.92407157943E+02 0.  0.
          5    1    3    3  502    0  0.30268036047E+02 -0.25819519917E+02 -0.16717012576E+04  0.16721798255E+04  0.41800000000E+01 0.  1.
         -5    1    3    3    0  502 -0.65854937937E+02  0.40761720521E+02 -0.12001717926E+04  0.12026754321E+04  0.41800000000E+01 0.  1.
        -11    1    4    4    0    0 -0.54964759185E+01  0.32796025685E+02 -0.56874504851E+02  0.65882469978E+02  0.00000000000E+00 0.  1.
         11    1    4    4    0    0  0.41083377808E+02 -0.47738226289E+02 -0.20637621940E+03  0.21577285769E+03  0.00000000000E+00 0. -1.
</event>
<event>
 8    1  0.6597859E-009  0.1108625E+03  0.7561462E-02  0.1258981E+00
          2   -1    0    0  501    0  0.00000000000E+00  0.00000000000E+00  0.58868619348E+02  0.58868619348E+02  0.00000000000E+00 0. -1.
         -2   -1    0    0    0  501 -0.00000000000E+00 -0.00000000000E+00 -0.32057750852E+03  0.32057750852E+03  0.00000000000E+00 0.  1.
         25    2    1    2    0    0  0.27752208300E+02  0.32531946985E+02 -0.24067851167E+03  0.27459558101E+03  0.12509226392E+03 0.  0.
         23    2    1    2    0    0 -0.27752208300E+02 -0.32531946985E+02 -0.21030377508E+02  0.10485054686E+03  0.93396187069E+02 0.  0.
          5    1    3    3  502    0  0.68840128631E+02 -0.34306709544E+01 -0.18035527221E+03  0.19312231726E+03  0.41800000000E+01 0.  1.
         -5    1    3    3    0  502 -0.41087920332E+02  0.35962617940E+02 -0.60323239462E+02  0.81473263746E+02  0.41800000000E+01 0.  1.
        -11    1    4    4    0    0 -0.49164647190E+02  0.10110142471E+02 -0.26607196251E+02  0.56809509824E+02  0.00000000000E+00 0.  1.
         11    1    4    4    0    0  0.21412438890E+02 -0.42642089456E+02  0.55768187427E+01  0.48041037038E+02  0.00000000000E+00 0. -1.
</event>
<event>
 8    1  0.6597859E-009  0.2909405E+03  0.7561462E-02  0.1089859E+00
          2   -1    0    0  501    0  0.00000000000E+00  0.00000000000E+00  0.89154705981E+03  0.89154705981E+03  0.00000000000E+00 0. -1.
         -2   -1    0    0    0  501 -0.00000000000E+00 -0.00000000000E+00 -0.96566918235E+02  0.96566918235E+02  0.00000000000E+00 0.  1.
         25    2    1    2    0    0 -0.25521442069E+03 -0.91425033795E+02  0.35956835878E+03  0.46736395083E+03  0.12508685211E+03 0.  0.
         23    2    1    2    0    0  0.25521442069E+03  0.91425033795E+02  0.43541178280E+03  0.52075002721E+03  0.90023513091E+02 0.  0.
          5    1    3    3  502    0 -0.15091654762E+03  0.10919996889E+02  0.16370326025E+03  0.22296026662E+03  0.41800000000E+01 0.  1.
         -5    1    3    3    0  502 -0.10429787307E+03 -0.10234503068E+03  0.19586509853E+03  0.24440368421E+03  0.41800000000E+01 0.  1.
        -11    1    4    4    0    0  0.13668260450E+03  0.93798452739E+02  0.27822749688E+03  0.32386852908E+03  0.00000000000E+00 0. -1.
         11    1    4    4    0    0  0.11853181619E+03 -0.23734189432E+01  0.15718428591E+03  0.19688149813E+03  0.00000000000E+00 0.  1.
</event>
<event>
 8    1  0.6597859E-009  0.1414450E+03  0.7561462E-02  0.1211398E+00
          1   -1    0    0  501    0  0.00000000000E+00  0.00000000000E+00  0.23935605348E+03  0.23935605348E+03  0.00000000000E+00 0. -1.
         -1   -1    0    0    0  501 -0.00000000000E+00 -0.00000000000E+00 -0.10389028901E+03  0.10389028901E+03  0.00000000000E+00 0.  1.
         25    2    1    2    0    0  0.97400996785E+02 -0.57974329455E+02  0.57800448262E+02  0.17842694927E+03  0.12508919760E+03 0.  0.
         23    2    1    2    0    0 -0.97400996785E+02  0.57974329455E+02  0.77665316208E+02  0.16481939321E+03  0.91025018463E+02 0.  0.
          5    1    3    3  502    0  0.78551595243E+02 -0.97224447173E+02  0.43204370446E+02  0.13231415748E+03  0.41800000000E+01 0.  1.
         -5    1    3    3    0  502  0.18849401542E+02  0.39250117718E+02  0.14596077816E+02  0.46112791794E+02  0.41800000000E+01 0.  1.
        -11    1    4    4    0    0 -0.64239545612E+02  0.30942161835E+02  0.94894147987E+02  0.11869724479E+03  0.00000000000E+00 0. -1.
         11    1    4    4    0    0 -0.33161451173E+02  0.27032167620E+02 -0.17228831779E+02  0.46122148417E+02  0.00000000000E+00 0.  1.
</event>
<event>
 8    1  0.6597859E-009  0.1062387E+03  0.7561462E-02  0.1267698E+00
         -1   -1    0    0    0  501 -0.00000000000E+00  0.00000000000E+00  0.46156496066E+02  0.46156496066E+02  0.00000000000E+00 0.  1.
          1   -1    0    0  501    0  0.00000000000E+00 -0.00000000000E+00 -0.35301716782E+03  0.35301716782E+03  0.00000000000E+00 0. -1.
         25    2    1    2    0    0  0.17518121167E+02  0.64981199897E+02 -0.16379864742E+03  0.21680203097E+03  0.12507470899E+03 0.  0.
         23    2    1    2    0    0 -0.17518121167E+02 -0.64981199897E+02 -0.14306202433E+03  0.18237163291E+03  0.90902303463E+02 0.  0.
          5    1    3    3  502    0 -0.13618201462E+02  0.75162654583E+02 -0.35527332985E+02  0.84347755418E+02  0.41800000000E+01 0. -1.
         -5    1    3    3    0  502  0.31136322629E+02 -0.10181454686E+02 -0.12827131443E+03  0.13245427555E+03  0.41800000000E+01 0. -1.
        -11    1    4    4    0    0 -0.46813102895E+01 -0.81722329093E+02 -0.13835576328E+03  0.16075686913E+03  0.00000000000E+00 0. -1.
         11    1    4    4    0    0 -0.12836810878E+02  0.16741129196E+02 -0.47062610487E+01  0.21614763781E+02  0.00000000000E+00 0.  1.
</event>
<event>
 8    1  0.6597859E-009  0.1021557E+03  0.7561462E-02  0.1275827E+00
          1   -1    0    0  501    0  0.00000000000E+00  0.00000000000E+00  0.52553441177E+03  0.52553441177E+03  0.00000000000E+00 0. -1.
         -1   -1    0    0    0  501 -0.00000000000E+00 -0.00000000000E+00 -0.31643029017E+02  0.31643029017E+02  0.00000000000E+00 0.  1.
         25    2    1    2    0    0 -0.41256111303E+02  0.26329880472E+02  0.38812881372E+03  0.41071477541E+03  0.12508925364E+03 0.  0.
         23    2    1    2    0    0  0.41256111303E+02 -0.26329880472E+02  0.10576256903E+03  0.14646266537E+03  0.88714497205E+02 0.  0.
          5    1    3    3  502    0 -0.29279486497E+02  0.64238957411E+02  0.11743595443E+03  0.13708613267E+03  0.41800000000E+01 0.  1.
         -5    1    3    3    0  502 -0.11976624806E+02 -0.37909076939E+02  0.27069285929E+03  0.27362864274E+03  0.41800000000E+01 0.  1.
        -11    1    4    4    0    0 -0.13851261742E+02  0.18125736043E+02  0.50702596808E+01  0.23368938619E+02  0.00000000000E+00 0.  1.
         11    1    4    4    0    0  0.55107373045E+02 -0.44455616515E+02  0.10069230935E+03  0.12309372675E+03  0.00000000000E+00 0. -1.
</event>
<event>
 8    1  0.6597859E-009  0.1225473E+03  0.7561462E-02  0.1238953E+00
         -4   -1    0    0    0  501 -0.00000000000E+00  0.00000000000E+00  0.44866974502E+02  0.44866974502E+02  0.00000000000E+00 0.  1.
          4   -1    0    0  501    0  0.00000000000E+00 -0.00000000000E+00 -0.48719802792E+03  0.48719802792E+03  0.00000000000E+00 0. -1.
         25    2    1    2    0    0  0.67477406463E+02  0.70988413628E+02 -0.20277041774E+03  0.25759552721E+03  0.12508820118E+03 0.  0.
         23    2    1    2    0    0 -0.67477406463E+02 -0.70988413628E+02 -0.23956063568E+03  0.27446947521E+03  0.91387304397E+02 0.  0.
          5    1    3    3  502    0 -0.10548854726E+02  0.30981232544E+02 -0.15334270994E+03  0.15685207744E+03  0.41800000000E+01 0.  1.
         -5    1    3    3    0  502  0.78026261189E+02  0.40007181085E+02 -0.49427707808E+02  0.10074344978E+03  0.41800000000E+01 0.  1.
        -11    1    4    4    0    0 -0.40447858451E+02  0.76475837786E+01 -0.13347987562E+03  0.13968318433E+03  0.00000000000E+00 0.  1.
         11    1    4    4    0    0 -0.27029548012E+02 -0.78635997407E+02 -0.10608076006E+03  0.13478629088E+03  0.00000000000E+00 0. -1.
</event>
<event>
 8    1  0.6597859E-009  0.1016894E+03  0.7561462E-02  0.1276783E+00
          3   -1    0    0  501    0  0.00000000000E+00  0.00000000000E+00  0.59959682341E+02  0.59959682341E+02  0.00000000000E+00 0. -1.
         -3   -1    0    0    0  501 -0.00000000000E+00 -0.00000000000E+00 -0.21573813090E+03  0.21573813090E+03  0.00000000000E+00 0.  1.
         25    2    1    2    0    0 -0.12498896977E+02  0.19267714282E+02 -0.53595665272E+02  0.13801788957E+03  0.12509586430E+03 0.  0.
         23    2    1    2    0    0  0.12498896977E+02 -0.19267714282E+02 -0.10218278329E+03  0.13767992368E+03  0.89369865971E+02 0.  0.
          5    1    3    3  502    0 -0.68536487499E+02  0.13023777610E+02 -0.22105006398E+02  0.73300563502E+02  0.41800000000E+01 0. -1.
         -5    1    3    3    0  502  0.56037590521E+02  0.62439366721E+01 -0.31490658874E+02  0.64717326065E+02  0.41800000000E+01 0. -1.
        -11    1    4    4    0    0 -0.77405492182E+01 -0.44180593835E+02 -0.94605244372E+02  0.10469953790E+03  0.00000000000E+00 0.  1.
         11    1    4    4    0    0  0.20239446196E+02  0.24912879553E+02 -0.75775389174E+01  0.32980385777E+02  0.00000000000E+00 0. -1.
</event>
<event>
 8    1  0.6597859E-009  0.1811286E+03  0.7561462E-02  0.1166715E+00
          1   -1    0    0  501    0  0.00000000000E+00  0.00000000000E+00  0.26576595501E+03  0.26576595501E+03  0.00000000000E+00 0. -1.
         -1   -1    0    0    0  501 -0.00000000000E+00 -0.00000000000E+00 -0.16652926192E+03  0.16652926192E+03  0.00000000000E+00 0.  1.
         25    2    1    2    0    0 -0.12513500878E+03 -0.11439490928E+03 -0.60829211533E+01  0.21077855533E+03  0.12508249984E+03 0.  0.
         23    2    1    2    0    0  0.12513500878E+03  0.11439490928E+03  0.10531961424E+03  0.22151666160E+03  0.96085610428E+02 0.  0.
          5    1    3    3  502    0 -0.82689985515E+01  0.12029663607E+02  0.31086932261E+02  0.34597093822E+02  0.41800000000E+01 0. -1.
         -5    1    3    3    0  502 -0.11686601023E+03 -0.12642457289E+03 -0.37169853414E+02  0.17618146151E+03  0.41800000000E+01 0. -1.
        -11    1    4    4    0    0  0.60954238156E+02  0.27604026022E+02 -0.50913259551E+01  0.67106802947E+02  0.00000000000E+00 0.  1.
         11    1    4    4    0    0  0.64180770626E+02  0.86790883260E+02  0.11041094019E+03  0.15440985865E+03  0.00000000000E+00 0. -1.
</event>
<event>
 8    1  0.6597859E-009  0.2498114E+03  0.7561462E-02  0.1113424E+00
         -1   -1    0    0    0  501 -0.00000000000E+00  0.00000000000E+00  0.42371278023E+02  0.42371278023E+02  0.00000000000E+00 0.  1.
          1   -1    0    0  501    0  0.00000000000E+00 -0.00000000000E+00 -0.20053750039E+04  0.20053750039E+04  0.00000000000E+00 0. -1.
         25    2    1    2    0    0  0.19478122484E+03  0.14584409728E+03 -0.14252525794E+04  0.14512762237E+04  0.12509011251E+03 0.  0.
         23    2    1    2    0    0 -0.19478122484E+03 -0.14584409728E+03 -0.53775114647E+03  0.59647005817E+03  0.85965158681E+02 0.  0.
          5    1    3    3  502    0  0.18000697849E+03  0.97659764057E+02 -0.13026006986E+04  0.13186075967E+04  0.41800000000E+01 0.  1.
         -5    1    3    3    0  502  0.14774246351E+02  0.48184333228E+02 -0.12265188084E+03  0.13266862703E+03  0.41800000000E+01 0.  1.
        -11    1    4    4    0    0 -0.16985276247E+03 -0.11785902331E+03 -0.36298474920E+03  0.41773034178E+03  0.00000000000E+00 0.  1.
         11    1    4    4    0    0 -0.24928462368E+02 -0.27985073977E+02 -0.17476639726E+03  0.17873971639E+03  0.00000000000E+00 0. -1.
</event>
<event>
 8    1  0.6597859E-009  0.9656999E+02  0.7561462E-02  0.1287679E+00
         -1   -1    0    0    0  501 -0.00000000000E+00  0.00000000000E+00  0.14537654040E+02  0.14537654040E+02  0.00000000000E+00 0.  1.
          1   -1    0    0  501    0  0.00000000000E+00 -0.00000000000E+00 -0.87421539641E+03  0.87421539641E+03  0.00000000000E+00 0. -1.
         25    2    1    2    0    0  0.32307853227E+01  0.96352854470E+00 -0.61138952032E+03  0.62406408709E+03  0.12508985922E+03 0.  0.
         23    2    1    2    0    0 -0.32307853227E+01 -0.96352854470E+00 -0.24828822205E+03  0.26468896336E+03  0.91661550032E+02 0.  0.
          5    1    3    3  502    0  0.50965257412E+02  0.15865269477E+02 -0.13800139722E+03  0.14802372200E+03  0.41800000000E+01 0.  1.
         -5    1    3    3    0  502 -0.47734472089E+02 -0.14901740933E+02 -0.47338812310E+03  0.47604036509E+03  0.41800000000E+01 0.  1.
        -11    1    4    4    0    0 -0.39476342892E+02  0.23263688428E+02 -0.15655520963E+03  0.16312300423E+03  0.00000000000E+00 0.  1.
         11    1    4    4    0    0  0.36245557569E+02 -0.24227216973E+02 -0.91733012422E+02  0.10156595913E+03  0.00000000000E+00 0. -1.
</event>
<event>
 8    1  0.6597859E-009  0.2774454E+03  0.7561462E-02  0.1097092E+00
          2   -1    0    0  501    0  0.00000000000E+00  0.00000000000E+00  0.10580740297E+04  0.10580740297E+04  0.00000000000E+00 0. -1.
         -2   -1    0    0    0  501 -0.00000000000E+00 -0.00000000000E+00 -0.93931276341E+02  0.93931276341E+02  0.00000000000E+00 0.  1.
         25    2    1    2    0    0 -0.24484776766E+03  0.11184532611E+03  0.26903091548E+03  0.40060664975E+03  0.12509295759E+03 0.  0.
         23    2    1    2    0    0  0.24484776766E+03 -0.11184532611E+03  0.69511183789E+03  0.75139865631E+03  0.94655518701E+02 0.  0.
          5    1    3    3  502    0 -0.91591404823E+01  0.14439616048E+02 -0.11835474333E+02  0.21211865045E+02  0.41800000000E+01 0.  1.
         -5    1    3    3    0  502 -0.23568862718E+03  0.97405710058E+02  0.28086638981E+03  0.37939478470E+03  0.41800000000E+01 0.  1.
        -11    1    4    4    0    0  0.12945103318E+03 -0.12665973164E+02  0.37610016240E+03  0.39795644112E+03  0.00000000000E+00 0. -1.
         11    1    4    4    0    0  0.11539673448E+03 -0.99179352942E+02  0.31901167549E+03  0.35344221519E+03  0.00000000000E+00 0.  1.
</event>
<event>
 8    1  0.6597859E-009  0.2330452E+03  0.7561462E-02  0.1124515E+00
          1   -1    0    0  501    0  0.00000000000E+00  0.00000000000E+00  0.17360926411E+03  0.17360926411E+03  0.00000000000E+00 0. -1.
         -1   -1    0    0    0  501 -0.00000000000E+00 -0.00000000000E+00 -0.37816411554E+03  0.37816411554E+03  0.00000000000E+00 0.  1.
         25    2    1    2    0    0  0.20795378559E+03  0.40074175094E+02 -0.23408428149E+01  0.24597188329E+03  0.12508385736E+03 0.  0.
         23    2    1    2    0    0 -0.20795378559E+03 -0.40074175094E+02 -0.20221400862E+03  0.30580149636E+03  0.88166509746E+02 0.  0.
          5    1    3    3  502    0  0.22405736671E+03  0.44937189079E+02 -0.67355632977E+00  0.22855848402E+03  0.41800000000E+01 0. -1.
         -5    1    3    3    0  502 -0.16103581118E+02 -0.48630139842E+01 -0.16672864851E+01  0.17413399268E+02  0.41800000000E+01 0. -1.
        -11    1    4    4    0    0 -0.16567000360E+03 -0.58035512173E+01 -0.18569201124E+03  0.24892118098E+03  0.00000000000E+00 0.  1.
         11    1    4    4    0    0 -0.42283781990E+02 -0.34270623877E+02 -0.16521997376E+02  0.56880315378E+02  0.00000000000E+00 0. -1.
</event>
<event>
 8    1  0.6597859E-009  0.1004062E+03  0.7561462E-02  0.1279444E+00
         -2   -1    0    0    0  501 -0.00000000000E+00  0.00000000000E+00  0.12411351056E+03  0.12411351056E+03  0.00000000000E+00 0.  1.
          2   -1    0    0  501    0  0.00000000000E+00 -0.00000000000E+00 -0.10986305127E+03  0.10986305127E+03  0.00000000000E+00 0. -1.
         25    2    1    2    0    0 -0.26960367705E+02 -0.31507250909E+02  0.21824461882E+02  0.13357958717E+03  0.12509048999E+03 0.  0.
         23    2    1    2    0    0  0.26960367705E+02  0.31507250909E+02 -0.75740025903E+01  0.10039697466E+03  0.91118706748E+02 0.  0.
          5    1    3    3  502    0  0.83493524932E-01  0.32493335757E+02  0.48928070450E+02  0.58883378960E+02  0.41800000000E+01 0. -1.
         -5    1    3    3    0  502 -0.27043861230E+02 -0.64000586666E+02 -0.27103608567E+02  0.74696208212E+02  0.41800000000E+01 0. -1.
        -11    1    4    4    0    0 -0.12245174693E+02  0.52544636720E+02 -0.13215389702E+02  0.55547544286E+02  0.00000000000E+00 0. -1.
         11    1    4    4    0    0  0.39205542398E+02 -0.21037385811E+02  0.56413871116E+01  0.44849430376E+02  0.00000000000E+00 0.  1.
</event>
<event>
 8    1  0.6597859E-009  0.9261040E+02  0.7561462E-02  0.1296651E+00
          1   -1    0    0  501    0  0.00000000000E+00  0.00000000000E+00  0.41039224163E+02  0.41039224163E+02  0.00000000000E+00 0.  1.
         -1   -1    0    0    0  501 -0.00000000000E+00 -0.00000000000E+00 -0.43691232522E+03  0.43691232522E+03  0.00000000000E+00 0. -1.
         25    2    1    2    0    0 -0.54759015481E+02 -0.18668007969E+02 -0.12588070932E+03  0.18665384843E+03  0.12508661742E+03 0.  0.
         23    2    1    2    0    0  0.54759015481E+02  0.18668007969E+02 -0.26999239173E+03  0.29129770095E+03  0.92797708418E+02 0.  0.
          5    1    3    3  502    0 -0.95321306899E+01  0.20555745719E+02  0.18981840115E+02  0.29852685837E+02  0.41800000000E+01 0.  1.
         -5    1    3    3    0  502 -0.45226884791E+02 -0.39223753688E+02 -0.14486254944E+03  0.15680116259E+03  0.41800000000E+01 0.  1.
        -11    1    4    4    0    0  0.55930584940E+02 -0.23006199922E+02 -0.20782105770E+03  0.21644192660E+03  0.00000000000E+00 0. -1.
         11    1    4    4    0    0 -0.11715694586E+01  0.41674207891E+02 -0.62171334036E+02  0.74855774354E+02  0.00000000000E+00 0.  1.
</event>
<event>
 8    1  0.6597859E-009  0.1450042E+03  0.7561462E-02  0.1206750E+00
         -1   -1    0    0    0  501 -0.00000000000E+00  0.00000000000E+00  0.11388332819E+03  0.11388332819E+03  0.00000000000E+00 0.  1.
          1   -1    0    0  501    0  0.00000000000E+00 -0.00000000000E+00 -0.31568274416E+03  0.31568274416E+03  0.00000000000E+00 0. -1.
         25    2    1    2    0    0 -0.10663339638E+03  0.30184309506E+02 -0.22891515138E+03  0.28342591520E+03  0.12508528734E+03 0.  0.
         23    2    1    2    0    0  0.10663339638E+03 -0.30184309506E+02  0.27115735419E+02  0.14614015715E+03  0.91323100368E+02 0.  0.
          5    1    3    3  502    0 -0.12538315649E+03  0.53260762288E+02 -0.19758264686E+03  0.24002920545E+03  0.41800000000E+01 0.  1.
         -5    1    3    3    0  502  0.18749760105E+02 -0.23076452783E+02 -0.31332504522E+02  0.43396709744E+02  0.41800000000E+01 0.  1.
        -11    1    4    4    0    0  0.85004566225E+02 -0.46228727037E+02  0.51672617991E+02  0.10969471698E+03  0.00000000000E+00 0.  1.
         11    1    4    4    0    0  0.21628830158E+02  0.16044417532E+02 -0.24556882572E+02  0.36445440176E+02  0.00000000000E+00 0. -1.
</event>
<event>
 8    1  0.6597859E-009  0.1406623E+03  0.7561462E-02  0.1212441E+00
          1   -1    0    0  501    0  0.00000000000E+00  0.00000000000E+00  0.32719273497E+03  0.32719273497E+03  0.00000000000E+00 0. -1.
         -1   -1    0    0    0  501 -0.00000000000E+00 -0.00000000000E+00 -0.66133713329E+02  0.66133713329E+02  0.00000000000E+00 0.  1.
         25    2    1    2    0    0 -0.71892864663E+02  0.69133695583E+02  0.10586845790E+03  0.19184544867E+03  0.12509394048E+03 0.  0.
         23    2    1    2    0    0  0.71892864663E+02 -0.69133695583E+02  0.15519056374E+03  0.20148099963E+03  0.81008828421E+02 0.  0.
          5    1    3    3  502    0  0.31824917976E+02  0.22062056457E+02  0.54102962116E+02  0.66664553167E+02  0.41800000000E+01 0. -1.
         -5    1    3    3    0  502 -0.10371778264E+03  0.47071639127E+02  0.51765495784E+02  0.12518089551E+03  0.41800000000E+01 0. -1.
        -11    1    4    4    0    0  0.73566103671E+02 -0.16059408445E+02  0.87198090539E+02  0.11521016970E+03  0.00000000000E+00 0. -1.
         11    1    4    4    0    0 -0.16732390078E+01 -0.53074287138E+02  0.67992473204E+02  0.86270829927E+02  0.00000000000E+00 0.  1.
</event>
<event>
 8    1  0.6597859E-009  0.1418502E+03  0.7561462E-02  0.1210861E+00
          2   -1    0    0  501    0  0.00000000000E+00  0.00000000000E+00  0.17988795463E+03  0.17988795463E+03  0.00000000000E+00 0. -1.
         -2   -1    0    0    0  501 -0.00000000000E+00 -0.00000000000E+00 -0.19831072942E+03  0.19831072942E+03  0.00000000000E+00 0.  1.
         25    2    1    2    0    0 -0.74929281739E+02 -0.10192688803E+03  0.78701277410E+02  0.19454122562E+03  0.12509560198E+03 0.  0.
         23    2    1    2    0    0  0.74929281739E+02  0.10192688803E+03 -0.97124052206E+02  0.18365745843E+03  0.91068615638E+02 0.  0.
          5    1    3    3  502    0 -0.32388922235E+02 -0.21102141319E+02  0.94104632724E+02  0.10182090626E+03  0.41800000000E+01 0.  1.
         -5    1    3    3    0  502 -0.42540359504E+02 -0.80824746711E+02 -0.15403355313E+02  0.92720319362E+02  0.41800000000E+01 0.  1.
        -11    1    4    4    0    0  0.72537953006E+02  0.25451142195E+02 -0.65015155362E+02  0.10068011567E+03  0.00000000000E+00 0.  1.
         11    1    4    4    0    0  0.23913287328E+01  0.76475745835E+02 -0.32108896844E+02  0.82977342755E+02  0.00000000000E+00 0. -1.
</event>
<event>
 8    1  0.6597859E-009  0.9817304E+02  0.7561462E-02  0.1284185E+00
          1   -1    0    0  501    0  0.00000000000E+00  0.00000000000E+00  0.20212158378E+03  0.20212158378E+03  0.00000000000E+00 0. -1.
         -1   -1    0    0    0  501 -0.00000000000E+00 -0.00000000000E+00 -0.66825420283E+02  0.66825420283E+02  0.00000000000E+00 0.  1.
         25    2    1    2    0    0  0.27400394466E+02 -0.16682531208E+02  0.10891402393E+03  0.16893042660E+03  0.12508451526E+03 0.  0.
         23    2    1    2    0    0 -0.27400394466E+02  0.16682531208E+02  0.26382139561E+02  0.10001657746E+03  0.90984669123E+02 0.  0.
          5    1    3    3  502    0 -0.68974679155E+01  0.44581532211E+02  0.81880077151E+02  0.93578349591E+02  0.41800000000E+01 0. -1.
         -5    1    3    3    0  502  0.34297862381E+02 -0.61264063419E+02  0.27033946783E+02  0.75352077007E+02  0.41800000000E+01 0. -1.
        -11    1    4    4    0    0 -0.51199566564E+02 -0.74908376122E+00 -0.11023212682E+02  0.52378124829E+02  0.00000000000E+00 0.  1.
         11    1    4    4    0    0  0.23799172098E+02  0.17431614969E+02  0.37405352243E+02  0.47638452635E+02  0.00000000000E+00 0. -1.
</event>
<event>
 8    1  0.6597859E-009  0.1111870E+03  0.7561462E-02  0.1258387E+00
          3   -1    0    0  501    0  0.00000000000E+00  0.00000000000E+00  0.81003581004E+02  0.81003581004E+02  0.00000000000E+00 0. -1.
         -3   -1    0    0    0  501 -0.00000000000E+00 -0.00000000000E+00 -0.23083499025E+03  0.23083499025E+03  0.00000000000E+00 0.  1.
         25    2    1    2    0    0  0.35893111346E+02  0.24889385967E+02 -0.17371305868E+01  0.13249074534E+03  0.12507191132E+03 0.  0.
         23    2    1    2    0    0 -0.35893111346E+02 -0.24889385967E+02 -0.14809427866E+03  0.17934782592E+03  0.91246535898E+02 0.  0.
          5    1    3    3  502    0 -0.42195140987E+02 -0.14057302879E+02 -0.57333020869E+01  0.45037549222E+02  0.41800000000E+01 0. -1.
         -5    1    3    3    0  502  0.78088252333E+02  0.38946688846E+02  0.39961715001E+01  0.87453196117E+02  0.41800000000E+01 0. -1.
        -11    1    4    4    0    0 -0.45688875457E+02  0.15911909190E+02 -0.11851425163E+03  0.12800894513E+03  0.00000000000E+00 0.  1.
         11    1    4    4    0    0  0.97957641111E+01 -0.40801295157E+02 -0.29580027030E+02  0.51338880783E+02  0.00000000000E+00 0. -1.
</event>
<event>
 8    1  0.6597859E-009  0.6235574E+02  0.7561462E-02  0.1388204E+00
          2   -1    0    0  501    0  0.00000000000E+00  0.00000000000E+00  0.67168050589E+03  0.67168050589E+03  0.00000000000E+00 0. -1.
         -2   -1    0    0    0  501 -0.00000000000E+00 -0.00000000000E+00 -0.30037948665E+02  0.30037948665E+02  0.00000000000E+00 0.  1.
         25    2    1    2    0    0 -0.68974152791E+01  0.52503428247E+01  0.57590673423E+03  0.58939954664E+03  0.12509244026E+03 0.  0.
         23    2    1    2    0    0  0.68974152791E+01 -0.52503428247E+01  0.65735822996E+02  0.11231890792E+03  0.90659793806E+02 0.  0.
          5    1    3    3  502    0  0.12786294142E+02 -0.10927084789E+02  0.55731198970E+03  0.55758139922E+03  0.41800000000E+01 0.  1.
         -5    1    3    3    0  502 -0.19683709421E+02  0.16177427614E+02  0.18594744532E+02  0.31818147416E+02  0.41800000000E+01 0.  1.
        -11    1    4    4    0    0  0.43769277958E+02  0.26616238723E+01  0.59783145084E+02  0.74140800986E+02  0.00000000000E+00 0. -1.
         11    1    4    4    0    0 -0.36871862679E+02 -0.79119666970E+01  0.59526779111E+01  0.38178106930E+02  0.00000000000E+00 0.  1.
</event>
<event>
 8    1  0.6597859E-009  0.1205895E+03  0.7561462E-02  0.1242128E+00
         -3   -1    0    0    0  501 -0.00000000000E+00  0.00000000000E+00  0.54496447051E+02  0.54496447051E+02  0.00000000000E+00 0.  1.
          3   -1    0    0  501    0  0.00000000000E+00 -0.00000000000E+00 -0.38541460766E+03  0.38541460766E+03  0.00000000000E+00 0. -1.
         25    2    1    2    0    0  0.82879932373E+02  0.18619938627E+01 -0.10586755537E+03  0.18365224946E+03  0.12509060413E+03 0.  0.
         23    2    1    2    0    0 -0.82879932373E+02 -0.18619938627E+01 -0.22505060524E+03  0.25625880525E+03  0.90267658312E+02 0.  0.
          5    1    3    3  502    0  0.26716568261E+02 -0.40236144851E+02  0.86758119368E+01  0.49249004912E+02  0.41800000000E+01 0. -1.
         -5    1    3    3    0  502  0.56163364112E+02  0.42098138713E+02 -0.11454336731E+03  0.13440324455E+03  0.41800000000E+01 0. -1.
        -11    1    4    4    0    0 -0.47915280197E+02 -0.45766338930E+02 -0.12860150805E+03  0.14466782548E+03  0.00000000000E+00 0. -1.
         11    1    4    4    0    0 -0.34964652176E+02  0.43904345068E+02 -0.96449097184E+02  0.11159097977E+03  0.00000000000E+00 0.  1.
</event>
<event>
 8    1  0.6597859E-009  0.2623916E+03  0.7561462E-02  0.1105715E+00
          1   -1    0    0  501    0  0.00000000000E+00  0.00000000000E+00  0.23113180661E+03  0.23113180661E+03  0.00000000000E+00 0. -1.
         -1   -1    0    0    0  501 -0.00000000000E+00 -0.00000000000E+00 -0.34634621395E+03  0.34634621395E+03  0.00000000000E+00 0.  1.
         25    2    1    2    0    0  0.18947873309E+03  0.15537037674E+03 -0.15199754389E+03  0.31431599531E+03  0.12509655191E+03 0.  0.
         23    2    1    2    0    0 -0.18947873309E+03 -0.15537037674E+03  0.36783136551E+02  0.26316202524E+03  0.88651610989E+02 0.  0.
          5    1    3    3  502    0  0.94670818524E+02  0.31671320912E+01 -0.40374442944E+02  0.10305417337E+03  0.41800000000E+01 0. -1.
         -5    1    3    3    0  502  0.94807914569E+02  0.15220324465E+03 -0.11162310094E+03  0.21126182194E+03  0.41800000000E+01 0. -1.
        -11    1    4    4    0    0 -0.10444170634E+03 -0.51762363726E+02 -0.18773887152E+02  0.11806723153E+03  0.00000000000E+00 0.  1.
         11    1    4    4    0    0 -0.85037026754E+02 -0.10360801302E+03  0.55557023703E+02  0.14509479372E+03  0.00000000000E+00 0. -1.
</event>
<event>
 8    1  0.6597859E-009  0.1204260E+03  0.7561462E-02  0.1242396E+00
          3   -1    0    0  501    0  0.00000000000E+00  0.00000000000E+00  0.13561403126E+03  0.13561403126E+03  0.00000000000E+00 0. -1.
         -3   -1    0    0    0  501 -0.00000000000E+00 -0.00000000000E+00 -0.11871553071E+03  0.11871553071E+03  0.00000000000E+00 0.  1.
         25    2    1    2    0    0  0.15317142810E+02 -0.52633017265E+02  0.44145316603E+02  0.14353318037E+03  0.12509242790E+03 0.  0.
         23    2    1    2    0    0 -0.15317142810E+02  0.52633017265E+02 -0.27246816056E+02  0.11079638160E+03  0.92350418622E+02 0.  0.
          5    1    3    3  502    0  0.14136451813E+02  0.40213166147E+02  0.68134679239E+01  0.43368580177E+02  0.41800000000E+01 0. -1.
         -5    1    3    3    0  502  0.11806909964E+01 -0.92846183411E+02  0.37331848679E+02  0.10016460019E+03  0.41800000000E+01 0. -1.
        -11    1    4    4    0    0  0.34211513021E+02  0.42432120524E+02 -0.25556110776E+02  0.60199894297E+02  0.00000000000E+00 0. -1.
         11    1    4    4    0    0 -0.49528655831E+02  0.10200896741E+02 -0.16907052799E+01  0.50596487300E+02  0.00000000000E+00 0.  1.
</event>
<event>
 8    1  0.6597859E-009  0.1690197E+03  0.7561462E-02  0.1178874E+00
         -2   -1    0    0    0  501 -0.00000000000E+00  0.00000000000E+00  0.11730075283E+03  0.11730075283E+03  0.00000000000E+00 0.  1.
          2   -1    0    0  501    0  0.00000000000E+00 -0.00000000000E+00 -0.35948486646E+03  0.35948486646E+03  0.00000000000E+00 0. -1.
         25    2    1    2    0    0  0.77971933480E+02 -0.12430057514E+03 -0.23489843816E+03  0.30390038285E+03  0.12509161064E+03 0.  0.
         23    2    1    2    0    0 -0.77971933480E+02  0.12430057514E+03 -0.72856754633E+01  0.17288523644E+03  0.91137086419E+02 0.  0.
          5    1    3    3  502    0  0.16993111948E+02  0.20440399116E+02 -0.75205305421E+02  0.79874189406E+02  0.41800000000E+01 0. -1.
         -5    1    3    3    0  502  0.60978821532E+02 -0.14474097425E+03 -0.15969313274E+03  0.22402619344E+03  0.41800000000E+01 0. -1.
        -11    1    4    4    0    0 -0.30885827605E+02  0.91652355964E+02  0.33720018409E+02  0.10242620925E+03  0.00000000000E+00 0.  1.
         11    1    4    4    0    0 -0.47086105874E+02  0.32648219172E+02 -0.41005693873E+02  0.70459027183E+02  0.00000000000E+00 0. -1.
</event>
<event>
 8    1  0.6597859E-009  0.6944618E+02  0.7561462E-02  0.1361987E+00
          1   -1    0    0  501    0  0.00000000000E+00  0.00000000000E+00  0.14082199557E+03  0.14082199557E+03  0.00000000000E+00 0. -1.
         -1   -1    0    0    0  501 -0.00000000000E+00 -0.00000000000E+00 -0.92835766833E+02  0.92835766833E+02  0.00000000000E+00 0.  1.
         25    2    1    2    0    0 -0.15261142548E+02  0.24530753178E+02  0.48531302065E+01  0.12847501655E+03  0.12509043401E+03 0.  0.
         23    2    1    2    0    0  0.15261142548E+02 -0.24530753178E+02  0.43133098528E+02  0.10518274585E+03  0.91478333569E+02 0.  0.
          5    1    3    3  502    0  0.42462978529E+01 -0.55611278029E+01 -0.56609139621E+02  0.57192869105E+02  0.41800000000E+01 0. -1.
         -5    1    3    3    0  502 -0.19507440401E+02  0.30091880981E+02  0.61462269827E+02  0.71282147445E+02  0.41800000000E+01 0. -1.
        -11    1    4    4    0    0  0.52645675901E+02 -0.22337730778E+02  0.34370764178E+02  0.66722491242E+02  0.00000000000E+00 0.  1.
         11    1    4    4    0    0 -0.37384533352E+02 -0.21930223997E+01  0.87623343501E+01  0.38460254608E+02  0.00000000000E+00 0. -1.
</event>
<event>
 8    1  0.6597859E-009  0.7892588E+02  0.7561462E-02  0.1332128E+00
         -3   -1    0    0    0  501 -0.00000000000E+00  0.00000000000E+00  0.15019111597E+03  0.15019111597E+03  0.00000000000E+00 0.  1.
          3   -1    0    0  501    0  0.00000000000E+00 -0.00000000000E+00 -0.87930489088E+02  0.87930489088E+02  0.00000000000E+00 0. -1.
         25    2    1    2    0    0 -0.26103677343E+02  0.50268600395E+01  0.62847846708E+02  0.14249887724E+03  0.12509758945E+03 0.  0.
         23    2    1    2    0    0  0.26103677343E+02 -0.50268600395E+01 -0.58721982521E+00  0.95622727815E+02  0.91851455921E+02 0.  0.
          5    1    3    3  502    0  0.27276513903E+02 -0.33036932602E+02  0.63602860476E+02  0.76800022052E+02  0.41800000000E+01 0. -1.
         -5    1    3    3    0  502 -0.53380191246E+02  0.38063792642E+02 -0.75501376770E+00  0.65698855192E+02  0.41800000000E+01 0. -1.
        -11    1    4    4    0    0 -0.14221341863E+01 -0.18437887497E+02 -0.40966602562E+02  0.44947087631E+02  0.00000000000E+00 0. -1.
         11    1    4    4    0    0  0.27525811529E+02  0.13411027457E+02  0.40379382737E+02  0.50675640184E+02  0.00000000000E+00 0.  1.
</event>
<event>
 8    1  0.6597859E-009  0.2697584E+03  0.7561462E-02  0.1101418E+00
         -3   -1    0    0    0  501 -0.00000000000E+00  0.00000000000E+00  0.40167972997E+03  0.40167972997E+03  0.00000000000E+00 0.  1.
          3   -1    0    0  501    0  0.00000000000E+00 -0.00000000000E+00 -0.22409166528E+03  0.22409166528E+03  0.00000000000E+00 0. -1.
         25    2    1    2    0    0  0.17164662710E+03  0.18047935845E+03 -0.41912037162E+02  0.28184777045E+03  0.12508470501E+03 0.  0.
         23    2    1    2    0    0 -0.17164662710E+03 -0.18047935845E+03  0.21950010185E+03  0.34392362481E+03  0.89820941705E+02 0.  0.
          5    1    3    3  502    0  0.25730811691E+02  0.10984566927E+03 -0.39677090126E+02  0.11966574117E+03  0.41800000000E+01 0.  1.
         -5    1    3    3    0  502  0.14591581541E+03  0.70633689172E+02 -0.22349470356E+01  0.16218202928E+03  0.41800000000E+01 0.  1.
        -11    1    4    4    0    0 -0.12484512691E+03 -0.66967297530E+02  0.12595292906E+03  0.18956546361E+03  0.00000000000E+00 0. -1.
         11    1    4    4    0    0 -0.46801500186E+02 -0.11351206092E+03  0.93547172789E+02  0.15435816120E+03  0.00000000000E+00 0.  1.
</event>
<event>
 8    1  0.6597859E-009  0.1328698E+03  0.7561462E-02  0.1223259E+00
         -1   -1    0    0    0  501 -0.00000000000E+00  0.00000000000E+00  0.30107238914E+02  0.30107238914E+02  0.00000000000E+00 0.  1.
          1   -1    0    0  501    0  0.00000000000E+00 -0.00000000000E+00 -0.73554619542E+03  0.73554619542E+03  0.00000000000E+00 0. -1.
         25    2    1    2    0    0 -0.10336127085E+03  0.16615224907E+02 -0.34167650663E+03  0.37861471765E+03  0.12508657491E+03 0.  0.
         23    2    1    2    0    0  0.10336127085E+03 -0.16615224907E+02 -0.36376244987E+03  0.38703871669E+03  0.80723170566E+02 0.  0.
          5    1    3    3  502    0 -0.59104309969E+02 -0.35176283969E+02 -0.27386911502E+03  0.28240477151E+03  0.41800000000E+01 0.  1.
         -5    1    3    3    0  502 -0.44256960883E+02  0.51791508877E+02 -0.67807391617E+02  0.96209946140E+02  0.41800000000E+01 0.  1.
        -11    1    4    4    0    0  0.13391163987E+01 -0.26084307702E+02 -0.11642431551E+03  0.11931808573E+03  0.00000000000E+00 0. -1.
         11    1    4    4    0    0  0.10202215445E+03  0.94690827941E+01 -0.24733813436E+03  0.26772063095E+03  0.00000000000E+00 0.  1.
</event>
<event>
 8    1  0.6597859E-009  0.1125876E+03  0.7561462E-02  0.1255852E+00
          1   -1    0    0  501    0  0.00000000000E+00  0.00000000000E+00  0.33237405052E+03  0.33237405052E+03  0.00000000000E+00 0. -1.
         -1   -1    0    0    0  501 -0.00000000000E+00 -0.00000000000E+00 -0.46639542332E+02  0.46639542332E+02  0.00000000000E+00 0.  1.
         25    2    1    2    0    0  0.39500272378E+01  0.51262249300E+02  0.20927893462E+03  0.24917592206E+03  0.12509015445E+03 0.  0.
         23    2    1    2    0    0 -0.39500272378E+01 -0.51262249300E+02  0.76455573563E+02  0.12983767079E+03  0.91481938702E+02 0.  0.
          5    1    3    3  502    0 -0.59810546516E+02  0.31647206692E+02  0.93579599988E+02  0.11555717676E+03  0.41800000000E+01 0.  1.
         -5    1    3    3    0  502  0.63760573754E+02  0.19615042607E+02  0.11569933463E+03  0.13361874530E+03  0.41800000000E+01 0.  1.
        -11    1    4    4    0    0 -0.27109145556E+02  0.68674403503E+01 -0.36358785879E+01  0.28200835499E+02  0.00000000000E+00 0.  1.
         11    1    4    4    0    0  0.23159118318E+02 -0.58129689650E+02  0.80091452151E+02  0.10163683529E+03  0.00000000000E+00 0. -1.
</event>
<event>
 8    1  0.6597859E-009  0.1274197E+03  0.7561462E-02  0.1231335E+00
          2   -1    0    0  501    0  0.00000000000E+00  0.00000000000E+00  0.34454987941E+03  0.34454987941E+03  0.00000000000E+00 0. -1.
         -2   -1    0    0    0  501 -0.00000000000E+00 -0.00000000000E+00 -0.48163754375E+02  0.48163754375E+02  0.00000000000E+00 0.  1.
         25    2    1    2    0    0 -0.73946824190E+02 -0.30731465458E+02  0.18969932635E+03  0.24092710393E+03  0.12508988453E+03 0.  0.
         23    2    1    2    0    0  0.73946824190E+02  0.30731465458E+02  0.10668679869E+03  0.15178652986E+03  0.72419071079E+02 0.  0.
          5    1    3    3  502    0  0.32003506613E+02 -0.26119345026E+02  0.42086215062E+02  0.59119933342E+02  0.41800000000E+01 0.  1.
         -5    1    3    3    0  502 -0.10595033080E+03 -0.46121204323E+01  0.14761311129E+03  0.18180717059E+03  0.41800000000E+01 0.  1.
        -11    1    4    4    0    0  0.20505523586E+02  0.47037497803E+02  0.60213357870E+02  0.79111637343E+02  0.00000000000E+00 0. -1.
         11    1    4    4    0    0  0.53441300603E+02 -0.16306032345E+02  0.46473440817E+02  0.72674892517E+02  0.00000000000E+00 0.  1.
</event>
<event>
 8    1  0.6597859E-009  0.1135867E+03  0.7561462E-02  0.1254068E+00
         -2   -1    0    0    0  501 -0.00000000000E+00  0.00000000000E+00  0.13326767645E+03  0.13326767645E+03  0.00000000000E+00 0.  1.
          2   -1    0    0  501    0  0.00000000000E+00 -0.00000000000E+00 -0.15335667720E+03  0.15335667720E+03  0.00000000000E+00 0. -1.
         25    2    1    2    0    0 -0.14898646851E+02 -0.73552493770E+02  0.43216076509E+02  0.15214130848E+03  0.12508960572E+03 0.  0.
         23    2    1    2    0    0  0.14898646851E+02  0.73552493770E+02 -0.63305077261E+02  0.13448304516E+03  0.91903305771E+02 0.  0.
          5    1    3    3  502    0  0.39575856317E+02  0.13485495254E+02  0.21120265935E+02  0.47028130078E+02  0.41800000000E+01 0. -1.
         -5    1    3    3    0  502 -0.54474503169E+02 -0.87037989025E+02  0.22095810574E+02  0.10511317840E+03  0.41800000000E+01 0. -1.
        -11    1    4    4    0    0 -0.11104727556E+02  0.23108062412E+02  0.20804883861E+02  0.33017279037E+02  0.00000000000E+00 0.  1.
         11    1    4    4    0    0  0.26003374408E+02  0.50444431358E+02 -0.84109961122E+02  0.10146576613E+03  0.00000000000E+00 0. -1.
</event>
<event>
 8    1  0.6597859E-009  0.1838755E+03  0.7561462E-02  0.1164104E+00
         -2   -1    0    0    0  501 -0.00000000000E+00  0.00000000000E+00  0.36761231719E+02  0.36761231719E+02  0.00000000000E+00 0.  1.
          2   -1    0    0  501    0  0.00000000000E+00 -0.00000000000E+00 -0.12464138561E+04  0.12464138561E+04  0.00000000000E+00 0. -1.
         25    2    1    2    0    0  0.44384948738E+02  0.16141178600E+03 -0.85569940945E+03  0.88084800637E+03  0.12509173698E+03 0.  0.
         23    2    1    2    0    0 -0.44384948738E+02 -0.16141178600E+03 -0.35395321489E+03  0.40232708141E+03  0.92522504121E+02 0.  0.
          5    1    3    3  502    0  0.54201853656E+02  0.88762793328E+02 -0.25128309048E+03  0.27198775410E+03  0.41800000000E+01 0.  1.
         -5    1    3    3    0  502 -0.98169049173E+01  0.72648992673E+02 -0.60441631897E+03  0.60886025227E+03  0.41800000000E+01 0.  1.
        -11    1    4    4    0    0  0.19440609748E+02 -0.99268050130E+02 -0.20893863106E+03  0.23213667232E+03  0.00000000000E+00 0. -1.
         11    1    4    4    0    0 -0.63825558486E+02 -0.62143735872E+02 -0.14501458383E+03  0.17019040909E+03  0.00000000000E+00 0.  1.
</event>
<event>
 8    1  0.6597859E-009  0.1070631E+03  0.7561462E-02  0.1266107E+00
          1   -1    0    0  501    0  0.00000000000E+00  0.00000000000E+00  0.14097325805E+03  0.14097325805E+03  0.00000000000E+00 0. -1.
         -1   -1    0    0    0  501 -0.00000000000E+00 -0.00000000000E+00 -0.10466381107E+03  0.10466381107E+03  0.00000000000E+00 0.  1.
         25    2    1    2    0    0 -0.38224651998E+02  0.32260084226E+02  0.42332732607E+02  0.14121412915E+03  0.12509009940E+03 0.  0.
         23    2    1    2    0    0  0.38224651998E+02 -0.32260084226E+02 -0.60232856281E+01  0.10442293997E+03  0.91466023021E+02 0.  0.
          5    1    3    3  502    0 -0.24985168740E+02  0.77968612707E+02  0.79676081643E+01  0.82366973990E+02  0.41800000000E+01 0.  1.
         -5    1    3    3    0  502 -0.13239483258E+02 -0.45708528481E+02  0.34365124442E+02  0.58847155163E+02  0.41800000000E+01 0.  1.
        -11    1    4    4    0    0 -0.13353723275E+02 -0.29895589314E+02  0.27586909408E+02  0.42814784321E+02  0.00000000000E+00 0. -1.
         11    1    4    4    0    0  0.51578375273E+02 -0.23644949113E+01 -0.33610195036E+02  0.61608155648E+02  0.00000000000E+00 0.  1.
</event>
<event>
 8    1  0.6597859E-009  0.1516916E+03  0.7561462E-02  0.1198410E+00
         -2   -1    0    0    0  501 -0.00000000000E+00  0.00000000000E+00  0.31741844917E+02  0.31741844917E+02  0.00000000000E+00 0.  1.
          2   -1    0    0  501    0  0.00000000000E+00 -0.00000000000E+00 -0.95688654806E+03  0.95688654806E+03  0.00000000000E+00 0. -1.
         25    2    1    2    0    0  0.12218981027E+03  0.45402659737E+02 -0.59388646449E+03  0.62075831467E+03  0.12509197127E+03 0.  0.
         23    2    1    2    0    0 -0.12218981027E+03 -0.45402659737E+02 -0.33125823865E+03  0.36787007831E+03  0.92761104976E+02 0.  0.
          5    1    3    3  502    0  0.57854128303E+02  0.80721393395E+02 -0.42668568552E+03  0.43811093360E+03  0.41800000000E+01 0. -1.
         -5    1    3    3    0  502  0.64335681967E+02 -0.35318733658E+02 -0.16720077897E+03  0.18264738107E+03  0.41800000000E+01 0. -1.
        -11    1    4    4    0    0 -0.26103231010E+02 -0.12156091347E+02 -0.93325453460E+01  0.30269549528E+02  0.00000000000E+00 0.  1.
         11    1    4    4    0    0 -0.96086579260E+02 -0.33246568389E+02 -0.32192569330E+03  0.33760052878E+03  0.00000000000E+00 0. -1.
</event>
<event>
 8    1  0.6597859E-009  0.1409319E+03  0.7561462E-02  0.1212081E+00
          1   -1    0    0  501    0  0.00000000000E+00  0.00000000000E+00  0.12238446711E+04  0.12238446711E+04  0.00000000000E+00 0. -1.
         -1   -1    0    0    0  501 -0.00000000000E+00 -0.00000000000E+00 -0.22632708499E+02  0.22632708499E+02  0.00000000000E+00 0.  1.
         25    2    1    2    0    0 -0.10528265832E+03  0.50588272630E+02  0.81356611530E+03  0.83137292661E+03  0.12508999826E+03 0.  0.
         23    2    1    2    0    0  0.10528265832E+03 -0.50588272630E+02  0.38764584734E+03  0.41510445303E+03  0.91644926178E+02 0.  0.
          5    1    3    3  502    0 -0.47401357356E+02 -0.28822618421E+02  0.13975614838E+03  0.15042235679E+03  0.41800000000E+01 0.  1.
         -5    1    3    3    0  502 -0.57881300962E+02  0.79410891051E+02  0.67380996692E+03  0.68095056983E+03  0.41800000000E+01 0.  1.
        -11    1    4    4    0    0  0.23269826643E+02 -0.38485484523E+02  0.25313363487E+03  0.25709775272E+03  0.00000000000E+00 0.  1.
         11    1    4    4    0    0  0.82012831675E+02 -0.12102788107E+02  0.13451221248E+03  0.15800670032E+03  0.00000000000E+00 0. -1.
</event>
<event>
 8    1  0.6597859E-009  0.1893838E+03  0.7561462E-02  0.1159018E+00
          2   -1    0    0  501    0  0.00000000000E+00  0.00000000000E+00  0.57251862418E+03  0.57251862418E+03  0.00000000000E+00 0.  1.
         -2   -1    0    0    0  501 -0.00000000000E+00 -0.00000000000E+00 -0.77038054425E+02  0.77038054425E+02  0.00000000000E+00 0. -1.
         25    2    1    2    0    0 -0.15690691841E+03 -0.61752984589E+02  0.16058669046E+03  0.26432816314E+03  0.12509228803E+03 0.  0.
         23    2    1    2    0    0  0.15690691841E+03  0.61752984589E+02  0.33489387930E+03  0.38522851547E+03  0.88396191052E+02 0.  0.
          5    1    3    3  502    0 -0.23447537659E+02  0.36889438883E+02  0.35591366589E+02  0.56522875891E+02  0.41800000000E+01 0. -1.
         -5    1    3    3    0  502 -0.13345938075E+03 -0.98642423472E+02  0.12499532387E+03  0.20780528725E+03  0.41800000000E+01 0. -1.
        -11    1    4    4    0    0  0.31917042359E+02  0.16401254065E+02  0.15170657317E+02  0.38959563284E+02  0.00000000000E+00 0. -1.
         11    1    4    4    0    0  0.12498987605E+03  0.45351730525E+02  0.31972322198E+03  0.34626895219E+03  0.00000000000E+00 0.  1.
</event>
<event>
 8    1  0.6597859E-009  0.1486223E+03  0.7561462E-02  0.1202176E+00
         -2   -1    0    0    0  501 -0.00000000000E+00  0.00000000000E+00  0.49813548469E+02  0.49813548469E+02  0.00000000000E+00 0.  1.
          2   -1    0    0  501    0  0.00000000000E+00 -0.00000000000E+00 -0.59356389872E+03  0.59356389872E+03  0.00000000000E+00 0. -1.
         25    2    1    2    0    0  0.11690603469E+03  0.17375227473E+02 -0.17451350142E+03  0.24509182455E+03  0.12508445469E+03 0.  0.
         23    2    1    2    0    0 -0.11690603469E+03 -0.17375227473E+02 -0.36923684882E+03  0.39828562264E+03  0.91250573667E+02 0.  0.
          5    1    3    3  502    0  0.37016023738E+02  0.57680485455E+02 -0.29700137030E+02  0.74811730065E+02  0.41800000000E+01 0. -1.
         -5    1    3    3    0  502  0.79890010949E+02 -0.40305257982E+02 -0.14481336439E+03  0.17028009448E+03  0.41800000000E+01 0. -1.
        -11    1    4    4    0    0 -0.66157063721E+02 -0.46149610078E+02 -0.13839892526E+03  0.16018990637E+03  0.00000000000E+00 0.  1.
         11    1    4    4    0    0 -0.50748970966E+02  0.28774382605E+02 -0.23083792357E+03  0.23809571627E+03  0.00000000000E+00 0. -1.
</event>
<event>
 8    1  0.6597859E-009  0.7075383E+02  0.7561462E-02  0.1357548E+00
         -1   -1    0    0    0  501 -0.00000000000E+00  0.00000000000E+00  0.23831349821E+02  0.23831349821E+02  0.00000000000E+00 0.  1.
          1   -1    0    0  501    0  0.00000000000E+00 -0.00000000000E+00 -0.60332032504E+03  0.60332032504E+03  0.00000000000E+00 0. -1.
         25    2    1    2    0    0  0.33071246435E+02  0.28589071088E+02 -0.27234399055E+03  0.30286910259E+03  0.12508957506E+03 0.  0.
         23    2    1    2    0    0 -0.33071246435E+02 -0.28589071088E+02 -0.30714498467E+03  0.32428257227E+03  0.94393340577E+02 0.  0.
          5    1    3    3  502    0  0.22137751988E+02 -0.71928234451E+01  0.39889707832E+01  0.23983349643E+02  0.41800000000E+01 0. -1.
         -5    1    3    3    0  502  0.10933494447E+02  0.35781894534E+02 -0.27633296133E+03  0.27888575295E+03  0.41800000000E+01 0. -1.
        -11    1    4    4    0    0 -0.50837445022E+02 -0.55829822526E+01 -0.27959359644E+03  0.28423264182E+03  0.00000000000E+00 0. -1.
         11    1    4    4    0    0  0.17766198588E+02 -0.23006088836E+02 -0.27551388236E+02  0.40049930456E+02  0.00000000000E+00 0.  1.
</event>
<event>
 8    1  0.6597859E-009  0.1024920E+03  0.7561462E-02  0.1275141E+00
         -2   -1    0    0    0  501 -0.00000000000E+00  0.00000000000E+00  0.60940468949E+02  0.60940468949E+02  0.00000000000E+00 0.  1.
          2   -1    0    0  501    0  0.00000000000E+00 -0.00000000000E+00 -0.25949407732E+03  0.25949407732E+03  0.00000000000E+00 0. -1.
         25    2    1    2    0    0  0.17013400647E+02  0.61344537594E+02 -0.11697014929E+03  0.18270611182E+03  0.12508756684E+03 0.  0.
         23    2    1    2    0    0 -0.17013400647E+02 -0.61344537594E+02 -0.81583459085E+02  0.13772843445E+03  0.90888133247E+02 0.  0.
          5    1    3    3  502    0 -0.20306059906E+02 -0.26714753744E+02 -0.66218526584E+02  0.74353075252E+02  0.41800000000E+01 0. -1.
         -5    1    3    3    0  502  0.37319460554E+02  0.88059291337E+02 -0.50751622702E+02  0.10835303657E+03  0.41800000000E+01 0. -1.
        -11    1    4    4    0    0 -0.25120410437E+02 -0.16941653057E+02  0.12966325081E+02  0.32957248291E+02  0.00000000000E+00 0.  1.
         11    1    4    4    0    0  0.81070097895E+01 -0.44402884536E+02 -0.94549784166E+02  0.10477118616E+03  0.00000000000E+00 0. -1.
</event>
<event>
 8    1  0.6597859E-009  0.1280981E+03  0.7561462E-02  0.1230305E+00
         -1   -1    0    0    0  501 -0.00000000000E+00  0.00000000000E+00  0.41952452441E+02  0.41952452441E+02  0.00000000000E+00 0.  1.
          1   -1    0    0  501    0  0.00000000000E+00 -0.00000000000E+00 -0.64800278448E+03  0.64800278448E+03  0.00000000000E+00 0. -1.
         25    2    1    2    0    0 -0.10224186937E+03 -0.66003521985E+02 -0.37263949092E+03  0.41148124744E+03  0.12508701787E+03 0.  0.
         23    2    1    2    0    0  0.10224186937E+03  0.66003521985E+02 -0.23341084113E+03  0.27847398948E+03  0.90869561987E+02 0.  0.
          5    1    3    3  502    0 -0.78846769382E+02 -0.33901421696E+02 -0.84252792353E+02  0.12034170040E+03  0.41800000000E+01 0.  1.
         -5    1    3    3    0  502 -0.23395099989E+02 -0.32102100289E+02 -0.28838669856E+03  0.29113954705E+03  0.41800000000E+01 0.  1.
        -11    1    4    4    0    0  0.44567820186E+02  0.56359497905E+02 -0.54307168623E+02  0.90066376434E+02  0.00000000000E+00 0.  1.
         11    1    4    4    0    0  0.57674049185E+02  0.96440240799E+01 -0.17910367250E+03  0.18840761305E+03  0.00000000000E+00 0. -1.
</event>
<event>
 8    1  0.6597859E-009  0.1050129E+03  0.7561462E-02  0.1270094E+00
          1   -1    0    0  501    0  0.00000000000E+00  0.00000000000E+00  0.47465677002E+03  0.47465677002E+03  0.00000000000E+00 0. -1.
         -1   -1    0    0    0  501 -0.00000000000E+00 -0.00000000000E+00 -0.27512243154E+02  0.27512243154E+02  0.00000000000E+00 0.  1.
         25    2    1    2    0    0  0.24676139948E+02 -0.42238044038E+01  0.21176249752E+03  0.24721989363E+03  0.12509023960E+03 0.  0.
         23    2    1    2    0    0 -0.24676139948E+02  0.42238044038E+01  0.23538202934E+03  0.25494911954E+03  0.94697420298E+02 0.  0.
          5    1    3    3  502    0 -0.95080818278E+01 -0.52227053427E+02  0.43090522038E+02  0.68500614736E+02  0.41800000000E+01 0. -1.
         -5    1    3    3    0  502  0.34184221776E+02  0.48003249023E+02  0.16867197548E+03  0.17871927890E+03  0.41800000000E+01 0. -1.
        -11    1    4    4    0    0 -0.35177980268E+02 -0.39404443624E+02  0.13636018844E+03  0.14623372205E+03  0.00000000000E+00 0. -1.
         11    1    4    4    0    0  0.10501840320E+02  0.43628248028E+02  0.99021840906E+02  0.10871539749E+03  0.00000000000E+00 0.  1.
</event>
<event>
 8    1  0.6597859E-009  0.1873982E+03  0.7561462E-02  0.1160829E+00
         -1   -1    0    0    0  501 -0.00000000000E+00  0.00000000000E+00  0.12592858171E+03  0.12592858171E+03  0.00000000000E+00 0.  1.
          1   -1    0    0  501    0  0.00000000000E+00 -0.00000000000E+00 -0.33111279941E+03  0.33111279941E+03  0.00000000000E+00 0. -1.
         25    2    1    2    0    0 -0.82038448858E+02  0.14375248491E+03 -0.14995491654E+03  0.25598848635E+03  0.12509414113E+03 0.  0.
         23    2    1    2    0    0  0.82038448858E+02 -0.14375248491E+03 -0.55229301168E+02  0.20105289477E+03  0.99884467149E+02 0.  0.
          5    1    3    3  502    0 -0.39361090927E+02  0.15485934183E+03 -0.97077236968E+02  0.18700848529E+03  0.41800000000E+01 0.  1.
         -5    1    3    3    0  502 -0.42677357931E+02 -0.11106856924E+02 -0.52877679568E+02  0.68980001067E+02  0.41800000000E+01 0.  1.
        -11    1    4    4    0    0 -0.36341870546E+01 -0.18873358415E+02 -0.45390300736E+02  0.49291889539E+02  0.00000000000E+00 0. -1.
         11    1    4    4    0    0  0.85672635912E+02 -0.12487912649E+03 -0.98390004325E+01  0.15176100523E+03  0.00000000000E+00 0.  1.
</event>
<event>
 8    1  0.6597859E-009  0.1609488E+03  0.7561462E-02  0.1187630E+00
         -2   -1    0    0    0  501 -0.00000000000E+00  0.00000000000E+00  0.13926672521E+02  0.13926672521E+02  0.00000000000E+00 0.  1.
          2   -1    0    0  501    0  0.00000000000E+00 -0.00000000000E+00 -0.31048949323E+04  0.31048949323E+04  0.00000000000E+00 0. -1.
         25    2    1    2    0    0  0.49807636861E+02 -0.14162552705E+03 -0.23228785189E+04  0.23310834260E+04  0.12508690874E+03 0.  0.
         23    2    1    2    0    0 -0.49807636861E+02  0.14162552705E+03 -0.76808974089E+03  0.78773817884E+03  0.89615834248E+02 0.  0.
          5    1    3    3  502    0  0.12741749790E+02 -0.14563685852E+02 -0.42735809020E+02  0.47098565858E+02  0.41800000000E+01 0.  1.
         -5    1    3    3    0  502  0.37065887070E+02 -0.12706184120E+03 -0.22801427099E+04  0.22839848601E+04  0.41800000000E+01 0.  1.
        -11    1    4    4    0    0 -0.47654191600E+02  0.15188925206E+03 -0.75100730656E+03  0.76769345534E+03  0.00000000000E+00 0. -1.
         11    1    4    4    0    0 -0.21534452601E+01 -0.10263725013E+02 -0.17082434325E+02  0.20044723498E+02  0.00000000000E+00 0.  1.
</event>
<event>
 8    1  0.6597859E-009  0.1208773E+03  0.7561462E-02  0.1241657E+00
         -1   -1    0    0    0  501 -0.00000000000E+00  0.00000000000E+00  0.56419195401E+02  0.56419195401E+02  0.00000000000E+00 0.  1.
          1   -1    0    0  501    0  0.00000000000E+00 -0.00000000000E+00 -0.36946129312E+03  0.36946129312E+03  0.00000000000E+00 0. -1.
         25    2    1    2    0    0 -0.37166256657E+02  0.87521230611E+02 -0.15297491409E+03  0.21928894779E+03  0.12508006173E+03 0.  0.
         23    2    1    2    0    0  0.37166256657E+02 -0.87521230611E+02 -0.16006718362E+03  0.20659154072E+03  0.89539181277E+02 0.  0.
          5    1    3    3  502    0  0.30017634633E+02 -0.68360422272E+00 -0.45925705036E-02  0.30314981854E+02  0.41800000000E+01 0. -1.
         -5    1    3    3    0  502 -0.67183891290E+02  0.88204834834E+02 -0.15297032152E+03  0.18897396594E+03  0.41800000000E+01 0. -1.
        -11    1    4    4    0    0  0.21801515045E+02 -0.15271156604E+02  0.37598885548E+01  0.26882169634E+02  0.00000000000E+00 0.  1.
         11    1    4    4    0    0  0.15364741612E+02 -0.72250074008E+02 -0.16382707218E+03  0.17970937109E+03  0.00000000000E+00 0. -1.
</event>
<event>
 7    1  0.6597859E-009  0.1159644E+03  0.7561462E-02  0.1249907E+00
          2   -1    0    0  501    0  0.00000000000E+00  0.00000000000E+00  0.10654254060E+03  0.10654254060E+03  0.00000000000E+00 0. -1.
         -2   -1    0    0    0  501 -0.00000000000E+00 -0.00000000000E+00 -0.18092803905E+03  0.18092803905E+03  0.00000000000E+00 0.  1.
         23    2    1    2    0    0 -0.39604630459E+02  0.25535081451E+02 -0.10848014494E+03  0.14966914224E+03  0.91718826601E+02 0.  0.
          5    1    1    2  502    0 -0.30675392004E+02 -0.46098791878E+02 -0.29961864215E+01  0.55610500989E+02  0.41800000000E+01 0. -1.
         -5    1    1    2    0  502  0.70280022463E+02  0.20563710427E+02  0.37090832908E+02  0.82190936421E+02  0.41800000000E+01 0. -1.
        -11    1    3    3    0    0 -0.21321431104E+02 -0.34355584477E+02 -0.45127017157E+02  0.60591726222E+02  0.00000000000E+00 0. -1.
         11    1    3    3    0    0 -0.18283199354E+02  0.59890665927E+02 -0.63353127783E+02  0.89077416014E+02  0.00000000000E+00 0.  1.
</event>
<event>
 8    1  0.6597859E-009  0.8276676E+02  0.7561462E-02  0.1321378E+00
          2   -1    0    0  501    0  0.00000000000E+00  0.00000000000E+00  0.87292518512E+03  0.87292518512E+03  0.00000000000E+00 0. -1.
         -2   -1    0    0    0  501 -0.00000000000E+00 -0.00000000000E+00 -0.18255284738E+02  0.18255284738E+02  0.00000000000E+00 0.  1.
         25    2    1    2    0    0  0.18024966239E+02  0.39015696097E+02  0.67029278804E+03  0.68321698777E+03  0.12508359900E+03 0.  0.
         23    2    1    2    0    0 -0.18024966239E+02 -0.39015696097E+02  0.18437711235E+03  0.20796348208E+03  0.86062572433E+02 0.  0.
          5    1    3    3  502    0  0.32996950802E+02 -0.17347696021E+02  0.64547219385E+02  0.74656260620E+02  0.41800000000E+01 0. -1.
         -5    1    3    3    0  502 -0.14971984563E+02  0.56363392118E+02  0.60574556865E+03  0.60856072715E+03  0.41800000000E+01 0. -1.
        -11    1    4    4    0    0  0.15096126518E+02 -0.32446980911E+02  0.21771788538E+02  0.41889263329E+02  0.00000000000E+00 0.  1.
         11    1    4    4    0    0 -0.33121092758E+02 -0.65687151861E+01  0.16260532381E+03  0.16607421876E+03  0.00000000000E+00 0. -1.
</event>
<event>
 8    1  0.6597859E-009  0.3597011E+03  0.7561462E-02  0.1058702E+00
         -2   -1    0    0    0  501 -0.00000000000E+00  0.00000000000E+00  0.10066970146E+03  0.10066970146E+03  0.00000000000E+00 0.  1.
          2   -1    0    0  501    0  0.00000000000E+00 -0.00000000000E+00 -0.14360745660E+04  0.14360745660E+04  0.00000000000E+00 0. -1.
         25    2    1    2    0    0 -0.11882129838E+03  0.33770181374E+03 -0.53796425894E+03  0.65819038890E+03  0.12509207885E+03 0.  0.
         23    2    1    2    0    0  0.11882129838E+03 -0.33770181374E+03 -0.79744060565E+03  0.87855387861E+03  0.88229145594E+02 0.  0.
          5    1    3    3  502    0 -0.16530780065E+02  0.14907097568E+02 -0.11073760207E+03  0.11302998345E+03  0.41800000000E+01 0.  1.
         -5    1    3    3    0  502 -0.10229051832E+03  0.32279471617E+03 -0.42722665688E+03  0.54516040545E+03  0.41800000000E+01 0.  1.
        -11    1    4    4    0    0  0.79912560486E+02 -0.23970791957E+03 -0.45752354640E+03  0.52266021423E+03  0.00000000000E+00 0.  1.
         11    1    4    4    0    0  0.38908737895E+02 -0.97993894174E+02 -0.33991705924E+03  0.35589366438E+03  0.00000000000E+00 0. -1.
</event>
<event>
 8    1  0.6597859E-009  0.1121008E+03  0.7561462E-02  0.1256728E+00
         -2   -1    0    0    0  501 -0.00000000000E+00  0.00000000000E+00  0.16532371404E+02  0.16532371404E+02  0.00000000000E+00 0.  1.
          2   -1    0    0  501    0  0.00000000000E+00 -0.00000000000E+00 -0.83128408242E+03  0.83128408242E+03  0.00000000000E+00 0. -1.
         25    2    1    2    0    0 -0.38678603647E+00  0.35113636293E+02 -0.35866935935E+03  0.38147671701E+03  0.12509060406E+03 0.  0.
         23    2    1    2    0    0  0.38678603647E+00 -0.35113636293E+02 -0.45608235166E+03  0.46633973681E+03  0.90711198746E+02 0.  0.
          5    1    3    3  502    0  0.60985172758E+02  0.19999395421E+02 -0.21611770915E+03  0.22548504102E+03  0.41800000000E+01 0.  1.
         -5    1    3    3    0  502 -0.61371958795E+02  0.15114240872E+02 -0.14255165020E+03  0.15599167599E+03  0.41800000000E+01 0.  1.
        -11    1    4    4    0    0  0.35296129429E+00 -0.65826923502E+02 -0.33633197336E+03  0.34271344407E+03  0.00000000000E+00 0. -1.
         11    1    4    4    0    0  0.33824742177E-01  0.30713287209E+02 -0.11975037830E+03  0.12362629274E+03  0.00000000000E+00 0.  1.
</event>
<event>
 8    1  0.6597859E-009  0.9543154E+02  0.7561462E-02  0.1290207E+00
          3   -1    0    0  501    0  0.00000000000E+00  0.00000000000E+00  0.36536476110E+02  0.36536476110E+02  0.00000000000E+00 0. -1.
         -3   -1    0    0    0  501 -0.00000000000E+00 -0.00000000000E+00 -0.36779178781E+03  0.36779178781E+03  0.00000000000E+00 0.  1.
         25    2    1    2    0    0 -0.19600835187E+02  0.28652680064E+02 -0.22935216231E+03  0.26354197434E+03  0.12508712590E+03 0.  0.
         23    2    1    2    0    0  0.19600835187E+02 -0.28652680064E+02 -0.10190314939E+03  0.14078628958E+03  0.90726835415E+02 0.  0.
          5    1    3    3  502    0 -0.41399678968E+02  0.68815538874E+02 -0.11501805766E+03  0.14034292928E+03  0.41800000000E+01 0.  1.
         -5    1    3    3    0  502  0.21798843781E+02 -0.40162858810E+02 -0.11433410465E+03  0.12319904506E+03  0.41800000000E+01 0.  1.
        -11    1    4    4    0    0 -0.98906059512E+01  0.11224043777E+02  0.10264313152E+02  0.18142749772E+02  0.00000000000E+00 0. -1.
         11    1    4    4    0    0  0.29491441138E+02 -0.39876723842E+02 -0.11216746254E+03  0.12264353981E+03  0.00000000000E+00 0.  1.
</event>
<event>
 8    1  0.6597859E-009  0.1129746E+03  0.7561462E-02  0.1255158E+00
          1   -1    0    0  501    0  0.00000000000E+00  0.00000000000E+00  0.46241020274E+03  0.46241020274E+03  0.00000000000E+00 0. -1.
         -1   -1    0    0    0  501 -0.00000000000E+00 -0.00000000000E+00 -0.43799671562E+02  0.43799671562E+02  0.00000000000E+00 0.  1.
         25    2    1    2    0    0  0.79952702516E+02 -0.47163130143E+02  0.22984507819E+03  0.27765651031E+03  0.12509029645E+03 0.  0.
         23    2    1    2    0    0 -0.79952702516E+02  0.47163130143E+02  0.18876545299E+03  0.22855336399E+03  0.89372526344E+02 0.  0.
          5    1    3    3  502    0  0.68024883285E+02 -0.49507886961E+02  0.24423938607E+03  0.25835782498E+03  0.41800000000E+01 0.  1.
         -5    1    3    3    0  502  0.11927819230E+02  0.23447568178E+01 -0.14394307885E+02  0.19298685334E+02  0.41800000000E+01 0.  1.
        -11    1    4    4    0    0 -0.34116115674E+02  0.69833138092E+02  0.11383335554E+03  0.13783544304E+03  0.00000000000E+00 0. -1.
         11    1    4    4    0    0 -0.45836586842E+02 -0.22670007949E+02  0.74932097454E+02  0.90717920956E+02  0.00000000000E+00 0.  1.
</event>
<event>
 8    1  0.6597859E-009  0.1011684E+03  0.7561462E-02  0.1277858E+00
         -1   -1    0    0    0  501 -0.00000000000E+00  0.00000000000E+00  0.87867454377E+02  0.87867454377E+02  0.00000000000E+00 0.  1.
          1   -1    0    0  501    0  0.00000000000E+00 -0.00000000000E+00 -0.22158831679E+03  0.22158831679E+03  0.00000000000E+00 0. -1.
         25    2    1    2    0    0 -0.63935742559E+02 -0.16584041048E+02 -0.13716961196E+03  0.19704249410E+03  0.12508969758E+03 0.  0.
         23    2    1    2    0    0  0.63935742559E+02  0.16584041048E+02  0.34487495522E+01  0.11241327707E+03  0.90895772143E+02 0.  0.
          5    1    3    3  502    0 -0.49900139837E+02  0.34018145821E+02 -0.12658837646E+02  0.61846396592E+02  0.41800000000E+01 0.  1.
         -5    1    3    3    0  502 -0.14035602722E+02 -0.50602186868E+02 -0.12451077432E+03  0.13519609751E+03  0.41800000000E+01 0.  1.
        -11    1    4    4    0    0  0.74104252562E+02  0.58493209637E+01  0.31476485817E+02  0.80724370316E+02  0.00000000000E+00 0.  1.
         11    1    4    4    0    0 -0.10168510003E+02  0.10734720084E+02 -0.28027736265E+02  0.31688906751E+02  0.00000000000E+00 0. -1.
</event>
<event>
 8    1  0.6597859E-009  0.1041190E+03  0.7561462E-02  0.1271865E+00
         -4   -1    0    0    0  501 -0.00000000000E+00  0.00000000000E+00  0.54344633407E+03  0.54344633407E+03  0.00000000000E+00 0.  1.
          4   -1    0    0  501    0  0.00000000000E+00 -0.00000000000E+00 -0.28738771279E+02  0.28738771279E+02  0.00000000000E+00 0. -1.
         25    2    1    2    0    0  0.36899119163E+01 -0.53050573218E+02  0.37117828003E+03  0.39527865009E+03  0.12507564465E+03 0.  0.
         23    2    1    2    0    0 -0.36899119163E+01  0.53050573218E+02  0.14352928276E+03  0.17690645525E+03  0.88697576810E+02 0.  0.
          5    1    3    3  502    0  0.51153661397E+02  0.10492062890E+02  0.19701765873E+03  0.20386321569E+03  0.41800000000E+01 0.  1.
         -5    1    3    3    0  502 -0.47463749480E+02 -0.63542636109E+02  0.17416062130E+03  0.19141543441E+03  0.41800000000E+01 0.  1.
        -11    1    4    4    0    0 -0.19804507740E+02 -0.11956689536E+01  0.10861723533E+03  0.11041445540E+03  0.00000000000E+00 0.  1.
         11    1    4    4    0    0  0.16114595824E+02  0.54246242172E+02  0.34912047428E+02  0.66491999849E+02  0.00000000000E+00 0. -1.
</event>
<event>
 8    1  0.6597859E-009  0.1394792E+03  0.7561462E-02  0.1214031E+00
         -1   -1    0    0    0  501 -0.00000000000E+00  0.00000000000E+00  0.61785469307E+03  0.61785469307E+03  0.00000000000E+00 0.  1.
          1   -1    0    0  501    0  0.00000000000E+00 -0.00000000000E+00 -0.46842515178E+02  0.46842515178E+02  0.00000000000E+00 0. -1.
         25    2    1    2    0    0  0.11338673620E+03 -0.19987180647E+02  0.42738690489E+03  0.45995982948E+03  0.12508972351E+03 0.  0.
         23    2    1    2    0    0 -0.11338673620E+03  0.19987180647E+02  0.14362527301E+03  0.20473737878E+03  0.89627762916E+02 0.  0.
          5    1    3    3  502    0  0.45406526691E+02 -0.59188765357E+02  0.30871017178E+03  0.31762321259E+03  0.41800000000E+01 0. -1.
         -5    1    3    3    0  502  0.67980209506E+02  0.39201584710E+02  0.11867673310E+03  0.14233661689E+03  0.41800000000E+01 0. -1.
        -11    1    4    4    0    0 -0.27678445815E+02  0.28252828485E+02  0.10138922142E+03  0.10883056969E+03  0.00000000000E+00 0.  1.
         11    1    4    4    0    0 -0.85708290382E+02 -0.82656478383E+01  0.42236051594E+02  0.95906809083E+02  0.00000000000E+00 0. -1.
</event>
<event>
 8    1  0.6597859E-009  0.9838038E+02  0.7561462E-02  0.1283739E+00
         -1   -1    0    0    0  501 -0.00000000000E+00  0.00000000000E+00  0.19799914359E+03  0.19799914359E+03  0.00000000000E+00 0.  1.
          1   -1    0    0  501    0  0.00000000000E+00 -0.00000000000E+00 -0.93636294267E+02  0.93636294267E+02  0.00000000000E+00 0. -1.
         25    2    1    2    0    0 -0.57239599283E+02 -0.39165607701E+02  0.76759388736E+01  0.14323198842E+03  0.12508463502E+03 0.  0.
         23    2    1    2    0    0  0.57239599283E+02  0.39165607701E+02  0.96686910446E+02  0.14840344943E+03  0.88684319915E+02 0.  0.
          5    1    3    3  502    0  0.16175472817E+02 -0.30758977997E+01 -0.43464067859E+02  0.46665883287E+02  0.41800000000E+01 0.  1.
         -5    1    3    3    0  502 -0.73415072100E+02 -0.36089709901E+02  0.51140006733E+02  0.96566105134E+02  0.41800000000E+01 0.  1.
        -11    1    4    4    0    0  0.31119588690E+02  0.57888569722E+02  0.95896017329E+02  0.11625644689E+03  0.00000000000E+00 0. -1.
         11    1    4    4    0    0  0.26120010593E+02 -0.18722962021E+02  0.79089311652E+00  0.32147002537E+02  0.00000000000E+00 0.  1.
</event>
<event>
 8    1  0.6597859E-009  0.1377896E+03  0.7561462E-02  0.1216335E+00
          1   -1    0    0  501    0  0.00000000000E+00  0.00000000000E+00  0.67348306628E+02  0.67348306628E+02  0.00000000000E+00 0. -1.
         -1   -1    0    0    0  501 -0.00000000000E+00 -0.00000000000E+00 -0.39468195991E+03  0.39468195991E+03  0.00000000000E+00 0.  1.
         25    2    1    2    0    0  0.30239553678E+02 -0.11762146967E+03 -0.19791995889E+03  0.26376544574E+03  0.12510259591E+03 0.  0.
         23    2    1    2    0    0 -0.30239553678E+02  0.11762146967E+03 -0.12941369439E+03  0.19826482080E+03  0.88384354599E+02 0.  0.
          5    1    3    3  502    0  0.62861562482E+01 -0.82071065909E+02 -0.20423208821E+03  0.22023486072E+03  0.41800000000E+01 0. -1.
         -5    1    3    3    0  502  0.23953397430E+02 -0.35550403759E+02  0.63121293183E+01  0.43530585023E+02  0.41800000000E+01 0. -1.
        -11    1    4    4    0    0 -0.58357811288E+02  0.10303695416E+03 -0.10517264334E+03  0.15837781715E+03  0.00000000000E+00 0.  1.
         11    1    4    4    0    0  0.28118257610E+02  0.14584515512E+02 -0.24241051056E+02  0.39887003648E+02  0.00000000000E+00 0. -1.
</event>
<event>
 8    1  0.6597859E-009  0.1442324E+03  0.7561462E-02  0.1207745E+00
          1   -1    0    0  501    0  0.00000000000E+00  0.00000000000E+00  0.51133556232E+03  0.51133556232E+03  0.00000000000E+00 0. -1.
         -1   -1    0    0    0  501 -0.00000000000E+00 -0.00000000000E+00 -0.77087470815E+02  0.77087470815E+02  0.00000000000E+00 0.  1.
         25    2    1    2    0    0  0.44162229630E+02  0.10809100798E+03  0.49432475398E+02  0.17811109883E+03  0.12508407322E+03 0.  0.
         23    2    1    2    0    0 -0.44162229630E+02 -0.10809100798E+03  0.38481561611E+03  0.41031193430E+03  0.81479178309E+02 0.  0.
          5    1    3    3  502    0  0.60097019638E+02  0.11515686451E+03  0.48420602748E+01  0.13005257845E+03  0.41800000000E+01 0. -1.
         -5    1    3    3    0  502 -0.15934790007E+02 -0.70658565299E+01  0.44590415123E+02  0.48058520389E+02  0.41800000000E+01 0. -1.
        -11    1    4    4    0    0  0.11652121056E+02  0.63360307468E+01  0.20744192248E+02  0.24621915497E+02  0.00000000000E+00 0.  1.
         11    1    4    4    0    0 -0.55814350686E+02 -0.11442703873E+03  0.36407142386E+03  0.38569001881E+03  0.00000000000E+00 0. -1.
</event>
<event>
 8    1  0.6597859E-009  0.1198433E+03  0.7561462E-02  0.1243356E+00
          2   -1    0    0  501    0  0.00000000000E+00  0.00000000000E+00  0.20463750169E+03  0.20463750169E+03  0.00000000000E+00 0. -1.
         -2   -1    0    0    0  501 -0.00000000000E+00 -0.00000000000E+00 -0.15176805155E+03  0.15176805155E+03  0.00000000000E+00 0.  1.
         25    2    1    2    0    0 -0.87202738611E-02 -0.67661528230E+02  0.14954444149E+03  0.20637247813E+03  0.12509187532E+03 0.  0.
         23    2    1    2    0    0  0.87202738611E-02  0.67661528230E+02 -0.96674991353E+02  0.15003307511E+03  0.92659522964E+02 0.  0.
          5    1    3    3  502    0  0.29846376011E+02  0.22022093499E+02  0.82079188060E+02  0.90167867202E+02  0.41800000000E+01 0. -1.
         -5    1    3    3    0  502 -0.29855096285E+02 -0.89683621730E+02  0.67465253429E+02  0.11620461093E+03  0.41800000000E+01 0. -1.
        -11    1    4    4    0    0  0.76183615136E+01 -0.19145495411E+02 -0.10104473201E+01  0.20630327930E+02  0.00000000000E+00 0. -1.
         11    1    4    4    0    0 -0.76096412398E+01  0.86807023642E+02 -0.95664544033E+02  0.12940274718E+03  0.00000000000E+00 0.  1.
</event>
<event>
 8    1  0.6597859E-009  0.1249713E+03  0.7561462E-02  0.1235114E+00
          3   -1    0    0  501    0  0.00000000000E+00  0.00000000000E+00  0.56438676951E+03  0.56438676951E+03  0.00000000000E+00 0. -1.
         -3   -1    0    0    0  501 -0.00000000000E+00 -0.00000000000E+00 -0.32055725505E+02  0.32055725505E+02  0.00000000000E+00 0.  1.
         25    2    1    2    0    0 -0.46268334829E+01  0.83909028455E+02  0.28727070146E+03  0.32439805980E+03  0.12509001816E+03 0.  0.
         23    2    1    2    0    0  0.46268334829E+01 -0.83909028455E+02  0.24506034255E+03  0.27204443521E+03  0.83014881775E+02 0.  0.
          5    1    3    3  502    0 -0.55682985505E+02  0.20448494924E+02  0.67369260056E+02  0.89860032383E+02  0.41800000000E+01 0. -1.
         -5    1    3    3    0  502  0.51056152022E+02  0.63460533531E+02  0.21990144140E+03  0.23453802742E+03  0.41800000000E+01 0. -1.
        -11    1    4    4    0    0 -0.32249763555E+02 -0.33957673026E+02  0.55734975136E+02  0.72798064948E+02  0.00000000000E+00 0.  1.
         11    1    4    4    0    0  0.36876597037E+02 -0.49951355429E+02  0.18932536741E+03  0.19924637027E+03  0.00000000000E+00 0. -1.
</event>
<event>
 8    1  0.6597859E-009  0.2160358E+03  0.7561462E-02  0.1136873E+00
          1   -1    0    0  501    0  0.00000000000E+00  0.00000000000E+00  0.11981291736E+04  0.11981291736E+04  0.00000000000E+00 0. -1.
         -1   -1    0    0    0  501 -0.00000000000E+00 -0.00000000000E+00 -0.40021520893E+02  0.40021520893E+02  0.00000000000E+00 0.  1.
         25    2    1    2    0    0 -0.17047250731E+03  0.79165048113E+02  0.53593330169E+03  0.58154940737E+03  0.12508888345E+03 0.  0.
         23    2    1    2    0    0  0.17047250731E+03 -0.79165048113E+02  0.62217435098E+03  0.65660128709E+03  0.93254204140E+02 0.  0.
          5    1    3    3  502    0 -0.70411364615E+02  0.98297281872E+02  0.33600809924E+03  0.35712607164E+03  0.41800000000E+01 0. -1.
         -5    1    3    3    0  502 -0.10006114270E+03 -0.19132233758E+02  0.19992520245E+03  0.22442333573E+03  0.41800000000E+01 0. -1.
        -11    1    4    4    0    0  0.61675419167E+02 -0.79133227450E+02  0.32522361837E+03  0.34034736221E+03  0.00000000000E+00 0.  1.
         11    1    4    4    0    0  0.10879708815E+03 -0.31820663332E-01  0.29695073261E+03  0.31625392488E+03  0.00000000000E+00 0. -1.
</event>
<event>
 8    1  0.6597859E-009  0.1160091E+03  0.7561462E-02  0.1249830E+00
          2   -1    0    0  501    0  0.00000000000E+00  0.00000000000E+00  0.45827245741E+02  0.45827245741E+02  0.00000000000E+00 0. -1.
         -2   -1    0    0    0  501 -0.00000000000E+00 -0.00000000000E+00 -0.43051655304E+03  0.43051655304E+03  0.00000000000E+00 0.  1.
         25    2    1    2    0    0 -0.51764644017E+02  0.19305443641E+02 -0.32694018753E+03  0.35437924775E+03  0.12506992641E+03 0.  0.
         23    2    1    2    0    0  0.51764644017E+02 -0.19305443641E+02 -0.57749119772E+02  0.12196455103E+03  0.92130952178E+02 0.  0.
          5    1    3    3  502    0 -0.52300035124E+02  0.67767793308E+02 -0.23868530285E+03  0.25360582344E+03  0.41800000000E+01 0.  1.
         -5    1    3    3    0  502  0.53539110728E+00 -0.48462349668E+02 -0.88254884680E+02  0.10077342432E+03  0.41800000000E+01 0.  1.
        -11    1    4    4    0    0  0.72406086490E+02 -0.24401582717E+02 -0.64144057459E+02  0.99762411294E+02  0.00000000000E+00 0.  1.
         11    1    4    4    0    0 -0.20641442473E+02  0.50961390760E+01  0.63949376877E+01  0.22202139736E+02  0.00000000000E+00 0. -1.
</event>
<event>
 8    1  0.6597859E-009  0.5413120E+02  0.7561462E-02  0.1424253E+00
          2   -1    0    0  501    0  0.00000000000E+00  0.00000000000E+00  0.32301749463E+03  0.32301749463E+03  0.00000000000E+00 0.  1.
         -2   -1    0    0    0  501 -0.00000000000E+00 -0.00000000000E+00 -0.38952903965E+02  0.38952903965E+02  0.00000000000E+00 0. -1.
         25    2    1    2    0    0  0.20438645087E+02  0.27992087082E+01  0.21333978729E+03  0.24816740363E+03  0.12509045369E+03 0.  0.
         23    2    1    2    0    0 -0.20438645087E+02 -0.27992087082E+01  0.70724803374E+02  0.11380299496E+03  0.86738400183E+02 0.  0.
          5    1    3    3  502    0  0.14004893745E+02  0.42374523733E+01  0.22961411391E+03  0.23011781061E+03  0.41800000000E+01 0.  1.
         -5    1    3    3    0  502  0.64337513421E+01 -0.14382436651E+01 -0.16274326627E+02  0.18049593024E+02  0.41800000000E+01 0.  1.
        -11    1    4    4    0    0  0.31754355499E+02  0.59810226025E+01  0.11313586791E+02  0.34236077033E+02  0.00000000000E+00 0. -1.
         11    1    4    4    0    0 -0.52193000586E+02 -0.87802313107E+01  0.59411216583E+02  0.79566917924E+02  0.00000000000E+00 0.  1.
</event>
<event>
 8    1  0.6597859E-009  0.1034992E+03  0.7561462E-02  0.1273105E+00
         -4   -1    0    0    0  501 -0.00000000000E+00  0.00000000000E+00  0.77142890766E+02  0.77142890766E+02  0.00000000000E+00 0.  1.
          4   -1    0    0  501    0  0.00000000000E+00 -0.00000000000E+00 -0.22607526000E+03  0.22607526000E+03  0.00000000000E+00 0. -1.
         25    2    1    2    0    0  0.70085402094E+02 -0.21254174272E+02 -0.59748123468E+02  0.15678366022E+03  0.12509026479E+03 0.  0.
         23    2    1    2    0    0 -0.70085402094E+02  0.21254174272E+02 -0.89184245762E+02  0.14643449054E+03  0.90141704087E+02 0.  0.
          5    1    3    3  502    0  0.26314357189E+02  0.27222767212E+02  0.28029016059E+02  0.47292944402E+02  0.41800000000E+01 0. -1.
         -5    1    3    3    0  502  0.43771044905E+02 -0.48476941485E+02 -0.87777139527E+02  0.10949071582E+03  0.41800000000E+01 0. -1.
        -11    1    4    4    0    0 -0.17678270594E+02 -0.26965175373E+02  0.79138874468E-01  0.32243576059E+02  0.00000000000E+00 0.  1.
         11    1    4    4    0    0 -0.52407131500E+02  0.48219349646E+02 -0.89263384636E+02  0.11419091448E+03  0.00000000000E+00 0. -1.
</event>
<event>
 8    1  0.6597859E-009  0.1475414E+03  0.7561462E-02  0.1203527E+00
         -1   -1    0    0    0  501 -0.00000000000E+00  0.00000000000E+00  0.36652631305E+02  0.36652631305E+02  0.00000000000E+00 0.  1.
          1   -1    0    0  501    0  0.00000000000E+00 -0.00000000000E+00 -0.82706749381E+03  0.82706749381E+03  0.00000000000E+00 0. -1.
         25    2    1    2    0    0 -0.11193882133E+03  0.65492509396E+02 -0.55663999395E+03  0.58507683487E+03  0.12508897363E+03 0.  0.
         23    2    1    2    0    0  0.11193882133E+03 -0.65492509396E+02 -0.23377486855E+03  0.27864329025E+03  0.78560966925E+02 0.  0.
          5    1    3    3  502    0  0.10913173026E+02  0.76534542506E+01 -0.24148453290E+03  0.24188824845E+03  0.41800000000E+01 0.  1.
         -5    1    3    3    0  502 -0.12285199436E+03  0.57839055146E+02 -0.31515546105E+03  0.34318858642E+03  0.41800000000E+01 0.  1.
        -11    1    4    4    0    0  0.46604682468E+02  0.76068037192E+01 -0.41719566863E+02  0.63010968490E+02  0.00000000000E+00 0.  1.
         11    1    4    4    0    0  0.65334138866E+02 -0.73099313116E+02 -0.19205530169E+03  0.21563232176E+03  0.00000000000E+00 0. -1.
</event>
<event>
 8    1  0.6597859E-009  0.1076261E+03  0.7561462E-02  0.1265030E+00
         -1   -1    0    0    0  501 -0.00000000000E+00  0.00000000000E+00  0.65321359054E+02  0.65321359054E+02  0.00000000000E+00 0.  1.
          1   -1    0    0  501    0  0.00000000000E+00 -0.00000000000E+00 -0.18975853747E+03  0.18975853747E+03  0.00000000000E+00 0. -1.
         25    2    1    2    0    0 -0.15268048150E+02 -0.18339890622E+02 -0.78348685549E+02  0.14951422250E+03  0.12508605566E+03 0.  0.
         23    2    1    2    0    0  0.15268048150E+02  0.18339890622E+02 -0.46088492870E+02  0.10556567403E+03  0.91926587423E+02 0.  0.
          5    1    3    3  502    0 -0.33137293114E+01 -0.69964260586E+02 -0.25774930690E+02  0.74751575323E+02  0.41800000000E+01 0. -1.
         -5    1    3    3    0  502 -0.11954318838E+02  0.51624369963E+02 -0.52573754860E+02  0.74762647178E+02  0.41800000000E+01 0. -1.
        -11    1    4    4    0    0  0.31299649235E+02 -0.28556396759E+02 -0.34572564284E+02  0.54684531993E+02  0.00000000000E+00 0.  1.
         11    1    4    4    0    0 -0.16031601085E+02  0.46896287381E+02 -0.11515928586E+02  0.50881142034E+02  0.00000000000E+00 0. -1.
</event>
<event>
 8    1  0.6597859E-009  0.1096890E+03  0.7561462E-02  0.1261147E+00
         -2   -1    0    0    0  501 -0.00000000000E+00  0.00000000000E+00  0.76360100078E+02  0.76360100078E+02  0.00000000000E+00 0.  1.
          2   -1    0    0  501    0  0.00000000000E+00 -0.00000000000E+00 -0.32681672948E+03  0.32681672948E+03  0.00000000000E+00 0. -1.
         25    2    1    2    0    0  0.79716536384E+01  0.10807018355E+03 -0.18710877020E+03  0.24979179954E+03  0.12507413560E+03 0.  0.
         23    2    1    2    0    0 -0.79716536384E+01 -0.10807018355E+03 -0.63347859202E+02  0.15338503002E+03  0.88155001755E+02 0.  0.
          5    1    3    3  502    0  0.86315563812E+01  0.25798839839E+02 -0.16105501858E+03  0.16338994863E+03  0.41800000000E+01 0.  1.
         -5    1    3    3    0  502 -0.65990274277E+00  0.82271343710E+02 -0.26053751620E+02  0.86401850911E+02  0.41800000000E+01 0.  1.
        -11    1    4    4    0    0 -0.12534956301E+02 -0.88232443571E+02 -0.24249456848E+01  0.89151385797E+02  0.00000000000E+00 0.  1.
         11    1    4    4    0    0  0.45633026628E+01 -0.19837739978E+02 -0.60922913517E+02  0.64233644222E+02  0.00000000000E+00 0. -1.
</event>
<event>
 8    1  0.6597859E-009  0.1036784E+03  0.7561462E-02  0.1272746E+00
          1   -1    0    0  501    0  0.00000000000E+00  0.00000000000E+00  0.86451707536E+02  0.86451707536E+02  0.00000000000E+00 0. -1.
         -1   -1    0    0    0  501 -0.00000000000E+00 -0.00000000000E+00 -0.22139114633E+03  0.22139114633E+03  0.00000000000E+00 0.  1.
         25    2    1    2    0    0  0.84356468914E+02 -0.63528588642E+01 -0.88655416333E+02  0.17510680178E+03  0.12508491724E+03 0.  0.
         23    2    1    2    0    0 -0.84356468914E+02  0.63528588642E+01 -0.46284022456E+02  0.13273605208E+03  0.91215547599E+02 0.  0.
          5    1    3    3  502    0  0.35683047933E+02 -0.50069844935E+00  0.29901914989E+02  0.46745347670E+02  0.41800000000E+01 0.  1.
         -5    1    3    3    0  502  0.48673420981E+02 -0.58521604148E+01 -0.11855733132E+03  0.12836145411E+03  0.41800000000E+01 0.  1.
        -11    1    4    4    0    0  0.17959720963E+02  0.85358703418E+01  0.11916960720E+01  0.19920662617E+02  0.00000000000E+00 0. -1.
         11    1    4    4    0    0 -0.10231618988E+03 -0.21830114776E+01 -0.47475718528E+02  0.11281538946E+03  0.00000000000E+00 0.  1.
</event>
<event>
 8    1  0.6597859E-009  0.1935751E+03  0.7561462E-02  0.1155276E+00
         -1   -1    0    0    0  501 -0.00000000000E+00  0.00000000000E+00  0.71288950044E+03  0.71288950044E+03  0.00000000000E+00 0. -1.
          1   -1    0    0  501    0  0.00000000000E+00 -0.00000000000E+00 -0.57746622274E+02  0.57746622274E+02  0.00000000000E+00 0.  1.
         25    2    1    2    0    0 -0.14860468527E+03  0.83016365438E+02  0.30870763817E+03  0.37406238781E+03  0.12508874727E+03 0.  0.
         23    2    1    2    0    0  0.14860468527E+03 -0.83016365438E+02  0.34643524000E+03  0.39657373491E+03  0.90985066294E+02 0.  0.
          5    1    3    3  502    0 -0.14410504744E+03  0.10195488037E+03  0.21476571726E+03  0.27803389729E+03  0.41800000000E+01 0.  1.
         -5    1    3    3    0  502 -0.44996378398E+01 -0.18938514936E+02  0.93941920902E+02  0.96028490520E+02  0.41800000000E+01 0.  1.
        -11    1    4    4    0    0  0.91302026383E+02 -0.95389968424E+02  0.20980798720E+03  0.24790058006E+03  0.00000000000E+00 0.  1.
         11    1    4    4    0    0  0.57302658892E+02  0.12373602986E+02  0.13662725280E+03  0.14867315485E+03  0.00000000000E+00 0. -1.
</event>
<event>
 8    1  0.6597859E-009  0.1699178E+03  0.7561462E-02  0.1177934E+00
          1   -1    0    0  501    0  0.00000000000E+00  0.00000000000E+00  0.61720723060E+03  0.61720723060E+03  0.00000000000E+00 0. -1.
         -1   -1    0    0    0  501 -0.00000000000E+00 -0.00000000000E+00 -0.51861943027E+02  0.51861943027E+02  0.00000000000E+00 0.  1.
         25    2    1    2    0    0  0.52079553349E+02  0.11854814378E+03  0.19515188697E+03  0.26551619505E+03  0.12509455853E+03 0.  0.
         23    2    1    2    0    0 -0.52079553349E+02 -0.11854814378E+03  0.37019340060E+03  0.40355297858E+03  0.95109991059E+02 0.  0.
          5    1    3    3  502    0  0.54992509819E+02 -0.59005908178E+01  0.58236450394E+02  0.80423564101E+02  0.41800000000E+01 0. -1.
         -5    1    3    3    0  502 -0.29129564703E+01  0.12444873460E+03  0.13691543658E+03  0.18509263095E+03  0.41800000000E+01 0. -1.
        -11    1    4    4    0    0 -0.79118615238E+02 -0.78173998711E+02  0.23785556391E+03  0.26257608161E+03  0.00000000000E+00 0.  1.
         11    1    4    4    0    0  0.27039061890E+02 -0.40374145069E+02  0.13233783669E+03  0.14097689696E+03  0.00000000000E+00 0. -1.
</event>
<event>
 8    1  0.6597859E-009  0.1353112E+03  0.7561462E-02  0.1219781E+00
          1   -1    0    0  501    0  0.00000000000E+00  0.00000000000E+00  0.27155578539E+03  0.27155578539E+03  0.00000000000E+00 0. -1.
         -1   -1    0    0    0  501 -0.00000000000E+00 -0.00000000000E+00 -0.82197251822E+02  0.82197251822E+02  0.00000000000E+00 0.  1.
         25    2    1    2    0    0 -0.37042946734E+02  0.73238598173E+02  0.29629012439E+02  0.15251709653E+03  0.12509002435E+03 0.  0.
         23    2    1    2    0    0  0.37042946734E+02 -0.73238598173E+02  0.15972952113E+03  0.20123594068E+03  0.90809205129E+02 0.  0.
          5    1    3    3  502    0  0.28483755975E+02 -0.19997656568E+02  0.16126296859E+01  0.35089935839E+02  0.41800000000E+01 0. -1.
         -5    1    3    3    0  502 -0.65526702709E+02  0.93236254741E+02  0.28016382753E+02  0.11742716069E+03  0.41800000000E+01 0. -1.
        -11    1    4    4    0    0 -0.98970517646E+01 -0.73928948669E+02  0.10943245178E+03  0.13243452188E+03  0.00000000000E+00 0. -1.
         11    1    4    4    0    0  0.46939998498E+02  0.69035049581E+00  0.50297069354E+02  0.68801418797E+02  0.00000000000E+00 0.  1.
</event>
<event>
 8    1  0.6597859E-009  0.9324535E+02  0.7561462E-02  0.1295178E+00
         -1   -1    0    0    0  501 -0.00000000000E+00  0.00000000000E+00  0.10627197704E+03  0.10627197704E+03  0.00000000000E+00 0.  1.
          1   -1    0    0  501    0  0.00000000000E+00 -0.00000000000E+00 -0.14557469015E+03  0.14557469015E+03  0.00000000000E+00 0. -1.
         25    2    1    2    0    0 -0.37508518420E+02 -0.68891273115E+02 -0.12569059459E+02  0.14818283894E+03  0.12508907241E+03 0.  0.
         23    2    1    2    0    0  0.37508518420E+02  0.68891273115E+02 -0.26733653655E+02  0.10366382825E+03  0.62278443983E+02 0.  0.
          5    1    3    3  502    0 -0.54447093010E+01 -0.47252729085E+02 -0.66386195236E+02  0.81774473910E+02  0.41800000000E+01 0.  1.
         -5    1    3    3    0  502 -0.32063809119E+02 -0.21638544031E+02  0.53817135778E+02  0.66408365032E+02  0.41800000000E+01 0.  1.
        -11    1    4    4    0    0 -0.10464124384E+02  0.45078208569E+02 -0.82512983195E+01  0.47006666664E+02  0.00000000000E+00 0.  1.
         11    1    4    4    0    0  0.47972642803E+02  0.23813064546E+02 -0.18482355335E+02  0.56657161589E+02  0.00000000000E+00 0. -1.
</event>
<event>
 8    1  0.6597859E-009  0.1128022E+03  0.7561462E-02  0.1255467E+00
         -1   -1    0    0    0  501 -0.00000000000E+00  0.00000000000E+00  0.51377206160E+03  0.51377206160E+03  0.00000000000E+00 0.  1.
          1   -1    0    0  501    0  0.00000000000E+00 -0.00000000000E+00 -0.30482455004E+02  0.30482455004E+02  0.00000000000E+00 0. -1.
         25    2    1    2    0    0 -0.17358271487E+02  0.49478915889E+02  0.35212227008E+03  0.37734168162E+03  0.12508868410E+03 0.  0.
         23    2    1    2    0    0  0.17358271487E+02 -0.49478915889E+02  0.13116733651E+03  0.16691283498E+03  0.88913168926E+02 0.  0.
          5    1    3    3  502    0  0.47831022579E+02  0.13241437700E+02  0.21996516804E+03  0.22553334553E+03  0.41800000000E+01 0.  1.
         -5    1    3    3    0  502 -0.65189294066E+02  0.36237478189E+02  0.13215710204E+03  0.15180833609E+03  0.41800000000E+01 0.  1.
        -11    1    4    4    0    0 -0.14426261652E+02 -0.64391914763E+02  0.68720232674E+02  0.95272798274E+02  0.00000000000E+00 0.  1.
         11    1    4    4    0    0  0.31784533139E+02  0.14912998874E+02  0.62447103836E+02  0.71640036710E+02  0.00000000000E+00 0. -1.
</event>
<event>
 8    1  0.6597859E-009  0.1293553E+03  0.7561462E-02  0.1228415E+00
         -2   -1    0    0    0  501 -0.00000000000E+00  0.00000000000E+00  0.22556222080E+02  0.22556222080E+02  0.00000000000E+00 0. -1.
          2   -1    0    0  501    0  0.00000000000E+00 -0.00000000000E+00 -0.76222401866E+03  0.76222401866E+03  0.00000000000E+00 0.  1.
         25    2    1    2    0    0 -0.54367292983E+02 -0.48391855829E+02 -0.44993469690E+03  0.47263764555E+03  0.12509012056E+03 0.  0.
         23    2    1    2    0    0  0.54367292983E+02  0.48391855829E+02 -0.28973309968E+03  0.31214259519E+03  0.90499483002E+02 0.  0.
          5    1    3    3  502    0 -0.93172317459E+02 -0.18025759697E+02 -0.30959891513E+03  0.32384405105E+03  0.41800000000E+01 0.  1.
         -5    1    3    3    0  502  0.38805024476E+02 -0.30366096132E+02 -0.14033578177E+03  0.14879359450E+03  0.41800000000E+01 0.  1.
        -11    1    4    4    0    0 -0.13549254784E+02 -0.15801245412E+02 -0.77477273561E+02  0.80224619539E+02  0.00000000000E+00 0.  1.
         11    1    4    4    0    0  0.67916547767E+02  0.64193101241E+02 -0.21225582612E+03  0.23191797565E+03  0.00000000000E+00 0. -1.
</event>
<event>
 8    1  0.6597859E-009  0.7676713E+02  0.7561462E-02  0.1338485E+00
         -2   -1    0    0    0  501 -0.00000000000E+00  0.00000000000E+00  0.56629554090E+02  0.56629554090E+02  0.00000000000E+00 0. -1.
          2   -1    0    0  501    0  0.00000000000E+00 -0.00000000000E+00 -0.24293462972E+03  0.24293462972E+03  0.00000000000E+00 0.  1.
         25    2    1    2    0    0  0.38668757819E+00 -0.27894239187E+00 -0.46537915322E+02  0.13346704659E+03  0.12508975828E+03 0.  0.
         23    2    1    2    0    0 -0.38668757819E+00  0.27894239187E+00 -0.13976716031E+03  0.16609713723E+03  0.89739470452E+02 0.  0.
          5    1    3    3  502    0  0.36157964363E+02 -0.36404452531E+02 -0.61599952521E+02  0.80278945568E+02  0.41800000000E+01 0. -1.
         -5    1    3    3    0  502 -0.35771276785E+02  0.36125510139E+02  0.15062037199E+02  0.53188101021E+02  0.41800000000E+01 0. -1.
        -11    1    4    4    0    0 -0.21497334079E+02  0.14193142609E+02 -0.13839957506E+03  0.14077650033E+03  0.00000000000E+00 0.  1.
         11    1    4    4    0    0  0.21110646501E+02 -0.13914200217E+02 -0.13675852555E+01  0.25320636896E+02  0.00000000000E+00 0. -1.
</event>
<event>
 8    1  0.6597859E-009  0.1576275E+03  0.7561462E-02  0.1191402E+00
          1   -1    0    0  501    0  0.00000000000E+00  0.00000000000E+00  0.34256843104E+03  0.34256843104E+03  0.00000000000E+00 0. -1.
         -1   -1    0    0    0  501 -0.00000000000E+00 -0.00000000000E+00 -0.76463506155E+02  0.76463506155E+02  0.00000000000E+00 0.  1.
         25    2    1    2    0    0  0.68191812424E+02 -0.97877515573E+02  0.13197076164E+03  0.21747014757E+03  0.12508737675E+03 0.  0.
         23    2    1    2    0    0 -0.68191812424E+02  0.97877515573E+02  0.13413416324E+03  0.20156178962E+03  0.91679059491E+02 0.  0.
          5    1    3    3  502    0  0.40126988363E+02  0.21927022604E+02  0.57485840725E+02  0.73573526484E+02  0.41800000000E+01 0. -1.
         -5    1    3    3    0  502  0.28064824061E+02 -0.11980453818E+03  0.74484920917E+02  0.14389662109E+03  0.41800000000E+01 0. -1.
        -11    1    4    4    0    0 -0.34250218109E+02 -0.78823661786E+01  0.13682594691E+02  0.37715017361E+02  0.00000000000E+00 0.  1.
         11    1    4    4    0    0 -0.33941594316E+02  0.10575988175E+03  0.12045156855E+03  0.16384677226E+03  0.00000000000E+00 0. -1.
</event>
<event>
 8    1  0.6597859E-009  0.7397020E+02  0.7561462E-02  0.1347090E+00
         -2   -1    0    0    0  501 -0.00000000000E+00  0.00000000000E+00  0.38879989533E+02  0.38879989533E+02  0.00000000000E+00 0.  1.
          2   -1    0    0  501    0  0.00000000000E+00 -0.00000000000E+00 -0.33425711638E+03  0.33425711638E+03  0.00000000000E+00 0. -1.
         25    2    1    2    0    0 -0.18692869687E+02  0.34014524216E+02 -0.14409063281E+03  0.19474493256E+03  0.12512820250E+03 0.  0.
         23    2    1    2    0    0  0.18692869687E+02 -0.34014524216E+02 -0.15128649404E+03  0.17839217335E+03  0.86196014987E+02 0.  0.
          5    1    3    3  502    0 -0.40810812504E+02  0.19901415121E+02 -0.15821605903E+03  0.16465534451E+03  0.41800000000E+01 0.  1.
         -5    1    3    3    0  502  0.22117942817E+02  0.14113109095E+02  0.14125426225E+02  0.30089588047E+02  0.41800000000E+01 0.  1.
        -11    1    4    4    0    0  0.41310284809E+02 -0.94358048038E+01 -0.13448537681E+03  0.14100315819E+03  0.00000000000E+00 0. -1.
         11    1    4    4    0    0 -0.22617415122E+02 -0.24578719412E+02 -0.16801117229E+02  0.37389015164E+02  0.00000000000E+00 0.  1.
</event>
<event>
 7    1  0.6597859E-009  0.1826729E+03  0.7561462E-02  0.1165241E+00
          2   -1    0    0  501    0  0.00000000000E+00  0.00000000000E+00  0.26095799227E+03  0.26095799227E+03  0.00000000000E+00 0. -1.
         -2   -1    0    0    0  501 -0.00000000000E+00 -0.00000000000E+00 -0.19114144387E+03  0.19114144387E+03  0.00000000000E+00 0.  1.
         25    2    1    2    0    0 -0.60502938020E+02  0.13900846323E+03  0.10238576398E+03  0.22161754081E+03  0.12509009301E+03 0.  0.
          5    1    3    3  502    0 -0.59678872865E+02  0.11182207214E+03  0.13071358491E+03  0.18212429098E+03  0.41800000000E+01 0. -1.
         -5    1    3    3    0  502 -0.82406515564E+00  0.27186391085E+02 -0.28327820925E+02  0.39493249828E+02  0.41800000000E+01 0. -1.
        -11    1    1    2    0    0  0.20248750729E+02 -0.16292925586E+03  0.13572267542E+02  0.16474271082E+03  0.00000000000E+00 0. -1.
         11    1    1    2    0    0  0.40254187291E+02  0.23920792635E+02 -0.46141483129E+02  0.65739184510E+02  0.00000000000E+00 0.  1.
</event>
<event>
 8    1  0.6597859E-009  0.1440283E+03  0.7561462E-02  0.1208009E+00
          2   -1    0    0  501    0  0.00000000000E+00  0.00000000000E+00  0.79746098447E+03  0.79746098447E+03  0.00000000000E+00 0. -1.
         -2   -1    0    0    0  501 -0.00000000000E+00 -0.00000000000E+00 -0.30007699943E+02  0.30007699943E+02  0.00000000000E+00 0.  1.
         25    2    1    2    0    0 -0.21249093448E+02 -0.10330490431E+03  0.49713043523E+03  0.52336342135E+03  0.12508866435E+03 0.  0.
         23    2    1    2    0    0  0.21249093448E+02  0.10330490431E+03  0.27032284930E+03  0.30410526307E+03  0.91006268705E+02 0.  0.
          5    1    3    3  502    0  0.36827827670E+02 -0.95154963130E+02  0.35897980060E+03  0.37322208608E+03  0.41800000000E+01 0. -1.
         -5    1    3    3    0  502 -0.58076921118E+02 -0.81499411790E+01  0.13815063462E+03  0.15014133526E+03  0.41800000000E+01 0. -1.
        -11    1    4    4    0    0  0.40782079314E+02  0.28307202018E+02  0.17137031310E+03  0.17841597432E+03  0.00000000000E+00 0. -1.
         11    1    4    4    0    0 -0.19532985865E+02  0.74997702292E+02  0.98952536201E+02  0.12568928875E+03  0.00000000000E+00 0.  1.
</event>
<event>
 8    1  0.6597859E-009  0.9324876E+02  0.7561462E-02  0.1295170E+00
          2   -1    0    0  501    0  0.00000000000E+00  0.00000000000E+00  0.13787704243E+04  0.13787704243E+04  0.00000000000E+00 0. -1.
         -2   -1    0    0    0  501 -0.00000000000E+00 -0.00000000000E+00 -0.15714271262E+02  0.15714271262E+02  0.00000000000E+00 0.  1.
         25    2    1    2    0    0 -0.34565932403E+02 -0.56078099899E+01  0.11828807302E+04  0.11899914519E+04  0.12508630069E+03 0.  0.
         23    2    1    2    0    0  0.34565932403E+02  0.56078099899E+01  0.18017542293E+03  0.20449324371E+03  0.90155712392E+02 0.  0.
          5    1    3    3  502    0  0.21832550254E+02 -0.40090058677E+02  0.21427042183E+03  0.21911905240E+03  0.41800000000E+01 0. -1.
         -5    1    3    3    0  502 -0.56398482656E+02  0.34482248687E+02  0.96861030833E+03  0.97087239950E+03  0.41800000000E+01 0. -1.
        -11    1    4    4    0    0  0.97329851446E+01 -0.29700114597E+02  0.14635724801E+03  0.14965718109E+03  0.00000000000E+00 0. -1.
         11    1    4    4    0    0  0.24832947258E+02  0.35307924587E+02  0.33818174923E+02  0.54836062616E+02  0.00000000000E+00 0.  1.
</event>
<event>
 8    1  0.6597859E-009  0.9981457E+02  0.7561462E-02  0.1280686E+00
         -2   -1    0    0    0  501 -0.00000000000E+00  0.00000000000E+00  0.22246454848E+02  0.22246454848E+02  0.00000000000E+00 0.  1.
          2   -1    0    0  501    0  0.00000000000E+00 -0.00000000000E+00 -0.86989648331E+03  0.86989648331E+03  0.00000000000E+00 0. -1.
         25    2    1    2    0    0 -0.18010539767E+02 -0.14051690669E+02 -0.72712367545E+03  0.73816035817E+03  0.12510014157E+03 0.  0.
         23    2    1    2    0    0  0.18010539767E+02  0.14051690669E+02 -0.12052635301E+03  0.15398257998E+03  0.93070960111E+02 0.  0.
          5    1    3    3  502    0 -0.44482873220E+02  0.35474754181E+02 -0.19819279625E+03  0.20624025088E+03  0.41800000000E+01 0.  1.
         -5    1    3    3    0  502  0.26472333453E+02 -0.49526444850E+02 -0.52893087920E+03  0.53192010730E+03  0.41800000000E+01 0.  1.
        -11    1    4    4    0    0  0.49936519962E+02 -0.30862044850E+01 -0.34890419798E+02  0.60996082479E+02  0.00000000000E+00 0.  1.
         11    1    4    4    0    0 -0.31925980195E+02  0.17137895154E+02 -0.85635933209E+02  0.92986497506E+02  0.00000000000E+00 0. -1.
</event>
<event>
 8    1  0.6597859E-009  0.1293083E+03  0.7561462E-02  0.1228486E+00
          1   -1    0    0  501    0  0.00000000000E+00  0.00000000000E+00  0.55594592755E+03  0.55594592755E+03  0.00000000000E+00 0. -1.
         -1   -1    0    0    0  501 -0.00000000000E+00 -0.00000000000E+00 -0.47451264597E+02  0.47451264597E+02  0.00000000000E+00 0.  1.
         25    2    1    2    0    0 -0.94379292628E+02 -0.70399729412E+02  0.32785039860E+03  0.37012949093E+03  0.12508550439E+03 0.  0.
         23    2    1    2    0    0  0.94379292628E+02  0.70399729412E+02  0.18064426435E+03  0.23326770122E+03  0.88982568028E+02 0.  0.
          5    1    3    3  502    0 -0.28328169503E+02  0.62640369200E+01  0.22089164385E+03  0.22282799211E+03  0.41800000000E+01 0. -1.
         -5    1    3    3    0  502 -0.66051123125E+02 -0.76663766332E+02  0.10695875476E+03  0.14730149882E+03  0.41800000000E+01 0. -1.
        -11    1    4    4    0    0  0.93460527028E+02  0.47010593956E+02  0.84984732685E+02  0.13478601873E+03  0.00000000000E+00 0.  1.
         11    1    4    4    0    0  0.91876560041E+00  0.23389135456E+02  0.95659531665E+02  0.98481682490E+02  0.00000000000E+00 0. -1.
</event>
<event>
 8    1  0.6597859E-009  0.1049976E+03  0.7561462E-02  0.1270124E+00
         -2   -1    0    0    0  501 -0.00000000000E+00  0.00000000000E+00  0.46432425388E+02  0.46432425388E+02  0.00000000000E+00 0.  1.
          2   -1    0    0  501    0  0.00000000000E+00 -0.00000000000E+00 -0.42203710164E+03  0.42203710164E+03  0.00000000000E+00 0. -1.
         25    2    1    2    0    0  0.55148702232E+02 -0.53913036334E+02 -0.27939139340E+03  0.31567992068E+03  0.12508503816E+03 0.  0.
         23    2    1    2    0    0 -0.55148702232E+02  0.53913036334E+02 -0.96213282855E+02  0.15278960635E+03  0.90220137256E+02 0.  0.
          5    1    3    3  502    0 -0.20278776459E+02 -0.48186498912E+02 -0.44200147046E+02  0.68587847692E+02  0.41800000000E+01 0.  1.
         -5    1    3    3    0  502  0.75427478691E+02 -0.57265374220E+01 -0.23519124635E+03  0.24709207299E+03  0.41800000000E+01 0.  1.
        -11    1    4    4    0    0 -0.38758468854E+02  0.18882419578E+02  0.59768157733E+01  0.43525705093E+02  0.00000000000E+00 0.  1.
         11    1    4    4    0    0 -0.16390233377E+02  0.35030616756E+02 -0.10219009863E+03  0.10926390126E+03  0.00000000000E+00 0. -1.
</event>
<event>
 8    1  0.6597859E-009  0.2324972E+03  0.7561462E-02  0.1124894E+00
         -3   -1    0    0    0  501 -0.00000000000E+00  0.00000000000E+00  0.37953426658E+03  0.37953426658E+03  0.00000000000E+00 0.  1.
          3   -1    0    0  501    0  0.00000000000E+00 -0.00000000000E+00 -0.16792629602E+03  0.16792629602E+03  0.00000000000E+00 0. -1.
         25    2    1    2    0    0  0.21178066644E+03 -0.12724012395E+02  0.19861318023E+02  0.24709324651E+03  0.12509056457E+03 0.  0.
         23    2    1    2    0    0 -0.21178066644E+03  0.12724012395E+02  0.19174665254E+03  0.30036731609E+03  0.91873797378E+02 0.  0.
          5    1    3    3  502    0  0.20238917657E+03  0.25651142067E+02  0.29605485728E+02  0.20618757738E+03  0.41800000000E+01 0.  1.
         -5    1    3    3    0  502  0.93914898704E+01 -0.38375154462E+02 -0.97441677046E+01  0.40905669121E+02  0.41800000000E+01 0.  1.
        -11    1    4    4    0    0 -0.51724235111E+02  0.30705791454E+02  0.95117116169E+02  0.11254113877E+03  0.00000000000E+00 0.  1.
         11    1    4    4    0    0 -0.16005643133E+03 -0.17981779059E+02  0.96629536372E+02  0.18782617732E+03  0.00000000000E+00 0. -1.
</event>
<event>
 8    1  0.6597859E-009  0.1515168E+03  0.7561462E-02  0.1198622E+00
         -3   -1    0    0    0  501 -0.00000000000E+00  0.00000000000E+00  0.29312580415E+02  0.29312580415E+02  0.00000000000E+00 0.  1.
          3   -1    0    0  501    0  0.00000000000E+00 -0.00000000000E+00 -0.84471155840E+03  0.84471155840E+03  0.00000000000E+00 0. -1.
         25    2    1    2    0    0 -0.71821371863E+02 -0.82063716858E+02 -0.35931107179E+03  0.39578096849E+03  0.12508143597E+03 0.  0.
         23    2    1    2    0    0  0.71821371863E+02  0.82063716858E+02 -0.45608790620E+03  0.47824317033E+03  0.93848754434E+02 0.  0.
          5    1    3    3  502    0 -0.50863945931E+02  0.23628089043E+02 -0.96233499982E+02  0.11146204065E+03  0.41800000000E+01 0.  1.
         -5    1    3    3    0  502 -0.20957425932E+02 -0.10569180590E+03 -0.26307757181E+03  0.28431892783E+03  0.41800000000E+01 0.  1.
        -11    1    4    4    0    0  0.53539256530E+02 -0.13632296947E+01 -0.23970250448E+03  0.24561270537E+03  0.00000000000E+00 0. -1.
         11    1    4    4    0    0  0.18282115333E+02  0.83426946553E+02 -0.21638540172E+03  0.23263046496E+03  0.00000000000E+00 0.  1.
</event>
<event>
 8    1  0.6597859E-009  0.8327714E+02  0.7561462E-02  0.1320000E+00
          2   -1    0    0  501    0  0.00000000000E+00  0.00000000000E+00  0.55868500902E+02  0.55868500902E+02  0.00000000000E+00 0. -1.
         -2   -1    0    0    0  501 -0.00000000000E+00 -0.00000000000E+00 -0.30007714950E+03  0.30007714950E+03  0.00000000000E+00 0.  1.
         25    2    1    2    0    0  0.34435522739E+02 -0.13158954852E+02 -0.21721552125E+03  0.25335329091E+03  0.12508534696E+03 0.  0.
         23    2    1    2    0    0 -0.34435522739E+02  0.13158954852E+02 -0.26993127346E+02  0.10259235949E+03  0.91856409591E+02 0.  0.
          5    1    3    3  502    0 -0.28797048564E+02  0.28802176942E+02 -0.13640362277E+03  0.14241578602E+03  0.41800000000E+01 0.  1.
         -5    1    3    3    0  502  0.63232571303E+02 -0.41961131794E+02 -0.80811898473E+02  0.11093750488E+03  0.41800000000E+01 0.  1.
        -11    1    4    4    0    0 -0.12222773033E+02 -0.11244863928E+02 -0.56151611091E+02  0.58556353826E+02  0.00000000000E+00 0.  1.
         11    1    4    4    0    0 -0.22212749706E+02  0.24403818780E+02  0.29158483745E+02  0.44036005664E+02  0.00000000000E+00 0. -1.
</event>
<event>
 8    1  0.6597859E-009  0.9964296E+02  0.7561462E-02  0.1281049E+00
         -2   -1    0    0    0  501 -0.00000000000E+00  0.00000000000E+00  0.42667434879E+03  0.42667434879E+03  0.00000000000E+00 0.  1.
          2   -1    0    0  501    0  0.00000000000E+00 -0.00000000000E+00 -0.28676777717E+02  0.28676777717E+02  0.00000000000E+00 0. -1.
         25    2    1    2    0    0  0.58286169830E+01  0.67342192031E+01  0.18692107208E+03  0.22507968461E+03  0.12506820040E+03 0.  0.
         23    2    1    2    0    0 -0.58286169830E+01 -0.67342192031E+01  0.21107649898E+03  0.23027144189E+03  0.91609639466E+02 0.  0.
          5    1    3    3  502    0  0.33522011685E+02 -0.51020649735E+02  0.90055060128E+02  0.10887707849E+03  0.41800000000E+01 0. -1.
         -5    1    3    3    0  502 -0.27693394702E+02  0.57754868938E+02  0.96866011956E+02  0.11620260612E+03  0.41800000000E+01 0. -1.
        -11    1    4    4    0    0  0.26678510541E+02 -0.25050127428E+02  0.17349785983E+03  0.17731542283E+03  0.00000000000E+00 0.  1.
         11    1    4    4    0    0 -0.32507127524E+02  0.18315908225E+02  0.37578639159E+02  0.52956019063E+02  0.00000000000E+00 0. -1.
</event>
<event>
 8    1  0.6597859E-009  0.6736057E+02  0.7561462E-02  0.1369306E+00
          2   -1    0    0  501    0  0.00000000000E+00  0.00000000000E+00  0.57472621437E+03  0.57472621437E+03  0.00000000000E+00 0. -1.
         -2   -1    0    0    0  501 -0.00000000000E+00 -0.00000000000E+00 -0.36829557938E+02  0.36829557938E+02  0.00000000000E+00 0.  1.
         25    2    1    2    0    0  0.24443137779E+02  0.65774420714E+01  0.97646766217E+02  0.16069328063E+03  0.12508680889E+03 0.  0.
         23    2    1    2    0    0 -0.24443137779E+02 -0.65774420714E+01  0.44024989021E+03  0.45086249168E+03  0.93895105523E+02 0.  0.
          5    1    3    3  502    0  0.11556712233E+02  0.16621898221E+02 -0.27506842972E+02  0.34408485993E+02  0.41800000000E+01 0. -1.
         -5    1    3    3    0  502  0.12886425546E+02 -0.10044456149E+02  0.12515360919E+03  0.12628479463E+03  0.41800000000E+01 0. -1.
        -11    1    4    4    0    0  0.33950827746E+02 -0.16836594609E+02  0.16384542778E+03  0.16817090660E+03  0.00000000000E+00 0.  1.
         11    1    4    4    0    0 -0.58393965525E+02  0.10259152538E+02  0.27640446243E+03  0.28269158508E+03  0.00000000000E+00 0. -1.
</event>
<event>
 8    1  0.6597859E-009  0.1049196E+03  0.7561462E-02  0.1270278E+00
          2   -1    0    0  501    0  0.00000000000E+00  0.00000000000E+00  0.20310996687E+03  0.20310996687E+03  0.00000000000E+00 0. -1.
         -2   -1    0    0    0  501 -0.00000000000E+00 -0.00000000000E+00 -0.90977667014E+02  0.90977667014E+02  0.00000000000E+00 0.  1.
         25    2    1    2    0    0 -0.77840630734E+02 -0.26837411493E+02  0.65818229188E+02  0.16358218293E+03  0.12509069041E+03 0.  0.
         23    2    1    2    0    0  0.77840630734E+02  0.26837411493E+02  0.46314070666E+02  0.13050545096E+03  0.90040375050E+02 0.  0.
          5    1    3    3  502    0  0.11068531251E+02 -0.58882403812E+01  0.70784774017E+02  0.72007918950E+02  0.41800000000E+01 0. -1.
         -5    1    3    3    0  502 -0.88909161985E+02 -0.20949171112E+02 -0.49665448284E+01  0.91574263976E+02  0.41800000000E+01 0. -1.
        -11    1    4    4    0    0  0.13725044746E+02  0.37730683341E+02 -0.13287207513E+02  0.42291029807E+02  0.00000000000E+00 0.  1.
         11    1    4    4    0    0  0.64115585988E+02 -0.10893271848E+02  0.59601278180E+02  0.88214421150E+02  0.00000000000E+00 0. -1.
</event>
<event>
 8    1  0.6597859E-009  0.1178191E+03  0.7561462E-02  0.1246739E+00
          1   -1    0    0  501    0  0.00000000000E+00  0.00000000000E+00  0.14759105860E+03  0.14759105860E+03  0.00000000000E+00 0. -1.
         -1   -1    0    0    0  501 -0.00000000000E+00 -0.00000000000E+00 -0.20438042589E+03  0.20438042589E+03  0.00000000000E+00 0.  1.
         25    2    1    2    0    0 -0.56303757501E+02  0.82089208999E+02  0.63654836272E+02  0.17206878848E+03  0.12508788289E+03 0.  0.
         23    2    1    2    0    0  0.56303757501E+02 -0.82089208999E+02 -0.12044420357E+03  0.17990269601E+03  0.89159534076E+02 0.  0.
          5    1    3    3  502    0 -0.49729064517E+02 -0.13874042399E+01  0.72216967915E+02  0.87793323226E+02  0.41800000000E+01 0. -1.
         -5    1    3    3    0  502 -0.65746929839E+01  0.83476613239E+02 -0.85621316437E+01  0.84275465255E+02  0.41800000000E+01 0. -1.
        -11    1    4    4    0    0  0.37178653679E+02 -0.35045706836E+02 -0.11854276447E+03  0.12908462676E+03  0.00000000000E+00 0.  1.
         11    1    4    4    0    0  0.19125103822E+02 -0.47043502162E+02 -0.19014390948E+01  0.50818069252E+02  0.00000000000E+00 0. -1.
</event>
<event>
 8    1  0.6597859E-009  0.3961663E+03  0.7561462E-02  0.1045115E+00
          2   -1    0    0  501    0  0.00000000000E+00  0.00000000000E+00  0.44727573826E+03  0.44727573826E+03  0.00000000000E+00 0.  1.
         -2   -1    0    0    0  501 -0.00000000000E+00 -0.00000000000E+00 -0.44115779377E+03  0.44115779377E+03  0.00000000000E+00 0. -1.
         25    2    1    2    0    0  0.39295692751E+03 -0.67099156977E+01 -0.17590610513E+03  0.44838375477E+03  0.12507943026E+03 0.  0.
         23    2    1    2    0    0 -0.39295692751E+03  0.67099156977E+01  0.18202404962E+03  0.44004977726E+03  0.77787415288E+02 0.  0.
          5    1    3    3  502    0  0.35896581843E+03 -0.23434958045E+02 -0.11714832256E+03  0.37834753592E+03  0.41800000000E+01 0.  1.
         -5    1    3    3    0  502  0.33991109081E+02  0.16725042347E+02 -0.58757782574E+02  0.70036218852E+02  0.41800000000E+01 0.  1.
        -11    1    4    4    0    0 -0.28871414886E+03  0.19860809131E+02  0.98079554510E+02  0.30556490391E+03  0.00000000000E+00 0.  1.
         11    1    4    4    0    0 -0.10424277866E+03 -0.13150893433E+02  0.83944495114E+02  0.13448487335E+03  0.00000000000E+00 0. -1.
</event>
<event>
 8    1  0.6597859E-009  0.1238221E+03  0.7561462E-02  0.1236922E+00
         -4   -1    0    0    0  501 -0.00000000000E+00  0.00000000000E+00  0.35617614032E+03  0.35617614032E+03  0.00000000000E+00 0.  1.
          4   -1    0    0  501    0  0.00000000000E+00 -0.00000000000E+00 -0.44699556786E+02  0.44699556786E+02  0.00000000000E+00 0. -1.
         25    2    1    2    0    0  0.19560703848E+02  0.52832887640E+02  0.17991643146E+03  0.22625537505E+03  0.12509051634E+03 0.  0.
         23    2    1    2    0    0 -0.19560703848E+02 -0.52832887640E+02  0.13156015207E+03  0.17462032206E+03  0.10005122743E+03 0.  0.
          5    1    3    3  502    0 -0.85295485419E+01  0.88789814626E+02  0.99441313582E+02  0.13365040825E+03  0.41800000000E+01 0. -1.
         -5    1    3    3    0  502  0.28090252390E+02 -0.35956926987E+02  0.80475117874E+02  0.92604966791E+02  0.41800000000E+01 0. -1.
        -11    1    4    4    0    0  0.34083885997E+01 -0.78218993552E+02  0.74479283351E+02  0.10806013008E+03  0.00000000000E+00 0. -1.
         11    1    4    4    0    0 -0.22969092448E+02  0.25386105912E+02  0.57080868723E+02  0.66560191973E+02  0.00000000000E+00 0.  1.
</event>
<event>
 8    1  0.6597859E-009  0.1284461E+03  0.7561462E-02  0.1229780E+00
         -2   -1    0    0    0  501 -0.00000000000E+00  0.00000000000E+00  0.12549698984E+03  0.12549698984E+03  0.00000000000E+00 0. -1.
          2   -1    0    0  501    0  0.00000000000E+00 -0.00000000000E+00 -0.20226782319E+03  0.20226782319E+03  0.00000000000E+00 0.  1.
         25    2    1    2    0    0 -0.95159186200E+02 -0.28263305907E+02 -0.97836772836E+02  0.18727394414E+03  0.12508161678E+03 0.  0.
         23    2    1    2    0    0  0.95159186200E+02  0.28263305907E+02  0.21065939480E+02  0.14049086889E+03  0.97158763143E+02 0.  0.
          5    1    3    3  502    0 -0.66068870737E+01 -0.60693983161E+02 -0.18402863270E+02  0.63902647248E+02  0.41800000000E+01 0.  1.
         -5    1    3    3    0  502 -0.88552299126E+02  0.32430677255E+02 -0.79433909565E+02  0.12337129689E+03  0.41800000000E+01 0.  1.
        -11    1    4    4    0    0  0.20874639799E+02  0.15327762943E+02 -0.37110993202E+02  0.45253913864E+02  0.00000000000E+00 0.  1.
         11    1    4    4    0    0  0.74284546401E+02  0.12935542963E+02  0.58176932682E+02  0.95236955023E+02  0.00000000000E+00 0. -1.
</event>
<event>
 8    1  0.6597859E-009  0.1633744E+03  0.7561462E-02  0.1184939E+00
         -2   -1    0    0    0  501 -0.00000000000E+00  0.00000000000E+00  0.38882360219E+02  0.38882360219E+02  0.00000000000E+00 0.  1.
          2   -1    0    0  501    0  0.00000000000E+00 -0.00000000000E+00 -0.77290355004E+03  0.77290355004E+03  0.00000000000E+00 0. -1.
         25    2    1    2    0    0  0.12101420069E+03  0.58467775564E+02 -0.38980599751E+03  0.43088074727E+03  0.12508631069E+03 0.  0.
         23    2    1    2    0    0 -0.12101420069E+03 -0.58467775564E+02 -0.34421519231E+03  0.38090516299E+03  0.92421464120E+02 0.  0.
          5    1    3    3  502    0  0.85003848846E+02 -0.21874040974E+02 -0.13333755463E+03  0.15968877187E+03  0.41800000000E+01 0. -1.
         -5    1    3    3    0  502  0.36010351840E+02  0.80341816538E+02 -0.25646844289E+03  0.27119197540E+03  0.41800000000E+01 0. -1.
        -11    1    4    4    0    0  0.67833116343E+00  0.10724568733E+02 -0.16902060532E+01  0.10878111242E+02  0.00000000000E+00 0.  1.
         11    1    4    4    0    0 -0.12169253185E+03 -0.69192344297E+02 -0.34252498625E+03  0.37002705175E+03  0.00000000000E+00 0. -1.
</event>
<event>
 8    1  0.6597859E-009  0.1198290E+03  0.7561462E-02  0.1243379E+00
         -4   -1    0    0    0  501 -0.00000000000E+00  0.00000000000E+00  0.86215992311E+03  0.86215992311E+03  0.00000000000E+00 0.  1.
          4   -1    0    0  501    0  0.00000000000E+00 -0.00000000000E+00 -0.19743721185E+02  0.19743721185E+02  0.00000000000E+00 0. -1.
         25    2    1    2    0    0 -0.20220198247E+02  0.60303039679E+02  0.58291612940E+03  0.59957412536E+03  0.12511037080E+03 0.  0.
         23    2    1    2    0    0  0.20220198247E+02 -0.60303039679E+02  0.25950007252E+03  0.28232951893E+03  0.91237912115E+02 0.  0.
          5    1    3    3  502    0  0.73715409346E+00 -0.35631779915E+02  0.88773494877E+02  0.95751621024E+02  0.41800000000E+01 0. -1.
         -5    1    3    3    0  502 -0.20957352341E+02  0.95934819594E+02  0.49414263452E+03  0.50382250434E+03  0.41800000000E+01 0. -1.
        -11    1    4    4    0    0  0.30459736406E+02 -0.78724696129E+02  0.16306292169E+03  0.18361614785E+03  0.00000000000E+00 0. -1.
         11    1    4    4    0    0 -0.10239538159E+02  0.18421656450E+02  0.96437150833E+02  0.98713371075E+02  0.00000000000E+00 0.  1.
</event>
<event>
 8    1  0.6597859E-009  0.1548400E+03  0.7561462E-02  0.1194649E+00
         -1   -1    0    0    0  501 -0.00000000000E+00  0.00000000000E+00  0.55327692999E+02  0.55327692999E+02  0.00000000000E+00 0.  1.
          1   -1    0    0  501    0  0.00000000000E+00 -0.00000000000E+00 -0.63192035439E+03  0.63192035439E+03  0.00000000000E+00 0. -1.
         25    2    1    2    0    0  0.14185559530E+03 -0.57134671500E+02 -0.29318929706E+03  0.35354411741E+03  0.12508436529E+03 0.  0.
         23    2    1    2    0    0 -0.14185559530E+03  0.57134671500E+02 -0.28340336434E+03  0.33370392998E+03  0.87484086352E+02 0.  0.
          5    1    3    3  502    0  0.77336827340E+02 -0.43622100416E+02 -0.50938949957E+02  0.10245058092E+03  0.41800000000E+01 0. -1.
         -5    1    3    3    0  502  0.64518767959E+02 -0.13512571084E+02 -0.24225034710E+03  0.25109353649E+03  0.41800000000E+01 0. -1.
        -11    1    4    4    0    0 -0.84871563144E+02  0.46488257890E+02 -0.91288991801E+02  0.13303390687E+03  0.00000000000E+00 0.  1.
         11    1    4    4    0    0 -0.56984032155E+02  0.10646413610E+02 -0.19211437253E+03  0.20067002312E+03  0.00000000000E+00 0. -1.
</event>
<event>
 8    1  0.6597859E-009  0.1019679E+03  0.7561462E-02  0.1276211E+00
         -2   -1    0    0    0  501 -0.00000000000E+00  0.00000000000E+00  0.87646279349E+02  0.87646279349E+02  0.00000000000E+00 0.  1.
          2   -1    0    0  501    0  0.00000000000E+00 -0.00000000000E+00 -0.23269742788E+03  0.23269742788E+03  0.00000000000E+00 0. -1.
         25    2    1    2    0    0 -0.38001326204E+02 -0.76743170239E+02 -0.11810006898E+03  0.19216420587E+03  0.12508333524E+03 0.  0.
         23    2    1    2    0    0  0.38001326204E+02  0.76743170239E+02 -0.26951079551E+02  0.12817950136E+03  0.91487752774E+02 0.  0.
          5    1    3    3  502    0 -0.33089690362E+02 -0.66821040484E+02 -0.14481908498E+03  0.16294176516E+03  0.41800000000E+01 0. -1.
         -5    1    3    3    0  502 -0.49116358427E+01 -0.99221297546E+01  0.26719015995E+02  0.29222440714E+02  0.41800000000E+01 0. -1.
        -11    1    4    4    0    0  0.61306449953E+02  0.70224298130E+02 -0.39116337478E+02  0.10109411809E+03  0.00000000000E+00 0. -1.
         11    1    4    4    0    0 -0.23305123749E+02  0.65188721082E+01  0.12165257928E+02  0.27085383272E+02  0.00000000000E+00 0.  1.
</event>
<event>
 8    1  0.6597859E-009  0.1058714E+03  0.7561462E-02  0.1268412E+00
          2   -1    0    0  501    0  0.00000000000E+00  0.00000000000E+00  0.91481398642E+03  0.91481398642E+03  0.00000000000E+00 0. -1.
         -2   -1    0    0    0  501 -0.00000000000E+00 -0.00000000000E+00 -0.15485729164E+02  0.15485729164E+02  0.00000000000E+00 0.  1.
         25    2    1    2    0    0  0.31673972396E+02  0.21986340796E+02  0.58703774394E+03  0.60145432638E+03  0.12508938484E+03 0.  0.
         23    2    1    2    0    0 -0.31673972396E+02 -0.21986340796E+02  0.31229051332E+03  0.32884538921E+03  0.95536828427E+02 0.  0.
          5    1    3    3  502    0  0.33004366499E+02 -0.42112944534E+02  0.40227801035E+03  0.40584215937E+03  0.41800000000E+01 0.  1.
         -5    1    3    3    0  502 -0.13303941032E+01  0.64099285330E+02  0.18475973359E+03  0.19561216701E+03  0.41800000000E+01 0.  1.
        -11    1    4    4    0    0  0.28731673183E+02 -0.16594991231E+02  0.52780188524E+02  0.62343011465E+02  0.00000000000E+00 0.  1.
         11    1    4    4    0    0 -0.60405645579E+02 -0.53913495648E+01  0.25951032479E+03  0.26650237774E+03  0.00000000000E+00 0. -1.
</event>
<event>
 8    1  0.6597859E-009  0.1060149E+03  0.7561462E-02  0.1268133E+00
          1   -1    0    0  501    0  0.00000000000E+00  0.00000000000E+00  0.39255601914E+03  0.39255601914E+03  0.00000000000E+00 0. -1.
         -1   -1    0    0    0  501 -0.00000000000E+00 -0.00000000000E+00 -0.41075147361E+02  0.41075147361E+02  0.00000000000E+00 0.  1.
         25    2    1    2    0    0  0.30471360270E+02  0.60124240626E+02  0.20588925979E+03  0.25016309913E+03  0.12509100992E+03 0.  0.
         23    2    1    2    0    0 -0.30471360270E+02 -0.60124240626E+02  0.14559161199E+03  0.18346806737E+03  0.88995427722E+02 0.  0.
          5    1    3    3  502    0 -0.11107501304E+01  0.71646198989E+02  0.20397128999E+03  0.21623175330E+03  0.41800000000E+01 0.  1.
         -5    1    3    3    0  502  0.31582110400E+02 -0.11521958363E+02  0.19179698017E+01  0.33931345833E+02  0.41800000000E+01 0.  1.
        -11    1    4    4    0    0 -0.29316941131E+02 -0.80652388982E+02  0.13592624488E+03  0.16074898112E+03  0.00000000000E+00 0. -1.
         11    1    4    4    0    0 -0.11544191394E+01  0.20528148357E+02  0.96653671140E+01  0.22719086248E+02  0.00000000000E+00 0.  1.
</event>
<event>
 8    1  0.6597859E-009  0.8096810E+02  0.7561462E-02  0.1326326E+00
          1   -1    0    0  501    0  0.00000000000E+00  0.00000000000E+00  0.11586970267E+03  0.11586970267E+03  0.00000000000E+00 0. -1.
         -1   -1    0    0    0  501 -0.00000000000E+00 -0.00000000000E+00 -0.29555650278E+03  0.29555650278E+03  0.00000000000E+00 0.  1.
         25    2    1    2    0    0 -0.65618828242E+01 -0.48551289838E+02  0.67362207576E+02  0.15028296102E+03  0.12508803025E+03 0.  0.
         23    2    1    2    0    0  0.65618828242E+01  0.48551289838E+02 -0.24704900769E+03  0.26114324443E+03  0.69009389635E+02 0.  0.
          5    1    3    3  502    0  0.28268747412E+02 -0.44049926867E+02 -0.19879749093E+02  0.56144411665E+02  0.41800000000E+01 0.  1.
         -5    1    3    3    0  502 -0.34830630236E+02 -0.45013629711E+01  0.87241956669E+02  0.94138549355E+02  0.41800000000E+01 0.  1.
        -11    1    4    4    0    0  0.27833397383E+02  0.91753481118E+01 -0.41665299285E+02  0.50939986135E+02  0.00000000000E+00 0. -1.
         11    1    4    4    0    0 -0.21271514559E+02  0.39375941726E+02 -0.20538370840E+03  0.21020325829E+03  0.00000000000E+00 0.  1.
</event>
<event>
 7    1  0.6597859E-009  0.1441035E+03  0.7561462E-02  0.1207912E+00
         -2   -1    0    0    0  501 -0.00000000000E+00  0.00000000000E+00  0.41198340626E+02  0.41198340626E+02  0.00000000000E+00 0.  1.
          2   -1    0    0  501    0  0.00000000000E+00 -0.00000000000E+00 -0.57794197484E+03  0.57794197484E+03  0.00000000000E+00 0. -1.
         25    2    1    2    0    0 -0.83693522449E+02 -0.83854503773E+02 -0.38784359408E+03  0.42439019992E+03  0.12509278484E+03 0.  0.
          5    1    3    3  502    0  0.23597528646E+02 -0.48120132830E+02 -0.79795098904E+02  0.96213932208E+02  0.41800000000E+01 0. -1.
         -5    1    3    3    0  502 -0.10729105110E+03 -0.35734370943E+02 -0.30804849518E+03  0.32817626772E+03  0.41800000000E+01 0. -1.
        -11    1    1    2    0    0  0.38665492895E+02  0.56943202298E+02 -0.58959825281E+02  0.90630070209E+02  0.00000000000E+00 0.  1.
         11    1    1    2    0    0  0.45028029554E+02  0.26911301475E+02 -0.89940214855E+02  0.10412004534E+03  0.00000000000E+00 0. -1.
</event>
<event>
 8    1  0.6597859E-009  0.9205686E+02  0.7561462E-02  0.1297946E+00
          1   -1    0    0  501    0  0.00000000000E+00  0.00000000000E+00  0.19191084225E+03  0.19191084225E+03  0.00000000000E+00 0. -1.
         -1   -1    0    0    0  501 -0.00000000000E+00 -0.00000000000E+00 -0.81393575292E+02  0.81393575292E+02  0.00000000000E+00 0.  1.
         25    2    1    2    0    0 -0.61911316833E+02 -0.19673750830E+01  0.53376059024E+02  0.14943948039E+03  0.12508506269E+03 0.  0.
         23    2    1    2    0    0  0.61911316833E+02  0.19673750830E+01  0.57141207934E+02  0.12386493715E+03  0.90777328080E+02 0.  0.
          5    1    3    3  502    0 -0.20633197368E+02  0.37332948010E+02  0.76582110935E+02  0.87759728555E+02  0.41800000000E+01 0.  1.
         -5    1    3    3    0  502 -0.41278119464E+02 -0.39300323093E+02 -0.23206051912E+02  0.61679751840E+02  0.41800000000E+01 0.  1.
        -11    1    4    4    0    0  0.25639406373E+02  0.29118703715E+02 -0.12517760537E+02  0.40767295643E+02  0.00000000000E+00 0. -1.
         11    1    4    4    0    0  0.36271910460E+02 -0.27151328632E+02  0.69658968471E+02  0.83097641503E+02  0.00000000000E+00 0.  1.
</event>
<event>
 8    1  0.6597859E-009  0.8339001E+02  0.7561462E-02  0.1319697E+00
         -1   -1    0    0    0  501 -0.00000000000E+00  0.00000000000E+00  0.47412860048E+02  0.47412860048E+02  0.00000000000E+00 0.  1.
          1   -1    0    0  501    0  0.00000000000E+00 -0.00000000000E+00 -0.30225913926E+03  0.30225913926E+03  0.00000000000E+00 0. -1.
         25    2    1    2    0    0 -0.25256488571E+02  0.25889967988E+02 -0.19978200881E+03  0.23847115499E+03  0.12508980798E+03 0.  0.
         23    2    1    2    0    0  0.25256488571E+02 -0.25889967988E+02 -0.55064270407E+02  0.11120084432E+03  0.89584447566E+02 0.  0.
          5    1    3    3  502    0 -0.16907208309E+02  0.76385709852E+02 -0.13089138308E+03  0.15254722852E+03  0.41800000000E+01 0. -1.
         -5    1    3    3    0  502 -0.83492802616E+01 -0.50495741865E+02 -0.68890625726E+02  0.85923926471E+02  0.41800000000E+01 0. -1.
        -11    1    4    4    0    0  0.93129621220E+01 -0.15400905630E+02 -0.78751592853E+02  0.80782006255E+02  0.00000000000E+00 0. -1.
         11    1    4    4    0    0  0.15943526449E+02 -0.10489062358E+02  0.23687322447E+02  0.30418838069E+02  0.00000000000E+00 0.  1.
</event>
<event>
 8    1  0.6597859E-009  0.2281660E+03  0.7561462E-02  0.1127937E+00
          2   -1    0    0  501    0  0.00000000000E+00  0.00000000000E+00  0.12153285226E+03  0.12153285226E+03  0.00000000000E+00 0. -1.
         -2   -1    0    0    0  501 -0.00000000000E+00 -0.00000000000E+00 -0.53415596944E+03  0.53415596944E+03  0.00000000000E+00 0.  1.
         25    2    1    2    0    0  0.17533985033E+03 -0.11330838810E+03 -0.87709805948E+02  0.25869009199E+03  0.12507877400E+03 0.  0.
         23    2    1    2    0    0 -0.17533985033E+03  0.11330838810E+03 -0.32491331123E+03  0.39699872970E+03  0.91959108531E+02 0.  0.
          5    1    3    3  502    0  0.14042867625E+03 -0.19680526860E+02 -0.65438949927E+02  0.15622824590E+03  0.41800000000E+01 0.  1.
         -5    1    3    3    0  502  0.34911174087E+02 -0.93627861237E+02 -0.22270856021E+02  0.10246184609E+03  0.41800000000E+01 0.  1.
        -11    1    4    4    0    0 -0.10380670123E+03  0.94771493835E+02 -0.14237523263E+03  0.20007042292E+03  0.00000000000E+00 0. -1.
         11    1    4    4    0    0 -0.71533149108E+02  0.18536894262E+02 -0.18253807861E+03  0.19692830678E+03  0.00000000000E+00 0.  1.
</event>
<event>
 8    1  0.6597859E-009  0.1156194E+03  0.7561462E-02  0.1250504E+00
         -1   -1    0    0    0  501 -0.00000000000E+00  0.00000000000E+00  0.19653000982E+02  0.19653000982E+02  0.00000000000E+00 0.  1.
          1   -1    0    0  501    0  0.00000000000E+00 -0.00000000000E+00 -0.87257294949E+03  0.87257294949E+03  0.00000000000E+00 0. -1.
         25    2    1    2    0    0 -0.14950080436E+02  0.33613969558E+02 -0.66524516279E+03  0.67790247376E+03  0.12508890218E+03 0.  0.
         23    2    1    2    0    0  0.14950080436E+02 -0.33613969558E+02 -0.18767478572E+03  0.21432347672E+03  0.96743597330E+02 0.  0.
          5    1    3    3  502    0  0.34135979427E+02 -0.32913837040E+02 -0.24436055735E+03  0.24895409245E+03  0.41800000000E+01 0.  1.
         -5    1    3    3    0  502 -0.49086059863E+02  0.66527806598E+02 -0.42088460545E+03  0.42894838131E+03  0.41800000000E+01 0.  1.
        -11    1    4    4    0    0  0.25654249549E+02 -0.63832765781E+02 -0.10377189830E+03  0.12450449543E+03  0.00000000000E+00 0.  1.
         11    1    4    4    0    0 -0.10704169112E+02  0.30218796223E+02 -0.83902887421E+02  0.89818981286E+02  0.00000000000E+00 0. -1.
</event>
<event>
 8    1  0.6597859E-009  0.1000283E+03  0.7561462E-02  0.1280236E+00
          1   -1    0    0  501    0  0.00000000000E+00  0.00000000000E+00  0.10232982137E+04  0.10232982137E+04  0.00000000000E+00 0. -1.
         -1   -1    0    0    0  501 -0.00000000000E+00 -0.00000000000E+00 -0.17692185318E+02  0.17692185318E+02  0.00000000000E+00 0.  1.
         25    2    1    2    0    0  0.15769096314E+02 -0.41847023468E+02  0.81280386258E+03  0.82358952861E+03  0.12509898017E+03 0.  0.
         23    2    1    2    0    0 -0.15769096314E+02  0.41847023468E+02  0.19280216576E+03  0.21740087037E+03  0.89947904605E+02 0.  0.
          5    1    3    3  502    0 -0.31798633728E+02 -0.41806848744E+02  0.68716676010E+03  0.68918400613E+03  0.41800000000E+01 0. -1.
         -5    1    3    3    0  502  0.47567730042E+02 -0.40174723850E-01  0.12563710247E+03  0.13440552248E+03  0.41800000000E+01 0. -1.
        -11    1    4    4    0    0  0.35870746424E+02  0.50950257058E+01  0.57073739509E+02  0.67602377751E+02  0.00000000000E+00 0. -1.
         11    1    4    4    0    0 -0.51639842739E+02  0.36751997762E+02  0.13572842625E+03  0.14979849262E+03  0.00000000000E+00 0.  1.
</event>
<event>
 8    1  0.6597859E-009  0.1716671E+03  0.7561462E-02  0.1176120E+00
          2   -1    0    0  501    0  0.00000000000E+00  0.00000000000E+00  0.18518020972E+04  0.18518020972E+04  0.00000000000E+00 0. -1.
         -2   -1    0    0    0  501 -0.00000000000E+00 -0.00000000000E+00 -0.20488440901E+02  0.20488440901E+02  0.00000000000E+00 0.  1.
         25    2    1    2    0    0 -0.15411263708E+03  0.22554698576E+02  0.11636889292E+04  0.11807109752E+04  0.12508822357E+03 0.  0.
         23    2    1    2    0    0  0.15411263708E+03 -0.22554698576E+02  0.66762472715E+03  0.69157956295E+03  0.91104864076E+02 0.  0.
          5    1    3    3  502    0 -0.76453176684E+02 -0.36346991835E+02  0.78862092170E+03  0.79316241880E+03  0.41800000000E+01 0. -1.
         -5    1    3    3    0  502 -0.77659460395E+02  0.58901690412E+02  0.37506800748E+03  0.38754855639E+03  0.41800000000E+01 0. -1.
        -11    1    4    4    0    0  0.10850332219E+03  0.33703643146E+01  0.57474848458E+03  0.58491037844E+03  0.00000000000E+00 0. -1.
         11    1    4    4    0    0  0.45609314891E+02 -0.25925062891E+02  0.92876242572E+02  0.10666918451E+03  0.00000000000E+00 0.  1.
</event>
<event>
 8    1  0.6597859E-009  0.1112344E+03  0.7561462E-02  0.1258301E+00
          1   -1    0    0  501    0  0.00000000000E+00  0.00000000000E+00  0.15567403182E+03  0.15567403182E+03  0.00000000000E+00 0. -1.
         -1   -1    0    0    0  501 -0.00000000000E+00 -0.00000000000E+00 -0.82650755996E+02  0.82650755996E+02  0.00000000000E+00 0.  1.
         25    2    1    2    0    0  0.31221767379E+02 -0.36257674691E+01  0.39111094751E+02  0.13478594556E+03  0.12509847497E+03 0.  0.
         23    2    1    2    0    0 -0.31221767379E+02  0.36257674691E+01  0.33912181076E+02  0.10353884226E+03  0.92640762535E+02 0.  0.
          5    1    3    3  502    0  0.77928249826E+02  0.97377206468E+01  0.34264391296E+02  0.85785524625E+02  0.41800000000E+01 0.  1.
         -5    1    3    3    0  502 -0.46706482447E+02 -0.13363488116E+02  0.48467034551E+01  0.49000420933E+02  0.41800000000E+01 0.  1.
        -11    1    4    4    0    0  0.11350065436E+02 -0.35483234952E+02  0.25441275586E+02  0.45112553147E+02  0.00000000000E+00 0.  1.
         11    1    4    4    0    0 -0.42571832815E+02  0.39109002421E+02  0.84709054901E+01  0.58426289112E+02  0.00000000000E+00 0. -1.
</event>
<event>
 8    1  0.6597859E-009  0.1596146E+03  0.7561462E-02  0.1189133E+00
         -1   -1    0    0    0  501 -0.00000000000E+00  0.00000000000E+00  0.39750237691E+02  0.39750237691E+02  0.00000000000E+00 0.  1.
          1   -1    0    0  501    0  0.00000000000E+00 -0.00000000000E+00 -0.83655151430E+03  0.83655151430E+03  0.00000000000E+00 0. -1.
         25    2    1    2    0    0 -0.13246101637E+03 -0.60584405012E+02 -0.40484114197E+03  0.44806245952E+03  0.12508887406E+03 0.  0.
         23    2    1    2    0    0  0.13246101637E+03  0.60584405012E+02 -0.39196013464E+03  0.42823929247E+03  0.92410786602E+02 0.  0.
          5    1    3    3  502    0 -0.10146866873E+03 -0.38286534467E+02 -0.12476416706E+03  0.16536420180E+03  0.41800000000E+01 0.  1.
         -5    1    3    3    0  502 -0.30992347637E+02 -0.22297870545E+02 -0.28007697491E+03  0.28269825772E+03  0.41800000000E+01 0.  1.
        -11    1    4    4    0    0  0.93702320109E+02  0.84974752373E+02 -0.27819745267E+03  0.30560539263E+03  0.00000000000E+00 0.  1.
         11    1    4    4    0    0  0.38758696260E+02 -0.24390347361E+02 -0.11376268197E+03  0.12263389984E+03  0.00000000000E+00 0. -1.
</event>
<event>
 8    1  0.6597859E-009  0.1090368E+03  0.7561462E-02  0.1262364E+00
          1   -1    0    0  501    0  0.00000000000E+00  0.00000000000E+00  0.37605725313E+03  0.37605725313E+03  0.00000000000E+00 0. -1.
         -1   -1    0    0    0  501 -0.00000000000E+00 -0.00000000000E+00 -0.43983770428E+02  0.43983770428E+02  0.00000000000E+00 0.  1.
         25    2    1    2    0    0 -0.43028572445E+01 -0.57371088534E+02  0.12147598374E+03  0.18361168255E+03  0.12508748523E+03 0.  0.
         23    2    1    2    0    0  0.43028572445E+01  0.57371088534E+02  0.21059749896E+03  0.23642934101E+03  0.90761061817E+02 0.  0.
          5    1    3    3  502    0  0.14975453284E+02 -0.90696830181E+02  0.56531766994E+02  0.10799764944E+03  0.41800000000E+01 0.  1.
         -5    1    3    3    0  502 -0.19278310529E+02  0.33325741647E+02  0.64944216745E+02  0.75614033101E+02  0.41800000000E+01 0.  1.
        -11    1    4    4    0    0 -0.29693225214E+02  0.15832093975E+02  0.21668899880E+02  0.40023543636E+02  0.00000000000E+00 0. -1.
         11    1    4    4    0    0  0.33996082458E+02  0.41538994559E+02  0.18892859908E+03  0.19640579738E+03  0.00000000000E+00 0.  1.
</event>
<event>
 8    1  0.6597859E-009  0.1270560E+03  0.7561462E-02  0.1231891E+00
         -1   -1    0    0    0  501 -0.00000000000E+00  0.00000000000E+00  0.17469467813E+03  0.17469467813E+03  0.00000000000E+00 0. -1.
          1   -1    0    0  501    0  0.00000000000E+00 -0.00000000000E+00 -0.12705842727E+03  0.12705842727E+03  0.00000000000E+00 0.  1.
         25    2    1    2    0    0  0.96836556690E+02  0.26007245696E+02  0.88316230798E+01  0.16056099196E+03  0.12509252189E+03 0.  0.
         23    2    1    2    0    0 -0.96836556690E+02 -0.26007245696E+02  0.38804627782E+02  0.14119211344E+03  0.91518950066E+02 0.  0.
          5    1    3    3  502    0  0.21008030905E+02  0.52888099051E+02 -0.36873408601E+02  0.67938273790E+02  0.41800000000E+01 0.  1.
         -5    1    3    3    0  502  0.75828525785E+02 -0.26880853355E+02  0.45705031680E+02  0.92622718168E+02  0.41800000000E+01 0.  1.
        -11    1    4    4    0    0 -0.85172976233E+02 -0.43365667333E+02 -0.17163941226E+01  0.95592693196E+02  0.00000000000E+00 0.  1.
         11    1    4    4    0    0 -0.11663580457E+02  0.17358421637E+02  0.40521021904E+02  0.45599420248E+02  0.00000000000E+00 0. -1.
</event>
<event>
 8    1  0.6597859E-009  0.9842746E+02  0.7561462E-02  0.1283638E+00
          2   -1    0    0  501    0  0.00000000000E+00  0.00000000000E+00  0.70215211660E+02  0.70215211660E+02  0.00000000000E+00 0. -1.
         -2   -1    0    0    0  501 -0.00000000000E+00 -0.00000000000E+00 -0.20592091854E+03  0.20592091854E+03  0.00000000000E+00 0.  1.
         25    2    1    2    0    0  0.44649127814E+02 -0.19349370072E+02 -0.55047352360E+02  0.14506645821E+03  0.12508446570E+03 0.  0.
         23    2    1    2    0    0 -0.44649127814E+02  0.19349370072E+02 -0.80658354520E+02  0.13106967199E+03  0.91134768474E+02 0.  0.
          5    1    3    3  502    0 -0.31268390468E+02 -0.25710375647E+02  0.13112962565E+02  0.42756962539E+02  0.41800000000E+01 0.  1.
         -5    1    3    3    0  502  0.75917518281E+02  0.63610055742E+01 -0.68160314925E+02  0.10230949567E+03  0.41800000000E+01 0.  1.
        -11    1    4    4    0    0 -0.17694783394E+02 -0.23391233420E+02 -0.74623337440E+02  0.80180406902E+02  0.00000000000E+00 0.  1.
         11    1    4    4    0    0 -0.26954344419E+02  0.42740603492E+02 -0.60350170794E+01  0.50889265087E+02  0.00000000000E+00 0. -1.
</event>
<event>
 8    1  0.6597859E-009  0.8707017E+02  0.7561462E-02  0.1310106E+00
         -2   -1    0    0    0  501 -0.00000000000E+00  0.00000000000E+00  0.15058864101E+02  0.15058864101E+02  0.00000000000E+00 0.  1.
          2   -1    0    0  501    0  0.00000000000E+00 -0.00000000000E+00 -0.14667128610E+04  0.14667128610E+04  0.00000000000E+00 0. -1.
         25    2    1    2    0    0 -0.55635190704E+02  0.55210261968E+02 -0.11121456527E+04  0.11218996129E+04  0.12508933290E+03 0.  0.
         23    2    1    2    0    0  0.55635190704E+02 -0.55210261968E+02 -0.33950834426E+03  0.35987211223E+03  0.89992076694E+02 0.  0.
          5    1    3    3  502    0 -0.18059815597E+02 -0.11150780789E+00 -0.88207904314E+03  0.88227381245E+03  0.41800000000E+01 0.  1.
         -5    1    3    3    0  502 -0.37575375107E+02  0.55321769776E+02 -0.23006660951E+03  0.23962580044E+03  0.41800000000E+01 0.  1.
        -11    1    4    4    0    0  0.32271027297E+02 -0.42685586769E+01 -0.26753039086E+02  0.42135079166E+02  0.00000000000E+00 0.  1.
         11    1    4    4    0    0  0.23364163407E+02 -0.50941703291E+02 -0.31275530517E+03  0.31773703306E+03  0.00000000000E+00 0. -1.
</event>
<event>
 8    1  0.6597859E-009  0.1272472E+03  0.7561462E-02  0.1231599E+00
         -2   -1    0    0    0  501 -0.00000000000E+00  0.00000000000E+00  0.26775198403E+02  0.26775198403E+02  0.00000000000E+00 0. -1.
          2   -1    0    0  501    0  0.00000000000E+00 -0.00000000000E+00 -0.86534744693E+03  0.86534744693E+03  0.00000000000E+00 0.  1.
         25    2    1    2    0    0 -0.93366482399E+01 -0.10154928893E+03 -0.56586577244E+03  0.58842740519E+03  0.12507320930E+03 0.  0.
         23    2    1    2    0    0  0.93366482399E+01  0.10154928893E+03 -0.27270647609E+03  0.30369524014E+03  0.86386027224E+02 0.  0.
          5    1    3    3  502    0  0.20016795875E+02 -0.90449305724E+02 -0.19197393416E+03  0.21319759103E+03  0.41800000000E+01 0.  1.
         -5    1    3    3    0  502 -0.29353444115E+02 -0.11099983204E+02 -0.37389183828E+03  0.37522981417E+03  0.41800000000E+01 0.  1.
        -11    1    4    4    0    0 -0.35964644023E+02  0.42385804337E+02 -0.83161000260E+02  0.10002881581E+03  0.00000000000E+00 0.  1.
         11    1    4    4    0    0  0.45301292263E+02  0.59163484591E+02 -0.18954547583E+03  0.20366642432E+03  0.00000000000E+00 0. -1.
</event>
<event>
 8    1  0.6597859E-009  0.8009563E+02  0.7561462E-02  0.1328780E+00
         -1   -1    0    0    0  501 -0.00000000000E+00  0.00000000000E+00  0.88037935791E+02  0.88037935791E+02  0.00000000000E+00 0.  1.
          1   -1    0    0  501    0  0.00000000000E+00 -0.00000000000E+00 -0.19734942468E+03  0.19734942468E+03  0.00000000000E+00 0. -1.
         25    2    1    2    0    0  0.43875972308E+02  0.19367052845E-01  0.40393380002E+01  0.13262468531E+03  0.12509152482E+03 0.  0.
         23    2    1    2    0    0 -0.43875972308E+02 -0.19367052845E-01 -0.11335082689E+03  0.15276267516E+03  0.92536066719E+02 0.  0.
          5    1    3    3  502    0  0.11953543915E+02  0.33212144539E+02  0.53936485019E+02  0.64595282903E+02  0.41800000000E+01 0. -1.
         -5    1    3    3    0  502  0.31922428393E+02 -0.33192777486E+02 -0.49897147019E+02  0.68029402411E+02  0.41800000000E+01 0. -1.
        -11    1    4    4    0    0  0.53205605723E+01 -0.23356096693E+02  0.31542410756E+01  0.24161226258E+02  0.00000000000E+00 0.  1.
         11    1    4    4    0    0 -0.49196532880E+02  0.23336729640E+02 -0.11650506796E+03  0.12860144890E+03  0.00000000000E+00 0. -1.
</event>
<event>
 8    1  0.6597859E-009  0.1165045E+03  0.7561462E-02  0.1248977E+00
          1   -1    0    0  501    0  0.00000000000E+00  0.00000000000E+00  0.29518208509E+03  0.29518208509E+03  0.00000000000E+00 0. -1.
         -1   -1    0    0    0  501 -0.00000000000E+00 -0.00000000000E+00 -0.68608481243E+02  0.68608481243E+02  0.00000000000E+00 0.  1.
         25    2    1    2    0    0  0.28204561831E+02 -0.79410042723E+02  0.86757851101E+02  0.17399457860E+03  0.12508291835E+03 0.  0.
         23    2    1    2    0    0 -0.28204561831E+02  0.79410042723E+02  0.13981575275E+03  0.18979598773E+03  0.96812292860E+02 0.  0.
          5    1    3    3  502    0 -0.26006493301E+01 -0.89523374904E+02  0.10377297542E+03  0.13714044209E+03  0.41800000000E+01 0. -1.
         -5    1    3    3    0  502  0.30805211161E+02  0.10113332181E+02 -0.17015124314E+02  0.36854136510E+02  0.41800000000E+01 0. -1.
        -11    1    4    4    0    0 -0.52413921986E+02  0.48626716639E+02  0.38563128688E+02  0.81233562542E+02  0.00000000000E+00 0.  1.
         11    1    4    4    0    0  0.24209360155E+02  0.30783326084E+02  0.10125262406E+03  0.10856242519E+03  0.00000000000E+00 0. -1.
</event>
<event>
 8    1  0.6597859E-009  0.1055905E+03  0.7561462E-02  0.1268960E+00
          2   -1    0    0  501    0  0.00000000000E+00  0.00000000000E+00  0.41217818191E+03  0.41217818191E+03  0.00000000000E+00 0. -1.
         -2   -1    0    0    0  501 -0.00000000000E+00 -0.00000000000E+00 -0.47935982479E+02  0.47935982479E+02  0.00000000000E+00 0.  1.
         25    2    1    2    0    0 -0.60978525754E+02  0.63417831873E+02  0.17135121436E+03  0.22966907767E+03  0.12508574888E+03 0.  0.
         23    2    1    2    0    0  0.60978525754E+02 -0.63417831873E+02  0.19289098507E+03  0.23044508672E+03  0.90320561709E+02 0.  0.
          5    1    3    3  502    0 -0.62189922241E+02  0.30287022397E+01  0.18229773839E+02  0.65011972127E+02  0.41800000000E+01 0. -1.
         -5    1    3    3    0  502  0.12113964873E+01  0.60389129634E+02  0.15312144052E+03  0.16465710555E+03  0.41800000000E+01 0. -1.
        -11    1    4    4    0    0  0.29490834493E+02 -0.25882411016E+02  0.91585266041E+01  0.40292519513E+02  0.00000000000E+00 0.  1.
         11    1    4    4    0    0  0.31487691261E+02 -0.37535420857E+02  0.18373245847E+03  0.19015256720E+03  0.00000000000E+00 0. -1.
</event>
<event>
 8    1  0.6597859E-009  0.1081256E+03  0.7561462E-02  0.1264081E+00
         -2   -1    0    0    0  501 -0.00000000000E+00  0.00000000000E+00  0.19100926358E+02  0.19100926358E+02  0.00000000000E+00 0.  1.
          2   -1    0    0  501    0  0.00000000000E+00 -0.00000000000E+00 -0.81648287731E+03  0.81648287731E+03  0.00000000000E+00 0. -1.
         25    2    1    2    0    0 -0.55273534439E+02  0.18920216492E+02 -0.49155030333E+03  0.51057041730E+03  0.12508921664E+03 0.  0.
         23    2    1    2    0    0  0.55273534439E+02 -0.18920216492E+02 -0.30583164762E+03  0.32501338636E+03  0.93207115755E+02 0.  0.
          5    1    3    3  502    0 -0.17842015164E+02  0.53634495889E+02 -0.41250080949E+03  0.41637649656E+03  0.41800000000E+01 0.  1.
         -5    1    3    3    0  502 -0.37431519275E+02 -0.34714279397E+02 -0.79049493836E+02  0.94193920744E+02  0.41800000000E+01 0.  1.
        -11    1    4    4    0    0  0.67791170169E+02 -0.43653325442E+02 -0.24996389517E+03  0.26264653903E+03  0.00000000000E+00 0. -1.
         11    1    4    4    0    0 -0.12517635730E+02  0.24733108950E+02 -0.55867752448E+02  0.62366847332E+02  0.00000000000E+00 0.  1.
</event>
<event>
 8    1  0.6597859E-009  0.3230179E+03  0.7561462E-02  0.1074269E+00
         -2   -1    0    0    0  501 -0.00000000000E+00  0.00000000000E+00  0.17399762419E+03  0.17399762419E+03  0.00000000000E+00 0. -1.
          2   -1    0    0  501    0  0.00000000000E+00 -0.00000000000E+00 -0.10122749670E+04  0.10122749670E+04  0.00000000000E+00 0.  1.
         25    2    1    2    0    0  0.24074106505E+03 -0.20007311165E+03 -0.59203176094E+02  0.34224664043E+03  0.12506892669E+03 0.  0.
         23    2    1    2    0    0 -0.24074106505E+03  0.20007311165E+03 -0.77907416674E+03  0.84402595078E+03  0.86242320832E+02 0.  0.
          5    1    3    3  502    0  0.54013882738E+02  0.51201794340E+01  0.12136560096E+02  0.55753782444E+02  0.41800000000E+01 0. -1.
         -5    1    3    3    0  502  0.18672718231E+03 -0.20519329108E+03 -0.71339736190E+02  0.28649285799E+03  0.41800000000E+01 0. -1.
        -11    1    4    4    0    0 -0.15899366922E+03  0.11542835910E+03 -0.58446687070E+03  0.61660701901E+03  0.00000000000E+00 0.  1.
         11    1    4    4    0    0 -0.81747395832E+02  0.84644752545E+02 -0.19460729603E+03  0.22741893177E+03  0.00000000000E+00 0. -1.
</event>
<event>
 8    1  0.6597859E-009  0.5283490E+02  0.7561462E-02  0.1430624E+00
          1   -1    0    0  501    0  0.00000000000E+00  0.00000000000E+00  0.17025642962E+03  0.17025642962E+03  0.00000000000E+00 0. -1.
         -1   -1    0    0    0  501 -0.00000000000E+00 -0.00000000000E+00 -0.96887105472E+02  0.96887105472E+02  0.00000000000E+00 0.  1.
         25    2    1    2    0    0  0.13486010417E+02 -0.22469079376E+02  0.10659566989E+03  0.16642464253E+03  0.12509113796E+03 0.  0.
         23    2    1    2    0    0 -0.13486010417E+02  0.22469079376E+02 -0.33226345747E+02  0.10071889256E+03  0.91397884342E+02 0.  0.
          5    1    3    3  502    0  0.33673458675E+02 -0.38660360619E+02 -0.51025035366E+01  0.51691713501E+02  0.41800000000E+01 0. -1.
         -5    1    3    3    0  502 -0.20187448258E+02  0.16191281244E+02  0.11169817343E+03  0.11473292902E+03  0.41800000000E+01 0. -1.
        -11    1    4    4    0    0 -0.12151653515E+02  0.10756854427E+02  0.31229216825E+02  0.35194269190E+02  0.00000000000E+00 0. -1.
         11    1    4    4    0    0 -0.13343569020E+01  0.11712224949E+02 -0.64455562572E+02  0.65524623372E+02  0.00000000000E+00 0.  1.
</event>
<event>
 8    1  0.6597859E-009  0.1385291E+03  0.7561462E-02  0.1215322E+00
         -1   -1    0    0    0  501 -0.00000000000E+00  0.00000000000E+00  0.35389714628E+03  0.35389714628E+03  0.00000000000E+00 0.  1.
          1   -1    0    0  501    0  0.00000000000E+00 -0.00000000000E+00 -0.64654890339E+02  0.64654890339E+02  0.00000000000E+00 0. -1.
         25    2    1    2    0    0  0.50965256939E+01 -0.10252833034E+03  0.12126345524E+03  0.20221399332E+03  0.12509052889E+03 0.  0.
         23    2    1    2    0    0 -0.50965256939E+01  0.10252833034E+03  0.16797880070E+03  0.21633804331E+03  0.89706401105E+02 0.  0.
          5    1    3    3  502    0 -0.12618138682E+02 -0.11950519783E+03  0.56544284338E+02  0.13287376801E+03  0.41800000000E+01 0.  1.
         -5    1    3    3    0  502  0.17714664376E+02  0.16976867491E+02  0.64719170903E+02  0.69340225310E+02  0.41800000000E+01 0.  1.
        -11    1    4    4    0    0  0.29129740167E+02  0.91410503914E+02  0.95246980650E+02  0.13519027077E+03  0.00000000000E+00 0.  1.
         11    1    4    4    0    0 -0.34226265861E+02  0.11117826427E+02  0.72731820052E+02  0.81147772534E+02  0.00000000000E+00 0. -1.
</event>
<event>
 8    1  0.6597859E-009  0.9757176E+02  0.7561462E-02  0.1285487E+00
          2   -1    0    0  501    0  0.00000000000E+00  0.00000000000E+00  0.66232208880E+02  0.66232208880E+02  0.00000000000E+00 0. -1.
         -2   -1    0    0    0  501 -0.00000000000E+00 -0.00000000000E+00 -0.20405562192E+03  0.20405562192E+03  0.00000000000E+00 0.  1.
         25    2    1    2    0    0  0.35139229597E+02 -0.21787134295E+02 -0.72378373030E+02  0.15031670631E+03  0.12508812348E+03 0.  0.
         23    2    1    2    0    0 -0.35139229597E+02  0.21787134295E+02 -0.65445040007E+02  0.11997112449E+03  0.91654638572E+02 0.  0.
          5    1    3    3  502    0  0.50312770166E+02 -0.66963408340E+02 -0.47906469107E+02  0.96581442735E+02  0.41800000000E+01 0.  1.
         -5    1    3    3    0  502 -0.15173540570E+02  0.45176274045E+02 -0.24471903923E+02  0.53735263577E+02  0.41800000000E+01 0.  1.
        -11    1    4    4    0    0 -0.39684814126E+02 -0.15016930434E+01 -0.81950991175E+02  0.91066484003E+02  0.00000000000E+00 0.  1.
         11    1    4    4    0    0  0.45455845293E+01  0.23288827338E+02  0.16505951168E+02  0.28904640483E+02  0.00000000000E+00 0. -1.
</event>
<event>
 8    1  0.6597859E-009  0.1792702E+03  0.7561462E-02  0.1168511E+00
          2   -1    0    0  501    0  0.00000000000E+00  0.00000000000E+00  0.31583891679E+03  0.31583891679E+03  0.00000000000E+00 0. -1.
         -2   -1    0    0    0  501 -0.00000000000E+00 -0.00000000000E+00 -0.11336107635E+03  0.11336107635E+03  0.00000000000E+00 0.  1.
         25    2    1    2    0    0 -0.13373927845E+03  0.65501497708E+02  0.15667473112E+03  0.24974026205E+03  0.12508631547E+03 0.  0.
         23    2    1    2    0    0  0.13373927845E+03 -0.65501497708E+02  0.45803109320E+02  0.17945973109E+03  0.89057450314E+02 0.  0.
          5    1    3    3  502    0 -0.16210096445E+02  0.65948297064E+02  0.23294138181E+02  0.71916857453E+02  0.41800000000E+01 0. -1.
         -5    1    3    3    0  502 -0.11752918200E+03 -0.44679935633E+00  0.13338059294E+03  0.17782340460E+03  0.41800000000E+01 0. -1.
        -11    1    4    4    0    0  0.75466052632E+02  0.11492550494E+02  0.27768635105E+02  0.81229926211E+02  0.00000000000E+00 0. -1.
         11    1    4    4    0    0  0.58273225815E+02 -0.76994048202E+02  0.18034474216E+02  0.98229804874E+02  0.00000000000E+00 0.  1.
</event>
<event>
 8    1  0.6597859E-009  0.2233884E+03  0.7561462E-02  0.1131382E+00
          2   -1    0    0  501    0  0.00000000000E+00  0.00000000000E+00  0.13623746894E+04  0.13623746894E+04  0.00000000000E+00 0.  1.
         -2   -1    0    0    0  501 -0.00000000000E+00 -0.00000000000E+00 -0.38766414364E+02  0.38766414364E+02  0.00000000000E+00 0. -1.
         25    2    1    2    0    0 -0.12630564370E+02 -0.19829940084E+03  0.57099656444E+03  0.61738720253E+03  0.12509075793E+03 0.  0.
         23    2    1    2    0    0  0.12630564370E+02  0.19829940084E+03  0.75261171056E+03  0.78375390119E+03  0.91452759561E+02 0.  0.
          5    1    3    3  502    0  0.22291556880E+02  0.39383034743E+01  0.24536047060E+02  0.33643925867E+02  0.41800000000E+01 0. -1.
         -5    1    3    3    0  502 -0.34922121250E+02 -0.20223770432E+03  0.54646051738E+03  0.58374327667E+03  0.41800000000E+01 0. -1.
        -11    1    4    4    0    0  0.50708308839E+02  0.85215865290E+02  0.36041334244E+03  0.37380590377E+03  0.00000000000E+00 0.  1.
         11    1    4    4    0    0 -0.38077744469E+02  0.11308353555E+03  0.39219836812E+03  0.40994799742E+03  0.00000000000E+00 0. -1.
</event>
<event>
 8    1  0.6597859E-009  0.6668183E+02  0.7561462E-02  0.1371755E+00
         -1   -1    0    0    0  501 -0.00000000000E+00  0.00000000000E+00  0.84208066367E+02  0.84208066367E+02  0.00000000000E+00 0.  1.
          1   -1    0    0  501    0  0.00000000000E+00 -0.00000000000E+00 -0.13970750022E+03  0.13970750022E+03  0.00000000000E+00 0. -1.
         25    2    1    2    0    0  0.32281202505E+01  0.36356819447E+01 -0.31231073027E+02  0.12902080715E+03  0.12508936730E+03 0.  0.
         23    2    1    2    0    0 -0.32281202505E+01 -0.36356819447E+01 -0.24268360822E+02  0.94894759435E+02  0.91610169128E+02 0.  0.
          5    1    3    3  502    0  0.24887723572E+02 -0.11434212315E+02 -0.73762956807E+02  0.78794582255E+02  0.41800000000E+01 0. -1.
         -5    1    3    3    0  502 -0.21659603321E+02  0.15069894260E+02  0.42531883780E+02  0.50226224892E+02  0.41800000000E+01 0. -1.
        -11    1    4    4    0    0 -0.33253477161E+02  0.21656829133E+02  0.11988404640E+02  0.41455202776E+02  0.00000000000E+00 0.  1.
         11    1    4    4    0    0  0.30025356911E+02 -0.25292511077E+02 -0.36256765462E+02  0.53439556660E+02  0.00000000000E+00 0. -1.
</event>
<event>
 8    1  0.6597859E-009  0.2569275E+03  0.7561462E-02  0.1109003E+00
          1   -1    0    0  501    0  0.00000000000E+00  0.00000000000E+00  0.82717355272E+03  0.82717355272E+03  0.00000000000E+00 0. -1.
         -1   -1    0    0    0  501 -0.00000000000E+00 -0.00000000000E+00 -0.92082983837E+02  0.92082983837E+02  0.00000000000E+00 0.  1.
         25    2    1    2    0    0 -0.13233594494E+03 -0.21688995990E+03  0.37214702415E+03  0.46764746629E+03  0.12508672238E+03 0.  0.
         23    2    1    2    0    0  0.13233594494E+03  0.21688995990E+03  0.36294354474E+03  0.45160907027E+03  0.87570992099E+02 0.  0.
          5    1    3    3  502    0 -0.12568265302E+03 -0.18228954591E+03  0.37109427673E+03  0.43215048587E+03  0.41800000000E+01 0. -1.
         -5    1    3    3    0  502 -0.66532919174E+01 -0.34600413986E+02  0.10527474166E+01  0.35496980414E+02  0.41800000000E+01 0. -1.
        -11    1    4    4    0    0  0.56241794465E+02  0.12859784159E+03  0.13084914088E+03  0.19189070320E+03  0.00000000000E+00 0.  1.
         11    1    4    4    0    0  0.76094150477E+02  0.88292118310E+02  0.23209440386E+03  0.25971836707E+03  0.00000000000E+00 0. -1.
</event>
<event>
 8    1  0.6597859E-009  0.1281981E+03  0.7561462E-02  0.1230154E+00
         -1   -1    0    0    0  501 -0.00000000000E+00  0.00000000000E+00  0.17420810403E+03  0.17420810403E+03  0.00000000000E+00 0.  1.
          1   -1    0    0  501    0  0.00000000000E+00 -0.00000000000E+00 -0.25799476689E+03  0.25799476689E+03  0.00000000000E+00 0. -1.
         25    2    1    2    0    0 -0.10756220888E+03 -0.41843983252E+02  0.99802185304E+02  0.19730134401E+03  0.12508715539E+03 0.  0.
         23    2    1    2    0    0  0.10756220888E+03  0.41843983252E+02 -0.18358884817E+03  0.23490152692E+03  0.90295705668E+02 0.  0.
          5    1    3    3  502    0 -0.17422161800E+00 -0.26283029244E+02 -0.21704538521E+02  0.34342209769E+02  0.41800000000E+01 0.  1.
         -5    1    3    3    0  502 -0.10738798726E+03 -0.15560954008E+02  0.12150672383E+03  0.16295913424E+03  0.41800000000E+01 0.  1.
        -11    1    4    4    0    0  0.14281260801E+02 -0.69917574966E+01  0.68342199472E+01  0.17307387014E+02  0.00000000000E+00 0.  1.
         11    1    4    4    0    0  0.93280948074E+02  0.48835740748E+02 -0.19042306812E+03  0.21759413990E+03  0.00000000000E+00 0. -1.
</event>
<event>
 8    1  0.6597859E-009  0.1310853E+03  0.7561462E-02  0.1225854E+00
          1   -1    0    0  501    0  0.00000000000E+00  0.00000000000E+00  0.49040016889E+03  0.49040016889E+03  0.00000000000E+00 0. -1.
         -1   -1    0    0    0  501 -0.00000000000E+00 -0.00000000000E+00 -0.42998597205E+02  0.42998597205E+02  0.00000000000E+00 0.  1.
         25    2    1    2    0    0 -0.11180096938E+02 -0.10236561557E+03  0.19017433035E+03  0.24984770686E+03  0.12511549418E+03 0.  0.
         23    2    1    2    0    0  0.11180096938E+02  0.10236561557E+03  0.25722724134E+03  0.28355105923E+03  0.60263054063E+02 0.  0.
          5    1    3    3  502    0 -0.59072267489E+02 -0.91586063842E+02  0.10467062527E+03  0.15116531371E+03  0.41800000000E+01 0. -1.
         -5    1    3    3    0  502  0.47892170551E+02 -0.10779551730E+02  0.85503705080E+02  0.98682393151E+02  0.41800000000E+01 0. -1.
        -11    1    4    4    0    0  0.97392795139E+00  0.67563148552E+02  0.22535932364E+03  0.23527123141E+03  0.00000000000E+00 0. -1.
         11    1    4    4    0    0  0.10206168986E+02  0.34802467020E+02  0.31867917705E+02  0.48279827826E+02  0.00000000000E+00 0.  1.
</event>
<event>
 8    1  0.6597859E-009  0.7348264E+02  0.7561462E-02  0.1348635E+00
         -1   -1    0    0    0  501 -0.00000000000E+00  0.00000000000E+00  0.76126758288E+02  0.76126758288E+02  0.00000000000E+00 0.  1.
          1   -1    0    0  501    0  0.00000000000E+00 -0.00000000000E+00 -0.15982378524E+03  0.15982378524E+03  0.00000000000E+00 0. -1.
         25    2    1    2    0    0  0.11072606462E+00  0.96004485603E+01 -0.66465218361E+02  0.14197518838E+03  0.12508856059E+03 0.  0.
         23    2    1    2    0    0 -0.11072606462E+00 -0.96004485603E+01 -0.17231808591E+02  0.93975355147E+02  0.91881724379E+02 0.  0.
          5    1    3    3  502    0 -0.21895093050E+02  0.19960856140E+02 -0.97693078575E+02  0.10217260337E+03  0.41800000000E+01 0.  1.
         -5    1    3    3    0  502  0.22005819114E+02 -0.10360407580E+02  0.31227860214E+02  0.39802585012E+02  0.41800000000E+01 0.  1.
        -11    1    4    4    0    0  0.45843093410E+02 -0.65603663566E+01 -0.95568511493E+01  0.47285949541E+02  0.00000000000E+00 0.  1.
         11    1    4    4    0    0 -0.45953819475E+02 -0.30400822037E+01 -0.76749574417E+01  0.46689405606E+02  0.00000000000E+00 0. -1.
</event>
<event>
 8    1  0.6597859E-009  0.1078669E+03  0.7561462E-02  0.1264572E+00
         -3   -1    0    0    0  501 -0.00000000000E+00  0.00000000000E+00  0.41348951727E+03  0.41348951727E+03  0.00000000000E+00 0.  1.
          3   -1    0    0  501    0  0.00000000000E+00 -0.00000000000E+00 -0.63273340456E+02  0.63273340456E+02  0.00000000000E+00 0. -1.
         25    2    1    2    0    0  0.76538047100E+02  0.18709462178E+02  0.30768577786E+03  0.34136145289E+03  0.12509591118E+03 0.  0.
         23    2    1    2    0    0 -0.76538047100E+02 -0.18709462178E+02  0.42530398948E+02  0.13540140483E+03  0.10157061074E+03 0.  0.
          5    1    3    3  502    0 -0.23237866854E+01  0.15639322050E+02 -0.63422837078E+01  0.17540961815E+02  0.41800000000E+01 0. -1.
         -5    1    3    3    0  502  0.78861833785E+02  0.30701401270E+01  0.31402806157E+03  0.32382049108E+03  0.41800000000E+01 0. -1.
        -11    1    4    4    0    0 -0.89803784347E+02 -0.37522512709E+02  0.52189417012E+02  0.11043728488E+03  0.00000000000E+00 0.  1.
         11    1    4    4    0    0  0.13265737248E+02  0.18813050532E+02 -0.96590180636E+01  0.24964119952E+02  0.00000000000E+00 0. -1.
</event>
<event>
 8    1  0.6597859E-009  0.1117814E+03  0.7561462E-02  0.1257306E+00
         -1   -1    0    0    0  501 -0.00000000000E+00  0.00000000000E+00  0.29052096614E+02  0.29052096614E+02  0.00000000000E+00 0.  1.
          1   -1    0    0  501    0  0.00000000000E+00 -0.00000000000E+00 -0.43413425357E+03  0.43413425357E+03  0.00000000000E+00 0. -1.
         25    2    1    2    0    0  0.29048901398E+02  0.53598105814E+01 -0.21251869860E+03  0.24836394879E+03  0.12509151676E+03 0.  0.
         23    2    1    2    0    0 -0.29048901398E+02 -0.53598105814E+01 -0.19256345836E+03  0.21482240139E+03  0.90528517068E+02 0.  0.
          5    1    3    3  502    0 -0.42698974971E+02  0.30108002026E+02 -0.91753723528E+02  0.10566888109E+03  0.41800000000E+01 0. -1.
         -5    1    3    3    0  502  0.71747876368E+02 -0.24748191444E+02 -0.12076497507E+03  0.14269506770E+03  0.41800000000E+01 0. -1.
        -11    1    4    4    0    0 -0.16763319276E+02  0.42521088474E+02 -0.97127431328E+02  0.10734425814E+03  0.00000000000E+00 0. -1.
         11    1    4    4    0    0 -0.12285582122E+02 -0.47880899055E+02 -0.95436027033E+02  0.10747814326E+03  0.00000000000E+00 0.  1.
</event>
<event>
 8    1  0.6597859E-009  0.1099695E+03  0.7561462E-02  0.1260626E+00
          1   -1    0    0  501    0  0.00000000000E+00  0.00000000000E+00  0.23751594760E+03  0.23751594760E+03  0.00000000000E+00 0. -1.
         -1   -1    0    0    0  501 -0.00000000000E+00 -0.00000000000E+00 -0.14698699906E+03  0.14698699906E+03  0.00000000000E+00 0.  1.
         25    2    1    2    0    0  0.34183955315E+01 -0.29147108979E+02  0.20020075436E+03  0.23788264128E+03  0.12508624859E+03 0.  0.
         23    2    1    2    0    0 -0.34183955315E+01  0.29147108979E+02 -0.10967180582E+03  0.14662030538E+03  0.92781299666E+02 0.  0.
          5    1    3    3  502    0 -0.55669624938E+02 -0.33610588579E+02  0.75339307305E+02  0.99610553811E+02  0.41800000000E+01 0.  1.
         -5    1    3    3    0  502  0.59088020469E+02  0.44634795998E+01  0.12486144705E+03  0.13827208747E+03  0.41800000000E+01 0.  1.
        -11    1    4    4    0    0  0.43678591547E+02  0.15320907422E+02 -0.38732989571E+02  0.60355563496E+02  0.00000000000E+00 0.  1.
         11    1    4    4    0    0 -0.47096987079E+02  0.13826201557E+02 -0.70938816245E+02  0.86264741880E+02  0.00000000000E+00 0. -1.
</event>
<event>
 8    1  0.6597859E-009  0.1258383E+03  0.7561462E-02  0.1233765E+00
         -1   -1    0    0    0  501 -0.00000000000E+00  0.00000000000E+00  0.21577803836E+03  0.21577803836E+03  0.00000000000E+00 0.  1.
          1   -1    0    0  501    0  0.00000000000E+00 -0.00000000000E+00 -0.96356064825E+02  0.96356064825E+02  0.00000000000E+00 0. -1.
         25    2    1    2    0    0  0.87189941126E+02 -0.35572525960E+02  0.57411743728E+02  0.16676478022E+03  0.12508754202E+03 0.  0.
         23    2    1    2    0    0 -0.87189941126E+02  0.35572525960E+02  0.62010229805E+02  0.14536932296E+03  0.91757730031E+02 0.  0.
          5    1    3    3  502    0  0.11837870612E+03 -0.21211670549E+02  0.34177262423E+02  0.12509600592E+03  0.41800000000E+01 0. -1.
         -5    1    3    3    0  502 -0.31188764997E+02 -0.14360855411E+02  0.23234481305E+02  0.41668774301E+02  0.41800000000E+01 0. -1.
        -11    1    4    4    0    0 -0.71126316566E+02  0.18891948085E+02  0.85209431540E+02  0.11258998994E+03  0.00000000000E+00 0.  1.
         11    1    4    4    0    0 -0.16063624560E+02  0.16680577876E+02 -0.23199201735E+02  0.32779333022E+02  0.00000000000E+00 0. -1.
</event>
<event>
 8    1  0.6597859E-009  0.8174087E+02  0.7561462E-02  0.1324182E+00
          1   -1    0    0  501    0  0.00000000000E+00  0.00000000000E+00  0.12163050917E+04  0.12163050917E+04  0.00000000000E+00 0. -1.
         -1   -1    0    0    0  501 -0.00000000000E+00 -0.00000000000E+00 -0.13106741064E+02  0.13106741064E+02  0.00000000000E+00 0.  1.
         25    2    1    2    0    0  0.24662790588E+02  0.21016814153E+02  0.93969394388E+03  0.94853675345E+03  0.12508918725E+03 0.  0.
         23    2    1    2    0    0 -0.24662790588E+02 -0.21016814153E+02  0.26350440671E+03  0.28087507927E+03  0.91685757239E+02 0.  0.
          5    1    3    3  502    0 -0.82876080231E+01  0.43083531881E+02  0.11940020886E+03  0.12727433929E+03  0.41800000000E+01 0.  1.
         -5    1    3    3    0  502  0.32950398611E+02 -0.22066717727E+02  0.82029373502E+03  0.82126241416E+03  0.41800000000E+01 0.  1.
        -11    1    4    4    0    0 -0.99717579829E+01 -0.47884208151E+02  0.23138396672E+03  0.23649708962E+03  0.00000000000E+00 0. -1.
         11    1    4    4    0    0 -0.14691032605E+02  0.26867393997E+02  0.32120439992E+02  0.44377989640E+02  0.00000000000E+00 0.  1.
</event>
<event>
 8    1  0.6597859E-009  0.1211308E+03  0.7561462E-02  0.1241243E+00
         -1   -1    0    0    0  501 -0.00000000000E+00  0.00000000000E+00  0.31894945923E+03  0.31894945923E+03  0.00000000000E+00 0.  1.
          1   -1    0    0  501    0  0.00000000000E+00 -0.00000000000E+00 -0.68945252922E+02  0.68945252922E+02  0.00000000000E+00 0. -1.
         25    2    1    2    0    0  0.99938385267E+02  0.50600696906E+01  0.14299493889E+03  0.21473683604E+03  0.12510424073E+03 0.  0.
         23    2    1    2    0    0 -0.99938385267E+02 -0.50600696906E+01  0.10700926741E+03  0.17315787611E+03  0.92300496158E+02 0.  0.
          5    1    3    3  502    0  0.86313451298E+02 -0.10244564575E+02  0.16364730296E+03  0.18534528628E+03  0.41800000000E+01 0.  1.
         -5    1    3    3    0  502  0.13624933969E+02  0.15304634266E+02 -0.20652364071E+02  0.29391549762E+02  0.41800000000E+01 0.  1.
        -11    1    4    4    0    0  0.11238498579E+02  0.17584931825E+02  0.27899909966E+02  0.34841622433E+02  0.00000000000E+00 0.  1.
         11    1    4    4    0    0 -0.11117688385E+03 -0.22645001516E+02  0.79109357446E+02  0.13831625367E+03  0.00000000000E+00 0. -1.
</event>
<event>
 8    1  0.6597859E-009  0.1484651E+03  0.7561462E-02  0.1202372E+00
          1   -1    0    0  501    0  0.00000000000E+00  0.00000000000E+00  0.19397911092E+03  0.19397911092E+03  0.00000000000E+00 0. -1.
         -1   -1    0    0    0  501 -0.00000000000E+00 -0.00000000000E+00 -0.14236636256E+03  0.14236636256E+03  0.00000000000E+00 0.  1.
         25    2    1    2    0    0  0.11870249272E+03 -0.26202490313E+02  0.53699407665E+02  0.18250513471E+03  0.12509054935E+03 0.  0.
         23    2    1    2    0    0 -0.11870249272E+03  0.26202490313E+02 -0.20866593038E+01  0.15384033876E+03  0.94263690826E+02 0.  0.
          5    1    3    3  502    0  0.13655126841E+03 -0.37101231423E+01  0.65037926806E+02  0.15135196808E+03  0.41800000000E+01 0.  1.
         -5    1    3    3    0  502 -0.17848775696E+02 -0.22492367171E+02 -0.11338519141E+02  0.31153166630E+02  0.41800000000E+01 0.  1.
        -11    1    4    4    0    0 -0.97084947647E+02  0.40645301023E+02 -0.35885276960E+02  0.11119928353E+03  0.00000000000E+00 0.  1.
         11    1    4    4    0    0 -0.21617545072E+02 -0.14442810710E+02  0.33798617657E+02  0.42641055236E+02  0.00000000000E+00 0. -1.
</event>
<event>
 8    1  0.6597859E-009  0.2156637E+03  0.7561462E-02  0.1137158E+00
         -1   -1    0    0    0  501 -0.00000000000E+00  0.00000000000E+00  0.37628499586E+02  0.37628499586E+02  0.00000000000E+00 0.  1.
          1   -1    0    0  501    0  0.00000000000E+00 -0.00000000000E+00 -0.14628143276E+04  0.14628143276E+04  0.00000000000E+00 0. -1.
         25    2    1    2    0    0  0.13203520025E+03  0.16030318356E+03 -0.69935631011E+03  0.74018744570E+03  0.12509117281E+03 0.  0.
         23    2    1    2    0    0 -0.13203520025E+03 -0.16030318356E+03 -0.72582951790E+03  0.76025538148E+03  0.89606647383E+02 0.  0.
          5    1    3    3  502    0  0.84763783506E+00  0.36914816860E+02 -0.29735527849E+03  0.29966824363E+03  0.41800000000E+01 0.  1.
         -5    1    3    3    0  502  0.13118756242E+03  0.12338836670E+03 -0.40200103162E+03  0.44051920207E+03  0.41800000000E+01 0.  1.
        -11    1    4    4    0    0 -0.11618649122E+03 -0.10537973094E+03 -0.40388244069E+03  0.43327267896E+03  0.00000000000E+00 0.  1.
         11    1    4    4    0    0 -0.15848709031E+02 -0.54923452613E+02 -0.32194707721E+03  0.32698270252E+03  0.00000000000E+00 0. -1.
</event>
<event>
 8    1  0.6597859E-009  0.1397398E+03  0.7561462E-02  0.1213680E+00
         -2   -1    0    0    0  501 -0.00000000000E+00  0.00000000000E+00  0.60595051692E+02  0.60595051692E+02  0.00000000000E+00 0.  1.
          2   -1    0    0  501    0  0.00000000000E+00 -0.00000000000E+00 -0.62544170154E+03  0.62544170154E+03  0.00000000000E+00 0. -1.
         25    2    1    2    0    0 -0.13445489463E+03  0.29737836639E+02 -0.44408426490E+03  0.48147852638E+03  0.12509308300E+03 0.  0.
         23    2    1    2    0    0  0.13445489463E+03 -0.29737836639E+02 -0.12076238495E+03  0.20455822685E+03  0.91093671230E+02 0.  0.
          5    1    3    3  502    0 -0.73844616677E+02 -0.17040758569E+00 -0.71785042656E+02  0.10307095226E+03  0.41800000000E+01 0. -1.
         -5    1    3    3    0  502 -0.60610277949E+02  0.29908244225E+02 -0.37229922225E+03  0.37840757412E+03  0.41800000000E+01 0. -1.
        -11    1    4    4    0    0  0.11667709969E+03 -0.27569359489E+02 -0.13581644115E+03  0.18116213970E+03  0.00000000000E+00 0. -1.
         11    1    4    4    0    0  0.17777794936E+02 -0.21684771498E+01  0.15054056201E+02  0.23396087152E+02  0.00000000000E+00 0.  1.
</event>
<event>
 8    1  0.6597859E-009  0.1096999E+03  0.7561462E-02  0.1261127E+00
          2   -1    0    0  501    0  0.00000000000E+00  0.00000000000E+00  0.12948166270E+04  0.12948166270E+04  0.00000000000E+00 0. -1.
         -2   -1    0    0    0  501 -0.00000000000E+00 -0.00000000000E+00 -0.12852918184E+02  0.12852918184E+02  0.00000000000E+00 0.  1.
         25    2    1    2    0    0  0.41236776064E+02  0.55508210110E+02  0.74583220861E+03  0.75940440119E+03  0.12509087917E+03 0.  0.
         23    2    1    2    0    0 -0.41236776064E+02 -0.55508210110E+02  0.53613150025E+03  0.54826514404E+03  0.91520760053E+02 0.  0.
          5    1    3    3  502    0 -0.21753756669E+02  0.28779783019E+02  0.59863803877E+02  0.70018920689E+02  0.41800000000E+01 0. -1.
         -5    1    3    3    0  502  0.62990532733E+02  0.26728427091E+02  0.68596840474E+03  0.68938548050E+03  0.41800000000E+01 0. -1.
        -11    1    4    4    0    0  0.13576374131E+02  0.18179310866E+02  0.94504329491E+02  0.97189884097E+02  0.00000000000E+00 0.  1.
         11    1    4    4    0    0 -0.54813150195E+02 -0.73687520976E+02  0.44162717075E+03  0.45107525994E+03  0.00000000000E+00 0. -1.
</event>
<event>
 8    1  0.6597859E-009  0.9676660E+02  0.7561462E-02  0.1287246E+00
         -1   -1    0    0    0  501 -0.00000000000E+00  0.00000000000E+00  0.25323864096E+03  0.25323864096E+03  0.00000000000E+00 0.  1.
          1   -1    0    0  501    0  0.00000000000E+00 -0.00000000000E+00 -0.56501652982E+02  0.56501652982E+02  0.00000000000E+00 0. -1.
         25    2    1    2    0    0 -0.49962909523E+02 -0.11325965463E+02  0.10122062589E+03  0.16887158070E+03  0.12508967120E+03 0.  0.
         23    2    1    2    0    0  0.49962909523E+02  0.11325965463E+02  0.95516362094E+02  0.14086871324E+03  0.89978047998E+02 0.  0.
          5    1    3    3  502    0 -0.80704268536E+02 -0.13710668945E+02  0.10939843259E+03  0.13669912529E+03  0.41800000000E+01 0. -1.
         -5    1    3    3    0  502  0.30741359013E+02  0.23847034814E+01 -0.81778067015E+01  0.32172455410E+02  0.41800000000E+01 0. -1.
        -11    1    4    4    0    0  0.46826162783E+02 -0.18581849501E+02  0.11557787961E+02  0.51687107816E+02  0.00000000000E+00 0. -1.
         11    1    4    4    0    0  0.31367467404E+01  0.29907814965E+02  0.83958574133E+02  0.89181605427E+02  0.00000000000E+00 0.  1.
</event>
<event>
 8    1  0.6597859E-009  0.9781929E+02  0.7561462E-02  0.1284950E+00
          2   -1    0    0  501    0  0.00000000000E+00  0.00000000000E+00  0.30460757438E+03  0.30460757438E+03  0.00000000000E+00 0.  1.
         -2   -1    0    0    0  501 -0.00000000000E+00 -0.00000000000E+00 -0.39050418356E+02  0.39050418356E+02  0.00000000000E+00 0. -1.
         25    2    1    2    0    0  0.48574920538E+01  0.15814288397E+02  0.14067708985E+03  0.18897305775E+03  0.12508831280E+03 0.  0.
         23    2    1    2    0    0 -0.48574920538E+01 -0.15814288397E+02  0.12488006618E+03  0.15468493499E+03  0.89770324929E+02 0.  0.
          5    1    3    3  502    0  0.43442962133E+02 -0.34882086165E+02  0.36333903975E+02  0.66645899140E+02  0.41800000000E+01 0. -1.
         -5    1    3    3    0  502 -0.38585470079E+02  0.50696374562E+02  0.10434318587E+03  0.12232715861E+03  0.41800000000E+01 0. -1.
        -11    1    4    4    0    0  0.29559118232E+02 -0.26691116393E+02  0.10746763575E+03  0.11460999040E+03  0.00000000000E+00 0.  1.
         11    1    4    4    0    0 -0.34416610286E+02  0.10876827995E+02  0.17412430427E+02  0.40074944594E+02  0.00000000000E+00 0. -1.
</event>
<event>
 8    1  0.6597859E-009  0.1100590E+03  0.7561462E-02  0.1260461E+00
          1   -1    0    0  501    0  0.00000000000E+00  0.00000000000E+00  0.13544396134E+03  0.13544396134E+03  0.00000000000E+00 0. -1.
         -1   -1    0    0    0  501 -0.00000000000E+00 -0.00000000000E+00 -0.16750263446E+03  0.16750263446E+03  0.00000000000E+00 0.  1.
         25    2    1    2    0    0 -0.30695180773E+01 -0.73888404125E+02  0.56008184604E+02  0.15573939468E+03  0.12509565983E+03 0.  0.
         23    2    1    2    0    0  0.30695180773E+01  0.73888404125E+02 -0.88066857720E+02  0.14720720112E+03  0.91898152467E+02 0.  0.
          5    1    3    3  502    0 -0.46258918442E+02 -0.11152518843E+02  0.63088139019E+02  0.79131863980E+02  0.41800000000E+01 0. -1.
         -5    1    3    3    0  502  0.43189400365E+02 -0.62735885282E+02 -0.70799544148E+01  0.76607530704E+02  0.41800000000E+01 0. -1.
        -11    1    4    4    0    0  0.29265508420E+02  0.18026863005E+02 -0.77271086122E+02  0.84571026501E+02  0.00000000000E+00 0.  1.
         11    1    4    4    0    0 -0.26195990343E+02  0.55861541119E+02 -0.10795771598E+02  0.62636174617E+02  0.00000000000E+00 0. -1.
</event>
<event>
 8    1  0.6597859E-009  0.9145829E+02  0.7561462E-02  0.1299358E+00
          1   -1    0    0  501    0  0.00000000000E+00  0.00000000000E+00  0.24416877264E+03  0.24416877264E+03  0.00000000000E+00 0. -1.
         -1   -1    0    0    0  501 -0.00000000000E+00 -0.00000000000E+00 -0.60549108205E+02  0.60549108205E+02  0.00000000000E+00 0.  1.
         25    2    1    2    0    0 -0.16597894948E+02 -0.14003302352E+02  0.16748849149E+03  0.21017059650E+03  0.12509077607E+03 0.  0.
         23    2    1    2    0    0  0.16597894948E+02  0.14003302352E+02  0.16131172947E+02  0.94547284348E+02  0.90594655711E+02 0.  0.
          5    1    3    3  502    0 -0.53699771516E+01  0.46266878153E+02  0.13007857189E+03  0.13822940328E+03  0.41800000000E+01 0. -1.
         -5    1    3    3    0  502 -0.11227917797E+02 -0.60270180505E+02  0.37409919601E+02  0.71941193211E+02  0.41800000000E+01 0. -1.
        -11    1    4    4    0    0 -0.11178998534E+01  0.41759488275E+02 -0.19438932308E+02  0.46075770752E+02  0.00000000000E+00 0.  1.
         11    1    4    4    0    0  0.17715794802E+02 -0.27756185923E+02  0.35570105255E+02  0.48471513596E+02  0.00000000000E+00 0. -1.
</event>
<event>
 8    1  0.6597859E-009  0.2058686E+03  0.7561462E-02  0.1144880E+00
         -2   -1    0    0    0  501 -0.00000000000E+00  0.00000000000E+00  0.42953379462E+02  0.42953379462E+02  0.00000000000E+00 0. -1.
          2   -1    0    0  501    0  0.00000000000E+00 -0.00000000000E+00 -0.16800344291E+04  0.16800344291E+04  0.00000000000E+00 0.  1.
         25    2    1    2    0    0 -0.18587257586E+03 -0.64695330981E+02 -0.13103596986E+04  0.13309485664E+04  0.12508975330E+03 0.  0.
         23    2    1    2    0    0  0.18587257586E+03  0.64695330981E+02 -0.32672135102E+03  0.39203924214E+03  0.90630159780E+02 0.  0.
          5    1    3    3  502    0 -0.13760758678E+03 -0.76909136155E+02 -0.65616193750E+03  0.67484577778E+03  0.41800000000E+01 0. -1.
         -5    1    3    3    0  502 -0.48264989080E+02  0.12213805174E+02 -0.65419776110E+03  0.65610278862E+03  0.41800000000E+01 0. -1.
        -11    1    4    4    0    0  0.10574162278E+03  0.82498193511E+01 -0.10326039512E+03  0.14802722556E+03  0.00000000000E+00 0. -1.
         11    1    4    4    0    0  0.80130953079E+02  0.56445511630E+02 -0.22346095590E+03  0.24401201659E+03  0.00000000000E+00 0.  1.
</event>
<event>
 8    1  0.6597859E-009  0.9828046E+02  0.7561462E-02  0.1283954E+00
          4   -1    0    0  501    0  0.00000000000E+00  0.00000000000E+00  0.74257210666E+03  0.74257210666E+03  0.00000000000E+00 0. -1.
         -4   -1    0    0    0  501 -0.00000000000E+00 -0.00000000000E+00 -0.20724508033E+02  0.20724508033E+02  0.00000000000E+00 0.  1.
         25    2    1    2    0    0  0.41754041961E+02  0.42530859312E+02  0.32607120095E+03  0.35429061772E+03  0.12508852747E+03 0.  0.
         23    2    1    2    0    0 -0.41754041961E+02 -0.42530859312E+02  0.39577639768E+03  0.40900599697E+03  0.84229891277E+02 0.  0.
          5    1    3    3  502    0 -0.79173082383E+01  0.42827518020E+02  0.27700998262E+02  0.51785111511E+02  0.41800000000E+01 0. -1.
         -5    1    3    3    0  502  0.49671350199E+02 -0.29665870866E+00  0.29837020268E+03  0.30250550621E+03  0.41800000000E+01 0. -1.
        -11    1    4    4    0    0 -0.18267431612E+02 -0.66760857972E+02  0.25311132628E+03  0.26240437250E+03  0.00000000000E+00 0. -1.
         11    1    4    4    0    0 -0.23486610349E+02  0.24229998661E+02  0.14266507140E+03  0.14660162447E+03  0.00000000000E+00 0.  1.
</event>
<event>
 8    1  0.6597859E-009  0.1195797E+03  0.7561462E-02  0.1243792E+00
          1   -1    0    0  501    0  0.00000000000E+00  0.00000000000E+00  0.80618272752E+03  0.80618272752E+03  0.00000000000E+00 0. -1.
         -1   -1    0    0    0  501 -0.00000000000E+00 -0.00000000000E+00 -0.18345630972E+02  0.18345630972E+02  0.00000000000E+00 0.  1.
         25    2    1    2    0    0 -0.48380666081E+02  0.16209134110E+02  0.50386492969E+03  0.52165340963E+03  0.12505593760E+03 0.  0.
         23    2    1    2    0    0  0.48380666081E+02 -0.16209134110E+02  0.28397216686E+03  0.30287494886E+03  0.92139124260E+02 0.  0.
          5    1    3    3  502    0  0.27383872812E+02  0.45715591876E+02  0.21360507299E+03  0.22019171519E+03  0.41800000000E+01 0.  1.
         -5    1    3    3    0  502 -0.75764538894E+02 -0.29506457767E+02  0.29025985670E+03  0.30146169444E+03  0.41800000000E+01 0.  1.
        -11    1    4    4    0    0 -0.38899303296E+01 -0.44626261895E+02  0.10141983154E+03  0.11087207511E+03  0.00000000000E+00 0.  1.
         11    1    4    4    0    0  0.52270596411E+02  0.28417127785E+02  0.18255233532E+03  0.19200287376E+03  0.00000000000E+00 0. -1.
</event>
<event>
 8    1  0.6597859E-009  0.1153050E+03  0.7561462E-02  0.1251050E+00
          2   -1    0    0  501    0  0.00000000000E+00  0.00000000000E+00  0.15244759141E+03  0.15244759141E+03  0.00000000000E+00 0. -1.
         -2   -1    0    0    0  501 -0.00000000000E+00 -0.00000000000E+00 -0.13427575480E+03  0.13427575480E+03  0.00000000000E+00 0.  1.
         25    2    1    2    0    0  0.81724473690E+02 -0.24477916241E+02  0.40967559247E+02  0.15685319266E+03  0.12508607098E+03 0.  0.
         23    2    1    2    0    0 -0.81724473690E+02  0.24477916241E+02 -0.22795722630E+02  0.12987015355E+03  0.95228954788E+02 0.  0.
          5    1    3    3  502    0 -0.20554000160E+02 -0.94688872560E+01  0.47922137598E+02  0.53161362101E+02  0.41800000000E+01 0. -1.
         -5    1    3    3    0  502  0.10227847385E+03 -0.15009028985E+02 -0.69545783512E+01  0.10369183056E+03  0.41800000000E+01 0. -1.
        -11    1    4    4    0    0 -0.75174578212E+02 -0.36450615949E+01 -0.49871060218E+02  0.90286357390E+02  0.00000000000E+00 0.  1.
         11    1    4    4    0    0 -0.65498954775E+01  0.28122977836E+02  0.27075337588E+02  0.39583796162E+02  0.00000000000E+00 0. -1.
</event>
<event>
 8    1  0.6597859E-009  0.1149747E+03  0.7561462E-02  0.1251625E+00
          3   -1    0    0  501    0  0.00000000000E+00  0.00000000000E+00  0.12865430222E+03  0.12865430222E+03  0.00000000000E+00 0. -1.
         -3   -1    0    0    0  501 -0.00000000000E+00 -0.00000000000E+00 -0.14893464312E+03  0.14893464312E+03  0.00000000000E+00 0.  1.
         25    2    1    2    0    0 -0.43238840983E+02 -0.57080443000E+02 -0.57146471752E+02  0.15505432044E+03  0.12509335998E+03 0.  0.
         23    2    1    2    0    0  0.43238840983E+02  0.57080443000E+02  0.36866130848E+02  0.12253462490E+03  0.92346349971E+02 0.  0.
          5    1    3    3  502    0 -0.13544303759E+02  0.23534911371E+02 -0.63115006853E+02  0.68835432065E+02  0.41800000000E+01 0.  1.
         -5    1    3    3    0  502 -0.29694537224E+02 -0.80615354371E+02  0.59685351017E+01  0.86218888375E+02  0.41800000000E+01 0.  1.
        -11    1    4    4    0    0  0.38877080541E+02 -0.16873616609E+02  0.18286027371E+02  0.46157611787E+02  0.00000000000E+00 0. -1.
         11    1    4    4    0    0  0.43617604421E+01  0.73954059609E+02  0.18580103477E+02  0.76377013113E+02  0.00000000000E+00 0.  1.
</event>
<event>
 8    1  0.6597859E-009  0.1136690E+03  0.7561462E-02  0.1253923E+00
          3   -1    0    0  501    0  0.00000000000E+00  0.00000000000E+00  0.13342021078E+03  0.13342021078E+03  0.00000000000E+00 0. -1.
         -3   -1    0    0    0  501 -0.00000000000E+00 -0.00000000000E+00 -0.14503558091E+03  0.14503558091E+03  0.00000000000E+00 0.  1.
         25    2    1    2    0    0 -0.81468549615E+02  0.27559111953E+02 -0.12848300561E+02  0.15235805392E+03  0.12510503004E+03 0.  0.
         23    2    1    2    0    0  0.81468549615E+02 -0.27559111953E+02  0.12329304314E+01  0.12609773776E+03  0.92208948167E+02 0.  0.
          5    1    3    3  502    0 -0.62473317225E+02 -0.17513173650E+02 -0.56901726311E+02  0.86399684453E+02  0.41800000000E+01 0. -1.
         -5    1    3    3    0  502 -0.18995232390E+02  0.45072285603E+02  0.44053425750E+02  0.65958369472E+02  0.41800000000E+01 0. -1.
        -11    1    4    4    0    0  0.64437462900E+02  0.16057680886E+02 -0.26700410242E+02  0.71574769630E+02  0.00000000000E+00 0.  1.
         11    1    4    4    0    0  0.17031086715E+02 -0.43616792839E+02  0.27933340674E+02  0.54522968128E+02  0.00000000000E+00 0. -1.
</event>
<event>
 8    1  0.6597859E-009  0.9398503E+02  0.7561462E-02  0.1293479E+00
         -4   -1    0    0    0  501 -0.00000000000E+00  0.00000000000E+00  0.19429584157E+03  0.19429584157E+03  0.00000000000E+00 0.  1.
          4   -1    0    0  501    0  0.00000000000E+00 -0.00000000000E+00 -0.62180329876E+02  0.62180329876E+02  0.00000000000E+00 0. -1.
         25    2    1    2    0    0 -0.20952014583E+01  0.19746431111E+02  0.10207497318E+03  0.16267023280E+03  0.12509193850E+03 0.  0.
         23    2    1    2    0    0  0.20952014583E+01 -0.19746431111E+02  0.30040538506E+02  0.93805938645E+02  0.86618755247E+02 0.  0.
          5    1    3    3  502    0 -0.26188690660E+02 -0.40602844762E+02  0.80673215616E+02  0.94127990732E+02  0.41800000000E+01 0.  1.
         -5    1    3    3    0  502  0.24093489202E+02  0.60349275873E+02  0.21401757568E+02  0.68542242065E+02  0.41800000000E+01 0.  1.
        -11    1    4    4    0    0 -0.24289717792E+02  0.16617809472E+02  0.38118366669E+02  0.48157573232E+02  0.00000000000E+00 0.  1.
         11    1    4    4    0    0  0.26384919250E+02 -0.36364240583E+02 -0.80778281635E+01  0.45648365413E+02  0.00000000000E+00 0. -1.
</event>
<event>
 8    1  0.6597859E-009  0.9861345E+02  0.7561462E-02  0.1283239E+00
         -1   -1    0    0    0  501 -0.00000000000E+00  0.00000000000E+00  0.28106758929E+02  0.28106758929E+02  0.00000000000E+00 0.  1.
          1   -1    0    0  501    0  0.00000000000E+00 -0.00000000000E+00 -0.46418488624E+03  0.46418488624E+03  0.00000000000E+00 0. -1.
         25    2    1    2    0    0 -0.17944743186E+02  0.34660538877E+02 -0.26445207786E+03  0.29513710871E+03  0.12509054597E+03 0.  0.
         23    2    1    2    0    0  0.17944743186E+02 -0.34660538877E+02 -0.17162604945E+03  0.19715453646E+03  0.88831546381E+02 0.  0.
          5    1    3    3  502    0  0.21405491139E+01  0.76004069735E+02 -0.10890490241E+03  0.13288698482E+03  0.41800000000E+01 0. -1.
         -5    1    3    3    0  502 -0.20085292300E+02 -0.41343530858E+02 -0.15554717545E+03  0.16225012389E+03  0.41800000000E+01 0. -1.
        -11    1    4    4    0    0  0.68607064490E+01  0.18963517223E+02 -0.36698905782E+01  0.20497618772E+02  0.00000000000E+00 0.  1.
         11    1    4    4    0    0  0.11084036737E+02 -0.53624056100E+02 -0.16795615887E+03  0.17665691768E+03  0.00000000000E+00 0. -1.
</event>
<event>
 8    1  0.6597859E-009  0.1594727E+03  0.7561462E-02  0.1189293E+00
          3   -1    0    0  501    0  0.00000000000E+00  0.00000000000E+00  0.42433380226E+03  0.42433380226E+03  0.00000000000E+00 0. -1.
         -3   -1    0    0    0  501 -0.00000000000E+00 -0.00000000000E+00 -0.73787844357E+02  0.73787844357E+02  0.00000000000E+00 0.  1.
         25    2    1    2    0    0  0.96582126002E+02  0.84756109957E+02  0.26074010057E+03  0.31645706210E+03  0.12509183373E+03 0.  0.
         23    2    1    2    0    0 -0.96582126002E+02 -0.84756109957E+02  0.89805857332E+02  0.18166458452E+03  0.91789019060E+02 0.  0.
          5    1    3    3  502    0  0.77244081737E+02  0.11634453396E+03  0.18294149227E+03  0.23019070515E+03  0.41800000000E+01 0.  1.
         -5    1    3    3    0  502  0.19338044265E+02 -0.31588423999E+02  0.77798608302E+02  0.86266356945E+02  0.41800000000E+01 0.  1.
        -11    1    4    4    0    0 -0.10113540070E+03 -0.61730025045E+02  0.37410200801E+02  0.12425171384E+03  0.00000000000E+00 0.  1.
         11    1    4    4    0    0  0.45532747007E+01 -0.23026084912E+02  0.52395656532E+02  0.57412870685E+02  0.00000000000E+00 0. -1.
</event>
<event>
 8    1  0.6597859E-009  0.7907636E+02  0.7561462E-02  0.1331693E+00
         -1   -1    0    0    0  501 -0.00000000000E+00  0.00000000000E+00  0.13945357626E+03  0.13945357626E+03  0.00000000000E+00 0.  1.
          1   -1    0    0  501    0  0.00000000000E+00 -0.00000000000E+00 -0.10148207631E+03  0.10148207631E+03  0.00000000000E+00 0. -1.
         25    2    1    2    0    0 -0.10285840298E+02 -0.14974619862E+02  0.77483075452E+02  0.14825821097E+03  0.12508729907E+03 0.  0.
         23    2    1    2    0    0  0.10285840298E+02  0.14974619862E+02 -0.39511575501E+02  0.92677441592E+02  0.81840734545E+02 0.  0.
          5    1    3    3  502    0  0.40591212384E+02 -0.34468128784E+01  0.85984496230E+02  0.95238296046E+02  0.41800000000E+01 0.  1.
         -5    1    3    3    0  502 -0.50877052682E+02 -0.11527806983E+02 -0.85014207778E+01  0.53019914926E+02  0.41800000000E+01 0.  1.
        -11    1    4    4    0    0 -0.69095880852E+01 -0.22553178277E+02  0.12162954951E+02  0.26539135839E+02  0.00000000000E+00 0.  1.
         11    1    4    4    0    0  0.17195428383E+02  0.37527798139E+02 -0.51674530452E+02  0.66138305753E+02  0.00000000000E+00 0. -1.
</event>
<event>
 8    1  0.6597859E-009  0.1143126E+03  0.7561462E-02  0.1252786E+00
         -3   -1    0    0    0  501 -0.00000000000E+00  0.00000000000E+00  0.11957452900E+03  0.11957452900E+03  0.00000000000E+00 0.  1.
          3   -1    0    0  501    0  0.00000000000E+00 -0.00000000000E+00 -0.14429258325E+03  0.14429258325E+03  0.00000000000E+00 0. -1.
         25    2    1    2    0    0  0.31021340513E+01  0.56075253126E+02 -0.62241018294E+02  0.15058103252E+03  0.12508655303E+03 0.  0.
         23    2    1    2    0    0 -0.31021340513E+01 -0.56075253126E+02  0.37522964049E+02  0.11328607973E+03  0.90948918527E+02 0.  0.
          5    1    3    3  502    0  0.61960979086E+02  0.31982309639E+02 -0.15525549093E+02  0.71557991404E+02  0.41800000000E+01 0.  1.
         -5    1    3    3    0  502 -0.58858845035E+02  0.24092943487E+02 -0.46715469201E+02  0.79023041117E+02  0.41800000000E+01 0.  1.
        -11    1    4    4    0    0  0.25391228368E+02  0.65591246445E+01  0.35897059905E+02  0.44455995141E+02  0.00000000000E+00 0.  1.
         11    1    4    4    0    0 -0.28493362419E+02 -0.62634377770E+02  0.16259041442E+01  0.68830084592E+02  0.00000000000E+00 0. -1.
</event>
<event>
 8    1  0.6597859E-009  0.8747395E+02  0.7561462E-02  0.1309087E+00
         -2   -1    0    0    0  501 -0.00000000000E+00  0.00000000000E+00  0.19528848379E+02  0.19528848379E+02  0.00000000000E+00 0. -1.
          2   -1    0    0  501    0  0.00000000000E+00 -0.00000000000E+00 -0.63802183823E+03  0.63802183823E+03  0.00000000000E+00 0.  1.
         25    2    1    2    0    0 -0.87495870712E+01 -0.27385338613E+01 -0.42275079186E+03  0.44096461146E+03  0.12508997440E+03 0.  0.
         23    2    1    2    0    0  0.87495870712E+01  0.27385338613E+01 -0.19574219799E+03  0.21658607515E+03  0.92252181731E+02 0.  0.
          5    1    3    3  502    0  0.46455131097E+02 -0.10122416213E+02 -0.75998618709E+02  0.89742993937E+02  0.41800000000E+01 0.  1.
         -5    1    3    3    0  502 -0.55204718168E+02  0.73838823519E+01 -0.34675217315E+03  0.35122161752E+03  0.41800000000E+01 0.  1.
        -11    1    4    4    0    0  0.22161421328E+02 -0.29239942411E+02 -0.30401950609E+02  0.47648519686E+02  0.00000000000E+00 0. -1.
         11    1    4    4    0    0 -0.13411834257E+02  0.31978476272E+02 -0.16534024738E+03  0.16893755546E+03  0.00000000000E+00 0.  1.
</event>
<event>
 8    1  0.6597859E-009  0.1049537E+03  0.7561462E-02  0.1270211E+00
          1   -1    0    0  501    0  0.00000000000E+00  0.00000000000E+00  0.30432429740E+03  0.30432429740E+03  0.00000000000E+00 0. -1.
         -1   -1    0    0    0  501 -0.00000000000E+00 -0.00000000000E+00 -0.66522304586E+02  0.66522304586E+02  0.00000000000E+00 0.  1.
         25    2    1    2    0    0 -0.88311907240E+02  0.21438507982E+02  0.14446773870E+03  0.21160493342E+03  0.12508843966E+03 0.  0.
         23    2    1    2    0    0  0.88311907240E+02 -0.21438507982E+02  0.93334254114E+02  0.15924166857E+03  0.91586153057E+02 0.  0.
          5    1    3    3  502    0 -0.27502805920E+02  0.21994538210E+02 -0.16771114857E+02  0.39228901822E+02  0.41800000000E+01 0.  1.
         -5    1    3    3    0  502 -0.60809101319E+02 -0.55603022835E+00  0.16123885356E+03  0.17237603160E+03  0.41800000000E+01 0.  1.
        -11    1    4    4    0    0  0.61372799388E+02  0.19575577563E+02  0.89156460870E+02  0.10999408282E+03  0.00000000000E+00 0. -1.
         11    1    4    4    0    0  0.26939107852E+02 -0.41014085545E+02  0.41777932441E+01  0.49247585741E+02  0.00000000000E+00 0.  1.
</event>
<event>
 8    1  0.6597859E-009  0.8903837E+02  0.7561462E-02  0.1305197E+00
          2   -1    0    0  501    0  0.00000000000E+00  0.00000000000E+00  0.17890043119E+03  0.17890043119E+03  0.00000000000E+00 0. -1.
         -2   -1    0    0    0  501 -0.00000000000E+00 -0.00000000000E+00 -0.80722925921E+02  0.80722925921E+02  0.00000000000E+00 0.  1.
         25    2    1    2    0    0 -0.49158805880E+02  0.15092746129E+02  0.59099482808E+02  0.14759537549E+03  0.12508903556E+03 0.  0.
         23    2    1    2    0    0  0.49158805880E+02 -0.15092746129E+02  0.39078022463E+02  0.11202798162E+03  0.91535772490E+02 0.  0.
          5    1    3    3  502    0 -0.61269142989E+02  0.48616935516E+02 -0.14747160838E+00  0.78326294752E+02  0.41800000000E+01 0. -1.
         -5    1    3    3    0  502  0.12110337110E+02 -0.33524189387E+02  0.59246954416E+02  0.69269080740E+02  0.41800000000E+01 0. -1.
        -11    1    4    4    0    0  0.29463741590E+02 -0.27730319729E+02 -0.22399487960E+02  0.46247375727E+02  0.00000000000E+00 0.  1.
         11    1    4    4    0    0  0.19695064289E+02  0.12637573601E+02  0.61477510424E+02  0.65780605894E+02  0.00000000000E+00 0. -1.
</event>
<event>
 8    1  0.6597859E-009  0.1006364E+03  0.7561462E-02  0.1278963E+00
          2   -1    0    0  501    0  0.00000000000E+00  0.00000000000E+00  0.30805743242E+03  0.30805743242E+03  0.00000000000E+00 0. -1.
         -2   -1    0    0    0  501 -0.00000000000E+00 -0.00000000000E+00 -0.45362303663E+02  0.45362303663E+02  0.00000000000E+00 0.  1.
         25    2    1    2    0    0 -0.11569167962E+01  0.42885096759E+02  0.17428711208E+03  0.21877607856E+03  0.12508599096E+03 0.  0.
         23    2    1    2    0    0  0.11569167962E+01 -0.42885096759E+02  0.88408016684E+02  0.13464365752E+03  0.92046005439E+02 0.  0.
          5    1    3    3  502    0  0.59455365722E+02  0.68034654750E+01  0.97032881228E+02  0.11407927110E+03  0.41800000000E+01 0.  1.
         -5    1    3    3    0  502 -0.60612282519E+02  0.36081631284E+02  0.77254230848E+02  0.10469680746E+03  0.41800000000E+01 0.  1.
        -11    1    4    4    0    0 -0.26068394367E+02 -0.99810153793E+01 -0.81360908474E+01  0.29075381805E+02  0.00000000000E+00 0.  1.
         11    1    4    4    0    0  0.27225311163E+02 -0.32904081379E+02  0.96544107532E+02  0.10556827572E+03  0.00000000000E+00 0. -1.
</event>
<event>
 8    1  0.6597859E-009  0.1204486E+03  0.7561462E-02  0.1242359E+00
          2   -1    0    0  501    0  0.00000000000E+00  0.00000000000E+00  0.73272337833E+03  0.73272337833E+03  0.00000000000E+00 0. -1.
         -2   -1    0    0    0  501 -0.00000000000E+00 -0.00000000000E+00 -0.22593680402E+02  0.22593680402E+02  0.00000000000E+00 0.  1.
         25    2    1    2    0    0 -0.66197802553E+02  0.20824006849E+02  0.37380595638E+03  0.40024252644E+03  0.12508956240E+03 0.  0.
         23    2    1    2    0    0  0.66197802553E+02 -0.20824006849E+02  0.33632374155E+03  0.35507453229E+03  0.90268909543E+02 0.  0.
          5    1    3    3  502    0 -0.95221781952E+01  0.64555145238E+02  0.12190763451E+03  0.13833648256E+03  0.41800000000E+01 0. -1.
         -5    1    3    3    0  502 -0.56675624358E+02 -0.43731138390E+02  0.25189832187E+03  0.26190604388E+03  0.41800000000E+01 0. -1.
        -11    1    4    4    0    0  0.42993005040E+02  0.26914457595E+02  0.92045416355E+02  0.10509588566E+03  0.00000000000E+00 0. -1.
         11    1    4    4    0    0  0.23204797513E+02 -0.47738464443E+02  0.24427832519E+03  0.24997864663E+03  0.00000000000E+00 0.  1.
</event>
<event>
 8    1  0.6597859E-009  0.1402372E+03  0.7561462E-02  0.1213010E+00
          1   -1    0    0  501    0  0.00000000000E+00  0.00000000000E+00  0.14637690717E+04  0.14637690717E+04  0.00000000000E+00 0. -1.
         -1   -1    0    0    0  501 -0.00000000000E+00 -0.00000000000E+00 -0.17917207047E+02  0.17917207047E+02  0.00000000000E+00 0.  1.
         25    2    1    2    0    0 -0.63104759885E+02 -0.86750079795E+02  0.10308793044E+04  0.10439671912E+04  0.12509024354E+03 0.  0.
         23    2    1    2    0    0  0.63104759885E+02  0.86750079795E+02  0.41497256029E+03  0.43771908756E+03  0.88814338722E+02 0.  0.
          5    1    3    3  502    0 -0.85050213723E+02 -0.46585967755E+02  0.90066895785E+03  0.90588400763E+03  0.41800000000E+01 0.  1.
         -5    1    3    3    0  502  0.21945453838E+02 -0.40164112040E+02  0.13021034653E+03  0.13808318356E+03  0.41800000000E+01 0.  1.
        -11    1    4    4    0    0  0.18251894858E+02  0.90613397649E+02  0.24407632772E+03  0.26099266896E+03  0.00000000000E+00 0.  1.
         11    1    4    4    0    0  0.44852865027E+02 -0.38633178541E+01  0.17089623257E+03  0.17672641860E+03  0.00000000000E+00 0. -1.
</event>
<event>
 8    1  0.6597859E-009  0.1181265E+03  0.7561462E-02  0.1246220E+00
          3   -1    0    0  501    0  0.00000000000E+00  0.00000000000E+00  0.53852545845E+03  0.53852545845E+03  0.00000000000E+00 0.  1.
         -3   -1    0    0    0  501 -0.00000000000E+00 -0.00000000000E+00 -0.39096388745E+02  0.39096388745E+02  0.00000000000E+00 0. -1.
         25    2    1    2    0    0  0.75909276036E+02 -0.30023139177E+02  0.16908190157E+03  0.22561203893E+03  0.12509394708E+03 0.  0.
         23    2    1    2    0    0 -0.75909276036E+02  0.30023139177E+02  0.33034716813E+03  0.35200980826E+03  0.90100202816E+02 0.  0.
          5    1    3    3  502    0  0.26867772904E+02  0.45722126073E+02  0.34082060266E+02  0.63177917546E+02  0.41800000000E+01 0.  1.
         -5    1    3    3    0  502  0.49041503133E+02 -0.75745265250E+02  0.13499984131E+03  0.16243412139E+03  0.41800000000E+01 0.  1.
        -11    1    4    4    0    0 -0.16539756071E+02  0.28954222453E+02  0.27000549203E+02  0.42906178879E+02  0.00000000000E+00 0. -1.
         11    1    4    4    0    0 -0.59369519966E+02  0.10689167235E+01  0.30334661893E+03  0.30910362938E+03  0.00000000000E+00 0.  1.
</event>
<event>
 8    1  0.6597859E-009  0.1128686E+03  0.7561462E-02  0.1255348E+00
          1   -1    0    0  501    0  0.00000000000E+00  0.00000000000E+00  0.33164252390E+03  0.33164252390E+03  0.00000000000E+00 0. -1.
         -1   -1    0    0    0  501 -0.00000000000E+00 -0.00000000000E+00 -0.41510310059E+02  0.41510310059E+02  0.00000000000E+00 0.  1.
         25    2    1    2    0    0  0.53175276099E+02 -0.13848813091E+02  0.21602436515E+03  0.25560753733E+03  0.12509711105E+03 0.  0.
         23    2    1    2    0    0 -0.53175276099E+02  0.13848813091E+02  0.74107848698E+02  0.11754529663E+03  0.72839027372E+02 0.  0.
          5    1    3    3  502    0 -0.31037911726E+02 -0.37314814018E+02  0.68097316846E+02  0.83728515281E+02  0.41800000000E+01 0.  1.
         -5    1    3    3    0  502  0.84213187824E+02  0.23466000927E+02  0.14792704830E+03  0.17187902205E+03  0.41800000000E+01 0.  1.
        -11    1    4    4    0    0 -0.55114262492E+02  0.36926529115E+02  0.44190796469E+02  0.79711837108E+02  0.00000000000E+00 0. -1.
         11    1    4    4    0    0  0.19389863938E+01 -0.23077716025E+02  0.29917052229E+02  0.37833459520E+02  0.00000000000E+00 0.  1.
</event>
<event>
 8    1  0.6597859E-009  0.1025857E+03  0.7561462E-02  0.1274951E+00
         -4   -1    0    0    0  501 -0.00000000000E+00  0.00000000000E+00  0.46013900442E+03  0.46013900442E+03  0.00000000000E+00 0. -1.
          4   -1    0    0  501    0  0.00000000000E+00 -0.00000000000E+00 -0.28399400900E+02  0.28399400900E+02  0.00000000000E+00 0.  1.
         25    2    1    2    0    0 -0.25403665879E+02  0.69759014762E+01  0.28917359465E+03  0.31616863157E+03  0.12508887362E+03 0.  0.
         23    2    1    2    0    0  0.25403665879E+02 -0.69759014762E+01  0.14256600887E+03  0.17236977375E+03  0.93232304363E+02 0.  0.
          5    1    3    3  502    0 -0.68393536101E+02 -0.10491969150E+01  0.24281692563E+03  0.25230201816E+03  0.41800000000E+01 0.  1.
         -5    1    3    3    0  502  0.42989870222E+02  0.80250983912E+01  0.46356669022E+02  0.63866613411E+02  0.41800000000E+01 0.  1.
        -11    1    4    4    0    0  0.53571330323E+02 -0.25157574696E+02  0.65221789412E+02  0.88071975175E+02  0.00000000000E+00 0.  1.
         11    1    4    4    0    0 -0.28167664444E+02  0.18181673220E+02  0.77344219460E+02  0.84297798578E+02  0.00000000000E+00 0. -1.
</event>
<event>
 8    1  0.6597859E-009  0.9069714E+02  0.7561462E-02  0.1301172E+00
          1   -1    0    0  501    0  0.00000000000E+00  0.00000000000E+00  0.26304774724E+03  0.26304774724E+03  0.00000000000E+00 0. -1.
         -1   -1    0    0    0  501 -0.00000000000E+00 -0.00000000000E+00 -0.52766340849E+02  0.52766340849E+02  0.00000000000E+00 0.  1.
         25    2    1    2    0    0  0.30790957432E+02  0.10434680480E+02  0.15276749502E+03  0.20010428862E+03  0.12508738216E+03 0.  0.
         23    2    1    2    0    0 -0.30790957432E+02 -0.10434680480E+02  0.57513911374E+02  0.11570979947E+03  0.94994431808E+02 0.  0.
          5    1    3    3  502    0 -0.11383740426E+02  0.55647656122E+02  0.11280023343E+03  0.12636303352E+03  0.41800000000E+01 0. -1.
         -5    1    3    3    0  502  0.42174697858E+02 -0.45212975642E+02  0.39967261587E+02  0.73741255106E+02  0.41800000000E+01 0. -1.
        -11    1    4    4    0    0 -0.74352123472E+01  0.21589168093E+02  0.70416874563E+02  0.74026419505E+02  0.00000000000E+00 0. -1.
         11    1    4    4    0    0 -0.23355745085E+02 -0.32023848573E+02 -0.12902963188E+02  0.41683379961E+02  0.00000000000E+00 0.  1.
</event>
<event>
 8    1  0.6597859E-009  0.7481877E+02  0.7561462E-02  0.1344433E+00
         -1   -1    0    0    0  501 -0.00000000000E+00  0.00000000000E+00  0.11740516245E+03  0.11740516245E+03  0.00000000000E+00 0.  1.
          1   -1    0    0  501    0  0.00000000000E+00 -0.00000000000E+00 -0.17366089714E+03  0.17366089714E+03  0.00000000000E+00 0. -1.
         25    2    1    2    0    0 -0.48066892704E+02  0.21915842489E+02 -0.10805769698E+03  0.17353575157E+03  0.12508981121E+03 0.  0.
         23    2    1    2    0    0  0.48066892704E+02 -0.21915842489E+02  0.51801962290E+02  0.11753030802E+03  0.91319218574E+02 0.  0.
          5    1    3    3  502    0  0.49902284815E+01  0.21238651845E+02  0.23064593613E+02  0.32022345183E+02  0.41800000000E+01 0. -1.
         -5    1    3    3    0  502 -0.53057121186E+02  0.67719064433E+00 -0.13112229059E+03  0.14151340638E+03  0.41800000000E+01 0. -1.
        -11    1    4    4    0    0  0.49428580283E+02  0.27399727092E+01  0.70788699702E+02  0.86381317452E+02  0.00000000000E+00 0.  1.
         11    1    4    4    0    0 -0.13616875786E+01 -0.24655815198E+02 -0.18986737412E+02  0.31148990573E+02  0.00000000000E+00 0. -1.
</event>
<event>
 8    1  0.6597859E-009  0.1069153E+03  0.7561462E-02  0.1266391E+00
          1   -1    0    0  501    0  0.00000000000E+00  0.00000000000E+00  0.25562130556E+03  0.25562130556E+03  0.00000000000E+00 0. -1.
         -1   -1    0    0    0  501 -0.00000000000E+00 -0.00000000000E+00 -0.49011545953E+02  0.49011545953E+02  0.00000000000E+00 0.  1.
         25    2    1    2    0    0  0.19002117503E+01  0.14356465810E+02  0.15104346754E+03  0.19665013371E+03  0.12508967618E+03 0.  0.
         23    2    1    2    0    0 -0.19002117503E+01 -0.14356465810E+02  0.55566292069E+02  0.10798271780E+03  0.91449087556E+02 0.  0.
          5    1    3    3  502    0  0.54944726881E+02  0.33946089840E+02  0.10616906054E+03  0.12434066850E+03  0.41800000000E+01 0. -1.
         -5    1    3    3    0  502 -0.53044515131E+02 -0.19589624031E+02  0.44874407001E+02  0.72309465209E+02  0.41800000000E+01 0. -1.
        -11    1    4    4    0    0  0.36158647444E+02 -0.33953954362E+02  0.33163140316E+02  0.59666679792E+02  0.00000000000E+00 0. -1.
         11    1    4    4    0    0 -0.38058859194E+02  0.19597488553E+02  0.22403151753E+02  0.48316038012E+02  0.00000000000E+00 0.  1.
</event>
<event>
 8    1  0.6597859E-009  0.1337927E+03  0.7561462E-02  0.1221934E+00
          4   -1    0    0  501    0  0.00000000000E+00  0.00000000000E+00  0.13239483234E+03  0.13239483234E+03  0.00000000000E+00 0. -1.
         -4   -1    0    0    0  501 -0.00000000000E+00 -0.00000000000E+00 -0.19513150726E+03  0.19513150726E+03  0.00000000000E+00 0.  1.
         25    2    1    2    0    0  0.74789735803E+01 -0.11237041849E+03 -0.39460537524E+02  0.17288023608E+03  0.12508955196E+03 0.  0.
         23    2    1    2    0    0 -0.74789735803E+01  0.11237041849E+03 -0.23276137394E+02  0.15464610352E+03  0.10339532275E+03 0.  0.
          5    1    3    3  502    0 -0.22299178719E+01 -0.10952331967E+03  0.20844307380E+02  0.11158981869E+03  0.41800000000E+01 0. -1.
         -5    1    3    3    0  502  0.97088914522E+01 -0.28470988170E+01 -0.60304844903E+02  0.61290417389E+02  0.41800000000E+01 0. -1.
        -11    1    4    4    0    0  0.42560820062E+02  0.36188920841E+02  0.11595258088E+02  0.57057089008E+02  0.00000000000E+00 0. -1.
         11    1    4    4    0    0 -0.50039793642E+02  0.76181497646E+02 -0.34871395483E+02  0.97589014516E+02  0.00000000000E+00 0.  1.
</event>
<event>
 8    1  0.6597859E-009  0.1302558E+03  0.7561462E-02  0.1227077E+00
         -3   -1    0    0    0  501 -0.00000000000E+00  0.00000000000E+00  0.33421054613E+02  0.33421054613E+02  0.00000000000E+00 0.  1.
          3   -1    0    0  501    0  0.00000000000E+00 -0.00000000000E+00 -0.52502758955E+03  0.52502758955E+03  0.00000000000E+00 0. -1.
         25    2    1    2    0    0  0.52560438124E+02  0.54858619917E+02 -0.27961934629E+03  0.31560623190E+03  0.12509295330E+03 0.  0.
         23    2    1    2    0    0 -0.52560438124E+02 -0.54858619917E+02 -0.21198718865E+03  0.24284241226E+03  0.90894450902E+02 0.  0.
          5    1    3    3  502    0 -0.16981496590E+02 -0.30702848761E+02 -0.81594897406E+02  0.88917016544E+02  0.41800000000E+01 0. -1.
         -5    1    3    3    0  502  0.69541934715E+02  0.85561468678E+02 -0.19802444888E+03  0.22668921536E+03  0.41800000000E+01 0. -1.
        -11    1    4    4    0    0 -0.73213703747E+02 -0.58690809320E+02 -0.14565345123E+03  0.17326218679E+03  0.00000000000E+00 0.  1.
         11    1    4    4    0    0  0.20653265623E+02  0.38321894035E+01 -0.66333737421E+02  0.69580225472E+02  0.00000000000E+00 0. -1.
</event>
<event>
 8    1  0.6597859E-009  0.1305349E+03  0.7561462E-02  0.1226664E+00
         -3   -1    0    0    0  501 -0.00000000000E+00  0.00000000000E+00  0.39573111599E+03  0.39573111599E+03  0.00000000000E+00 0.  1.
          3   -1    0    0  501    0  0.00000000000E+00 -0.00000000000E+00 -0.83732980771E+02  0.83732980771E+02  0.00000000000E+00 0. -1.
         25    2    1    2    0    0 -0.89922438064E+02  0.14096566386E+02  0.31243339497E+03  0.34863686392E+03  0.12509307949E+03 0.  0.
         23    2    1    2    0    0  0.89922438064E+02 -0.14096566386E+02 -0.43525974978E+00  0.13082723285E+03  0.93972428680E+02 0.  0.
          5    1    3    3  502    0 -0.30092924502E+02  0.52469590140E+02  0.23812621784E+03  0.24572384910E+03  0.41800000000E+01 0.  1.
         -5    1    3    3    0  502 -0.59829513561E+02 -0.38373023754E+02  0.74307177130E+02  0.10291301481E+03  0.41800000000E+01 0.  1.
        -11    1    4    4    0    0  0.91127551337E+02  0.21493333194E+02  0.87950002636E+01  0.94040129807E+02  0.00000000000E+00 0.  1.
         11    1    4    4    0    0 -0.12051132730E+01 -0.35589899580E+02 -0.92302600134E+01  0.36787103040E+02  0.00000000000E+00 0. -1.
</event>
<event>
 8    1  0.6597859E-009  0.1184572E+03  0.7561462E-02  0.1245664E+00
          2   -1    0    0  501    0  0.00000000000E+00  0.00000000000E+00  0.39004975744E+03  0.39004975744E+03  0.00000000000E+00 0. -1.
         -2   -1    0    0    0  501 -0.00000000000E+00 -0.00000000000E+00 -0.46726506190E+02  0.46726506190E+02  0.00000000000E+00 0.  1.
         25    2    1    2    0    0 -0.13584500445E+02 -0.53786844450E+02  0.28025032802E+03  0.31187556320E+03  0.12509419360E+03 0.  0.
         23    2    1    2    0    0  0.13584500445E+02  0.53786844450E+02  0.63072923228E+02  0.12490070043E+03  0.92436075405E+02 0.  0.
          5    1    3    3  502    0 -0.54736931336E+02  0.11199625857E+02  0.15518674022E+03  0.16499078765E+03  0.41800000000E+01 0. -1.
         -5    1    3    3    0  502  0.41152430890E+02 -0.64986470307E+02  0.12506358781E+03  0.14688477554E+03  0.41800000000E+01 0. -1.
        -11    1    4    4    0    0 -0.97130223036E+01  0.73007382094E+02  0.59113555957E+02  0.94439574016E+02  0.00000000000E+00 0.  1.
         11    1    4    4    0    0  0.23297522749E+02 -0.19220537643E+02  0.39593672709E+01  0.30461126419E+02  0.00000000000E+00 0. -1.
</event>
<event>
 8    1  0.6597859E-009  0.1270115E+03  0.7561462E-02  0.1231959E+00
         -1   -1    0    0    0  501 -0.00000000000E+00  0.00000000000E+00  0.28058677511E+02  0.28058677511E+02  0.00000000000E+00 0. -1.
          1   -1    0    0  501    0  0.00000000000E+00 -0.00000000000E+00 -0.73108670168E+03  0.73108670168E+03  0.00000000000E+00 0.  1.
         25    2    1    2    0    0 -0.78007322894E+01 -0.90802034604E+02 -0.43403941708E+03  0.46080725815E+03  0.12508897903E+03 0.  0.
         23    2    1    2    0    0  0.78007322894E+01  0.90802034604E+02 -0.26898860709E+03  0.29833812104E+03  0.91350439560E+02 0.  0.
          5    1    3    3  502    0 -0.42312979817E+02 -0.10781090252E+03 -0.33458190171E+03  0.35408487728E+03  0.41800000000E+01 0.  1.
         -5    1    3    3    0  502  0.34512247528E+02  0.17008867912E+02 -0.99457515365E+02  0.10672238088E+03  0.41800000000E+01 0.  1.
        -11    1    4    4    0    0  0.23205157563E+02  0.68497246240E+02 -0.25985846375E+03  0.26973463490E+03  0.00000000000E+00 0.  1.
         11    1    4    4    0    0 -0.15404425273E+02  0.22304788364E+02 -0.91301433371E+01  0.28603486139E+02  0.00000000000E+00 0. -1.
</event>
<event>
 8    1  0.6597859E-009  0.1112257E+03  0.7561462E-02  0.1258317E+00
          2   -1    0    0  501    0  0.00000000000E+00  0.00000000000E+00  0.44100870928E+03  0.44100870928E+03  0.00000000000E+00 0. -1.
         -2   -1    0    0    0  501 -0.00000000000E+00 -0.00000000000E+00 -0.37715601353E+02  0.37715601353E+02  0.00000000000E+00 0.  1.
         25    2    1    2    0    0 -0.17622836436E+02 -0.61091938169E+02  0.27913389899E+03  0.31242618556E+03  0.12510634909E+03 0.  0.
         23    2    1    2    0    0  0.17622836436E+02  0.61091938169E+02  0.12415920893E+03  0.16629812507E+03  0.90536003703E+02 0.  0.
          5    1    3    3  502    0  0.21624592122E+02  0.30885686341E+02  0.53445422597E+02  0.65539562112E+02  0.41800000000E+01 0. -1.
         -5    1    3    3    0  502 -0.39247428557E+02 -0.91977624511E+02  0.22568847639E+03  0.24688662344E+03  0.41800000000E+01 0. -1.
        -11    1    4    4    0    0  0.36201392097E+02  0.52954016950E+02  0.13019256200E+03  0.14513707969E+03  0.00000000000E+00 0. -1.
         11    1    4    4    0    0 -0.18578555661E+02  0.81379212188E+01 -0.60333530719E+01  0.21161045378E+02  0.00000000000E+00 0.  1.
</event>
<event>
 8    1  0.6597859E-009  0.1141280E+03  0.7561462E-02  0.1253111E+00
          2   -1    0    0  501    0  0.00000000000E+00  0.00000000000E+00  0.11107318323E+03  0.11107318323E+03  0.00000000000E+00 0. -1.
         -2   -1    0    0    0  501 -0.00000000000E+00 -0.00000000000E+00 -0.12666407276E+03  0.12666407276E+03  0.00000000000E+00 0.  1.
         25    2    1    2    0    0 -0.33007808005E+02  0.35280974852E+02  0.18577684046E+01  0.13410905810E+03  0.12509006989E+03 0.  0.
         23    2    1    2    0    0  0.33007808005E+02 -0.35280974852E+02 -0.17448657932E+02  0.10362819789E+03  0.90000473104E+02 0.  0.
          5    1    3    3  502    0 -0.11985584104E+02  0.81851455474E+02  0.10375307510E+01  0.82836367977E+02  0.41800000000E+01 0. -1.
         -5    1    3    3    0  502 -0.21022223901E+02 -0.46570480622E+02  0.82023765358E+00  0.51272690128E+02  0.41800000000E+01 0. -1.
        -11    1    4    4    0    0 -0.41497988539E+01  0.23912729074E+02  0.12840119752E+02  0.27457387304E+02  0.00000000000E+00 0. -1.
         11    1    4    4    0    0  0.37157606859E+02 -0.59193703926E+02 -0.30288777684E+02  0.76170810588E+02  0.00000000000E+00 0.  1.
</event>
<event>
 8    1  0.6597859E-009  0.7640440E+02  0.7561462E-02  0.1339576E+00
         -1   -1    0    0    0  501 -0.00000000000E+00  0.00000000000E+00  0.10117311841E+03  0.10117311841E+03  0.00000000000E+00 0.  1.
          1   -1    0    0  501    0  0.00000000000E+00 -0.00000000000E+00 -0.15557610231E+03  0.15557610231E+03  0.00000000000E+00 0. -1.
         25    2    1    2    0    0  0.43200499319E+02 -0.22395308900E+02  0.11393195143E+02  0.13470364326E+03  0.12508970225E+03 0.  0.
         23    2    1    2    0    0 -0.43200499319E+02  0.22395308900E+02 -0.65796179044E+02  0.12204557747E+03  0.90543651354E+02 0.  0.
          5    1    3    3  502    0  0.38069650763E+02 -0.61530076229E+01 -0.54287513812E+02  0.66721543507E+02  0.41800000000E+01 0.  1.
         -5    1    3    3    0  502  0.51308485564E+01 -0.16242301277E+02  0.65680708955E+02  0.67982099751E+02  0.41800000000E+01 0.  1.
        -11    1    4    4    0    0 -0.51335303704E+02 -0.18664108512E+02 -0.57621859664E+02  0.79397361821E+02  0.00000000000E+00 0. -1.
         11    1    4    4    0    0  0.81348043842E+01  0.41059417412E+02 -0.81743193801E+01  0.42648215647E+02  0.00000000000E+00 0.  1.
</event>
<event>
 8    1  0.6597859E-009  0.1301177E+03  0.7561462E-02  0.1227281E+00
         -2   -1    0    0    0  501 -0.00000000000E+00  0.00000000000E+00  0.26364444436E+02  0.26364444436E+02  0.00000000000E+00 0.  1.
          2   -1    0    0  501    0  0.00000000000E+00 -0.00000000000E+00 -0.82012630183E+03  0.82012630183E+03  0.00000000000E+00 0. -1.
         25    2    1    2    0    0  0.56567782950E+02 -0.78281995164E+02 -0.38137906351E+03  0.41282572470E+03  0.12508838499E+03 0.  0.
         23    2    1    2    0    0 -0.56567782950E+02  0.78281995164E+02 -0.41238279388E+03  0.43366502156E+03  0.93154696069E+02 0.  0.
          5    1    3    3  502    0  0.98925687253E+01  0.17836359524E+02 -0.48103178214E+01  0.21368439217E+02  0.41800000000E+01 0. -1.
         -5    1    3    3    0  502  0.46675214225E+02 -0.96118354688E+02 -0.37656874569E+03  0.39145728549E+03  0.41800000000E+01 0. -1.
        -11    1    4    4    0    0 -0.42960998121E+02 -0.92109137306E+01 -0.10603373959E+03  0.11477648811E+03  0.00000000000E+00 0. -1.
         11    1    4    4    0    0 -0.13606784829E+02  0.87492908895E+02 -0.30634905430E+03  0.31888853345E+03  0.00000000000E+00 0.  1.
</event>
<event>
 8    1  0.6597859E-009  0.1132307E+03  0.7561462E-02  0.1254701E+00
         -1   -1    0    0    0  501 -0.00000000000E+00  0.00000000000E+00  0.18750025835E+03  0.18750025835E+03  0.00000000000E+00 0.  1.
          1   -1    0    0  501    0  0.00000000000E+00 -0.00000000000E+00 -0.12361097743E+03  0.12361097743E+03  0.00000000000E+00 0. -1.
         25    2    1    2    0    0  0.52839369619E+01 -0.55132469498E+02  0.12453831056E+03  0.18498728388E+03  0.12507196016E+03 0.  0.
         23    2    1    2    0    0 -0.52839369619E+01  0.55132469498E+02 -0.60649029637E+02  0.12612395191E+03  0.95715397225E+02 0.  0.
          5    1    3    3  502    0  0.50701663740E+02 -0.18299792158E+00  0.94885452406E+02  0.10766342774E+03  0.41800000000E+01 0. -1.
         -5    1    3    3    0  502 -0.45417726778E+02 -0.54949471576E+02  0.29652858150E+02  0.77323856142E+02  0.41800000000E+01 0. -1.
        -11    1    4    4    0    0  0.41484721797E+02  0.23023342683E+02 -0.49008134550E+02  0.68211829641E+02  0.00000000000E+00 0. -1.
         11    1    4    4    0    0 -0.46768658759E+02  0.32109126815E+02 -0.11640895087E+02  0.57912122266E+02  0.00000000000E+00 0.  1.
</event>
<event>
 8    1  0.6597859E-009  0.9717529E+02  0.7561462E-02  0.1286351E+00
          1   -1    0    0  501    0  0.00000000000E+00  0.00000000000E+00  0.36370443849E+03  0.36370443849E+03  0.00000000000E+00 0. -1.
         -1   -1    0    0    0  501 -0.00000000000E+00 -0.00000000000E+00 -0.45602690407E+02  0.45602690407E+02  0.00000000000E+00 0.  1.
         25    2    1    2    0    0  0.52676873920E+02 -0.19116295413E+02  0.11076485646E+03  0.17622965763E+03  0.12509097891E+03 0.  0.
         23    2    1    2    0    0 -0.52676873920E+02  0.19116295413E+02  0.20733689163E+03  0.23307747127E+03  0.90533061299E+02 0.  0.
          5    1    3    3  502    0  0.10157047413E+02  0.35439261767E+02 -0.87127252329E+01  0.38111558191E+02  0.41800000000E+01 0.  1.
         -5    1    3    3    0  502  0.42519826507E+02 -0.54555557181E+02  0.11947758169E+03  0.13811809944E+03  0.41800000000E+01 0.  1.
        -11    1    4    4    0    0 -0.24841997819E+02  0.44058131270E+02  0.17945974193E+03  0.18645118063E+03  0.00000000000E+00 0. -1.
         11    1    4    4    0    0 -0.27834876101E+02 -0.24941835857E+02  0.27877149705E+02  0.46626290643E+02  0.00000000000E+00 0.  1.
</event>
<event>
 8    1  0.6597859E-009  0.5350404E+03  0.7561462E-02  0.1005017E+00
         -2   -1    0    0    0  501 -0.00000000000E+00  0.00000000000E+00  0.12303668207E+04  0.12303668207E+04  0.00000000000E+00 0.  1.
          2   -1    0    0  501    0  0.00000000000E+00 -0.00000000000E+00 -0.24074471653E+03  0.24074471653E+03  0.00000000000E+00 0. -1.
         25    2    1    2    0    0  0.39563545653E+03  0.35529752777E+03  0.55399640178E+03  0.77802229116E+03  0.12507167808E+03 0.  0.
         23    2    1    2    0    0 -0.39563545653E+03 -0.35529752777E+03  0.43562570242E+03  0.69308924611E+03  0.88539272396E+02 0.  0.
          5    1    3    3  502    0  0.23347380718E+03  0.21025497607E+03  0.41215309293E+03  0.51827098897E+03  0.41800000000E+01 0. -1.
         -5    1    3    3    0  502  0.16216164935E+03  0.14504255170E+03  0.14184330886E+03  0.25975130219E+03  0.41800000000E+01 0. -1.
        -11    1    4    4    0    0 -0.10056505015E+03 -0.45357172308E+02  0.74245210860E+02  0.13297726771E+03  0.00000000000E+00 0.  1.
         11    1    4    4    0    0 -0.29507040638E+03 -0.30994035546E+03  0.36138049157E+03  0.56011197840E+03  0.00000000000E+00 0. -1.
</event>
<event>
 8    1  0.6597859E-009  0.1018565E+03  0.7561462E-02  0.1276440E+00
          2   -1    0    0  501    0  0.00000000000E+00  0.00000000000E+00  0.11831546898E+03  0.11831546898E+03  0.00000000000E+00 0. -1.
         -2   -1    0    0    0  501 -0.00000000000E+00 -0.00000000000E+00 -0.14159297709E+03  0.14159297709E+03  0.00000000000E+00 0.  1.
         25    2    1    2    0    0 -0.76916783104E+02  0.10249606950E+02  0.37204041819E+01  0.14724533076E+03  0.12508437176E+03 0.  0.
         23    2    1    2    0    0  0.76916783104E+02 -0.10249606950E+02 -0.26997912288E+02  0.11266311531E+03  0.77089845744E+02 0.  0.
          5    1    3    3  502    0 -0.13649958815E+02 -0.19711816053E+02 -0.52171681882E+02  0.57569382992E+02  0.41800000000E+01 0.  1.
         -5    1    3    3    0  502 -0.63266824290E+02  0.29961423002E+02  0.55892086064E+02  0.89675947771E+02  0.41800000000E+01 0.  1.
        -11    1    4    4    0    0 -0.15181889522E+02 -0.79100750519E+01 -0.22308545365E+01  0.17263712485E+02  0.00000000000E+00 0. -1.
         11    1    4    4    0    0  0.92098672626E+02 -0.23395318978E+01 -0.24767057752E+02  0.95399402821E+02  0.00000000000E+00 0.  1.
</event>
<event>
 7    1  0.6597859E-009  0.2081359E+03  0.7561462E-02  0.1143051E+00
          1   -1    0    0  501    0  0.00000000000E+00  0.00000000000E+00  0.15013383217E+03  0.15013383217E+03  0.00000000000E+00 0. -1.
         -1   -1    0    0    0  501 -0.00000000000E+00 -0.00000000000E+00 -0.36242399113E+03  0.36242399113E+03  0.00000000000E+00 0.  1.
         23    2    1    2    0    0 -0.14827782024E+03  0.11841284522E+03 -0.13300697170E+02  0.21050976482E+03  0.90163954272E+02 0.  0.
          5    1    1    2  502    0 -0.17853929446E+02 -0.47366405910E+01  0.36740785081E-01  0.18938645956E+02  0.41800000000E+01 0. -1.
         -5    1    1    2    0  502  0.16613174969E+03 -0.11367620463E+03 -0.19902620257E+03  0.28310941253E+03  0.41800000000E+01 0. -1.
        -11    1    3    3    0    0 -0.50437867611E+02  0.12831793228E+02 -0.38027214585E+02  0.64456981434E+02  0.00000000000E+00 0.  1.
         11    1    3    3    0    0 -0.97839952632E+02  0.10558105199E+03  0.24726517415E+02  0.14605278338E+03  0.00000000000E+00 0. -1.
</event>
<event>
 8    1  0.6597859E-009  0.2017442E+03  0.7561462E-02  0.1148276E+00
         -2   -1    0    0    0  501 -0.00000000000E+00  0.00000000000E+00  0.15011939114E+03  0.15011939114E+03  0.00000000000E+00 0. -1.
          2   -1    0    0  501    0  0.00000000000E+00 -0.00000000000E+00 -0.32106485361E+03  0.32106485361E+03  0.00000000000E+00 0.  1.
         25    2    1    2    0    0  0.49610170659E+02 -0.17811311422E+03 -0.30734548613E+02  0.22533686834E+03  0.12508653511E+03 0.  0.
         23    2    1    2    0    0 -0.49610170659E+02  0.17811311422E+03 -0.14021091386E+03  0.24584737642E+03  0.81218111510E+02 0.  0.
          5    1    3    3  502    0 -0.38350286718E+02 -0.58081258996E+02 -0.31390619599E+02  0.76465812863E+02  0.41800000000E+01 0. -1.
         -5    1    3    3    0  502  0.87960457377E+02 -0.12003185522E+03  0.65607098602E+00  0.14887105548E+03  0.41800000000E+01 0. -1.
        -11    1    4    4    0    0 -0.36382493280E+02  0.13012381326E+03 -0.14203463719E+03  0.19603502431E+03  0.00000000000E+00 0.  1.
         11    1    4    4    0    0 -0.13227677379E+02  0.47989300960E+02  0.18237233358E+01  0.49812352106E+02  0.00000000000E+00 0. -1.
</event>
<event>
 8    1  0.6597859E-009  0.1401390E+03  0.7561462E-02  0.1213142E+00
          3   -1    0    0  501    0  0.00000000000E+00  0.00000000000E+00  0.27504376532E+03  0.27504376532E+03  0.00000000000E+00 0. -1.
         -3   -1    0    0    0  501 -0.00000000000E+00 -0.00000000000E+00 -0.95048993599E+02  0.95048993599E+02  0.00000000000E+00 0.  1.
         25    2    1    2    0    0 -0.99538227743E+02  0.44155076345E+02  0.40712797831E+02  0.17077165529E+03  0.12509155365E+03 0.  0.
         23    2    1    2    0    0  0.99538227743E+02 -0.44155076345E+02  0.13928197389E+03  0.19932110363E+03  0.92042949488E+02 0.  0.
          5    1    3    3  502    0 -0.12290995743E+03  0.10290895453E+02  0.38811471912E+02  0.12936986866E+03  0.41800000000E+01 0.  1.
         -5    1    3    3    0  502  0.23371729690E+02  0.33864180893E+02  0.19013259187E+01  0.41401786634E+02  0.41800000000E+01 0.  1.
        -11    1    4    4    0    0  0.34968123268E+02 -0.36399796387E+02  0.12200098309E+03  0.13203012799E+03  0.00000000000E+00 0. -1.
         11    1    4    4    0    0  0.64570104475E+02 -0.77552799585E+01  0.17280990801E+02  0.67290975637E+02  0.00000000000E+00 0.  1.
</event>
<event>
 8    1  0.6597859E-009  0.1366774E+03  0.7561462E-02  0.1217871E+00
         -1   -1    0    0    0  501 -0.00000000000E+00  0.00000000000E+00  0.43811082372E+02  0.43811082372E+02  0.00000000000E+00 0.  1.
          1   -1    0    0  501    0  0.00000000000E+00 -0.00000000000E+00 -0.48494392698E+03  0.48494392698E+03  0.00000000000E+00 0. -1.
         25    2    1    2    0    0 -0.45515087207E+02 -0.70825489221E+02 -0.30352939568E+03  0.33891609358E+03  0.12508457683E+03 0.  0.
         23    2    1    2    0    0  0.45515087207E+02  0.70825489221E+02 -0.13760344893E+03  0.18983891577E+03  0.10008112558E+03 0.  0.
          5    1    3    3  502    0 -0.91586784283E+01 -0.97705868907E+02 -0.25069586980E+03  0.26925120194E+03  0.41800000000E+01 0.  1.
         -5    1    3    3    0  502 -0.36356408778E+02  0.26880379686E+02 -0.52833525879E+02  0.69664891647E+02  0.41800000000E+01 0.  1.
        -11    1    4    4    0    0 -0.24905025361E+02 -0.58865728116E+01 -0.37452027133E+02  0.45360405246E+02  0.00000000000E+00 0. -1.
         11    1    4    4    0    0  0.70420112567E+02  0.76712062032E+02 -0.10015142180E+03  0.14447851052E+03  0.00000000000E+00 0.  1.
</event>
<event>
 8    1  0.6597859E-009  0.8660240E+02  0.7561462E-02  0.1311294E+00
          2   -1    0    0  501    0  0.00000000000E+00  0.00000000000E+00  0.91112995648E+03  0.91112995648E+03  0.00000000000E+00 0. -1.
         -2   -1    0    0    0  501 -0.00000000000E+00 -0.00000000000E+00 -0.16671806066E+02  0.16671806066E+02  0.00000000000E+00 0.  1.
         25    2    1    2    0    0 -0.37513837272E+02 -0.25722613757E+02  0.63888073898E+03  0.65259850938E+03  0.12508906814E+03 0.  0.
         23    2    1    2    0    0  0.37513837272E+02  0.25722613757E+02  0.25557741144E+03  0.27520325317E+03  0.91367808714E+02 0.  0.
          5    1    3    3  502    0 -0.68676906980E+02 -0.42510898903E+02  0.26614486152E+03  0.27816227960E+03  0.41800000000E+01 0.  1.
         -5    1    3    3    0  502  0.31163069708E+02  0.16788285147E+02  0.37273587746E+03  0.37443622979E+03  0.41800000000E+01 0.  1.
        -11    1    4    4    0    0  0.11574824811E+02 -0.80505004365E+01 -0.19012357473E+01  0.14226799501E+02  0.00000000000E+00 0.  1.
         11    1    4    4    0    0  0.25939012462E+02  0.33773114193E+02  0.25747864719E+03  0.26097645366E+03  0.00000000000E+00 0. -1.
</event>
<event>
 8    1  0.6597859E-009  0.1060095E+03  0.7561462E-02  0.1268143E+00
         -2   -1    0    0    0  501 -0.00000000000E+00  0.00000000000E+00  0.11092543413E+03  0.11092543413E+03  0.00000000000E+00 0.  1.
          2   -1    0    0  501    0  0.00000000000E+00 -0.00000000000E+00 -0.19417068618E+03  0.19417068618E+03  0.00000000000E+00 0. -1.
         25    2    1    2    0    0  0.15334162663E+02  0.38437395509E+02  0.47990369364E+02  0.14022282020E+03  0.12508714496E+03 0.  0.
         23    2    1    2    0    0 -0.15334162663E+02 -0.38437395509E+02 -0.13123562142E+03  0.16487330011E+03  0.90817657098E+02 0.  0.
          5    1    3    3  502    0 -0.44773071332E+02 -0.15982193112E+02  0.32038541233E+02  0.57480422211E+02  0.41800000000E+01 0.  1.
         -5    1    3    3    0  502  0.60107233995E+02  0.54419588621E+02  0.15951828131E+02  0.82742397989E+02  0.41800000000E+01 0.  1.
        -11    1    4    4    0    0 -0.41919972239E+02 -0.37902058961E+02 -0.38453436883E+02  0.68355811414E+02  0.00000000000E+00 0.  1.
         11    1    4    4    0    0  0.26585809576E+02 -0.53533654815E+00 -0.92782184539E+02  0.96517488694E+02  0.00000000000E+00 0. -1.
</event>
<event>
 8    1  0.6597859E-009  0.9738073E+02  0.7561462E-02  0.1285902E+00
          2   -1    0    0  501    0  0.00000000000E+00  0.00000000000E+00  0.86080432386E+03  0.86080432386E+03  0.00000000000E+00 0.  1.
         -2   -1    0    0    0  501 -0.00000000000E+00 -0.00000000000E+00 -0.17401141711E+02  0.17401141711E+02  0.00000000000E+00 0. -1.
         25    2    1    2    0    0 -0.52160922871E+02  0.22486051925E+02  0.48683449738E+03  0.50584799149E+03  0.12509187924E+03 0.  0.
         23    2    1    2    0    0  0.52160922871E+02 -0.22486051925E+02  0.35656868477E+03  0.37235747408E+03  0.91008115781E+02 0.  0.
          5    1    3    3  502    0 -0.36566140258E+02  0.48485227523E+02  0.95056948765E+02  0.11287690556E+03  0.41800000000E+01 0.  1.
         -5    1    3    3    0  502 -0.15594782613E+02 -0.25999175599E+02  0.39177754862E+03  0.39297108593E+03  0.41800000000E+01 0.  1.
        -11    1    4    4    0    0  0.75334449693E+02 -0.75418148737E+01  0.30028042515E+03  0.30967804574E+03  0.00000000000E+00 0.  1.
         11    1    4    4    0    0 -0.23173526823E+02 -0.14944237051E+02  0.56288259618E+02  0.62679428342E+02  0.00000000000E+00 0. -1.
</event>
<event>
 8    1  0.6597859E-009  0.1385422E+03  0.7561462E-02  0.1215304E+00
          2   -1    0    0  501    0  0.00000000000E+00  0.00000000000E+00  0.41602886053E+03  0.41602886053E+03  0.00000000000E+00 0. -1.
         -2   -1    0    0    0  501 -0.00000000000E+00 -0.00000000000E+00 -0.50847459346E+02  0.50847459346E+02  0.00000000000E+00 0.  1.
         25    2    1    2    0    0 -0.59374483657E+02 -0.71785143117E+02  0.14971585202E+03  0.21618088096E+03  0.12506358728E+03 0.  0.
         23    2    1    2    0    0  0.59374483657E+02  0.71785143117E+02  0.21546554916E+03  0.25069543892E+03  0.88002068940E+02 0.  0.
          5    1    3    3  502    0 -0.70962206655E+02 -0.97447641543E+02  0.14272737046E+03  0.18686961308E+03  0.41800000000E+01 0. -1.
         -5    1    3    3    0  502  0.11587722998E+02  0.25662498427E+02  0.69884815632E+01  0.29311267873E+02  0.41800000000E+01 0. -1.
        -11    1    4    4    0    0  0.82644921636E+02  0.54224711386E+02  0.16111490242E+03  0.18901987773E+03  0.00000000000E+00 0.  1.
         11    1    4    4    0    0 -0.23270437978E+02  0.17560431731E+02  0.54350646740E+02  0.61675561184E+02  0.00000000000E+00 0. -1.
</event>
<event>
 8    1  0.6597859E-009  0.1079088E+03  0.7561462E-02  0.1264492E+00
         -1   -1    0    0    0  501 -0.00000000000E+00  0.00000000000E+00  0.30952253658E+02  0.30952253658E+02  0.00000000000E+00 0.  1.
          1   -1    0    0  501    0  0.00000000000E+00 -0.00000000000E+00 -0.43819093060E+03  0.43819093060E+03  0.00000000000E+00 0. -1.
         25    2    1    2    0    0 -0.42400344605E+01  0.12571291427E+01 -0.31675695021E+03  0.34058757118E+03  0.12508145294E+03 0.  0.
         23    2    1    2    0    0  0.42400344605E+01 -0.12571291427E+01 -0.90481726738E+02  0.12855561309E+03  0.91214278030E+02 0.  0.
          5    1    3    3  502    0 -0.30526310492E+02 -0.54639819045E+02 -0.14388987303E+03  0.15696857462E+03  0.41800000000E+01 0. -1.
         -5    1    3    3    0  502  0.26286276032E+02  0.55896948188E+02 -0.17286707718E+03  0.18361899656E+03  0.41800000000E+01 0. -1.
        -11    1    4    4    0    0  0.34285394989E+02 -0.32918884454E+02 -0.43574606828E+02  0.64481684403E+02  0.00000000000E+00 0.  1.
         11    1    4    4    0    0 -0.30045360528E+02  0.31661755311E+02 -0.46907119909E+02  0.64073928683E+02  0.00000000000E+00 0. -1.
</event>
<event>
 8    1  0.6597859E-009  0.9698144E+02  0.7561462E-02  0.1286775E+00
         -1   -1    0    0    0  501 -0.00000000000E+00  0.00000000000E+00  0.51052750980E+02  0.51052750980E+02  0.00000000000E+00 0.  1.
          1   -1    0    0  501    0  0.00000000000E+00 -0.00000000000E+00 -0.39585593165E+03  0.39585593165E+03  0.00000000000E+00 0. -1.
         25    2    1    2    0    0  0.91774392061E+00  0.36729354538E+02 -0.57106368138E+02  0.14233074385E+03  0.12508803150E+03 0.  0.
         23    2    1    2    0    0 -0.91774392061E+00 -0.36729354538E+02 -0.28769681253E+03  0.30457793878E+03  0.92996651073E+02 0.  0.
          5    1    3    3  502    0 -0.49957534928E+02  0.18432032901E+02 -0.68556877585E+02  0.86908072105E+02  0.41800000000E+01 0. -1.
         -5    1    3    3    0  502  0.50875278848E+02  0.18297321637E+02  0.11450509446E+02  0.55422671747E+02  0.41800000000E+01 0. -1.
        -11    1    4    4    0    0 -0.34816747170E+02 -0.39083183210E+02 -0.91101369684E+02  0.10506741004E+03  0.00000000000E+00 0.  1.
         11    1    4    4    0    0  0.33899003249E+02  0.23538286716E+01 -0.19659544285E+03  0.19951052874E+03  0.00000000000E+00 0. -1.
</event>
<event>
 8    1  0.6597859E-009  0.1100613E+03  0.7561462E-02  0.1260456E+00
          1   -1    0    0  501    0  0.00000000000E+00  0.00000000000E+00  0.52514348484E+03  0.52514348484E+03  0.00000000000E+00 0. -1.
         -1   -1    0    0    0  501 -0.00000000000E+00 -0.00000000000E+00 -0.32445328440E+02  0.32445328440E+02  0.00000000000E+00 0.  1.
         25    2    1    2    0    0  0.72280927978E+01  0.14261234150E+01  0.41123079245E+03  0.42989859804E+03  0.12509100999E+03 0.  0.
         23    2    1    2    0    0 -0.72280927978E+01 -0.14261234150E+01  0.81467363950E+02  0.12769021524E+03  0.98048868054E+02 0.  0.
          5    1    3    3  502    0 -0.36778863616E+02  0.46880407748E+02  0.23951254856E+03  0.24684851783E+03  0.41800000000E+01 0.  1.
         -5    1    3    3    0  502  0.44006956414E+02 -0.45454284333E+02  0.17171824389E+03  0.18305008021E+03  0.41800000000E+01 0.  1.
        -11    1    4    4    0    0  0.31640488378E+02  0.32525572688E+02  0.27704495701E+02  0.53165519517E+02  0.00000000000E+00 0.  1.
         11    1    4    4    0    0 -0.38868581175E+02 -0.33951696103E+02  0.53762868249E+02  0.74524695727E+02  0.00000000000E+00 0. -1.
</event>
<event>
 8    1  0.6597859E-009  0.9325338E+02  0.7561462E-02  0.1295159E+00
         -1   -1    0    0    0  501 -0.00000000000E+00  0.00000000000E+00  0.46149385446E+02  0.46149385446E+02  0.00000000000E+00 0.  1.
          1   -1    0    0  501    0  0.00000000000E+00 -0.00000000000E+00 -0.32627972687E+03  0.32627972687E+03  0.00000000000E+00 0. -1.
         25    2    1    2    0    0 -0.41030299295E+02 -0.40650951974E+02 -0.16058926582E+03  0.21159635747E+03  0.12509244918E+03 0.  0.
         23    2    1    2    0    0  0.41030299295E+02  0.40650951974E+02 -0.11954107560E+03  0.16083275484E+03  0.90780619722E+02 0.  0.
          5    1    3    3  502    0 -0.26396193503E+02 -0.57235556121E+02 -0.17419493553E+03  0.18529440326E+03  0.41800000000E+01 0.  1.
         -5    1    3    3    0  502 -0.14634105792E+02  0.16584604147E+02  0.13605669709E+02  0.26301954210E+02  0.41800000000E+01 0.  1.
        -11    1    4    4    0    0  0.25380212708E+02  0.66183152189E+02 -0.55122056096E+02  0.89793128351E+02  0.00000000000E+00 0.  1.
         11    1    4    4    0    0  0.15650086588E+02 -0.25532200215E+02 -0.64419019500E+02  0.71039626487E+02  0.00000000000E+00 0. -1.
</event>
<event>
 8    1  0.6597859E-009  0.8768776E+02  0.7561462E-02  0.1308550E+00
          1   -1    0    0  501    0  0.00000000000E+00  0.00000000000E+00  0.15798408267E+03  0.15798408267E+03  0.00000000000E+00 0. -1.
         -1   -1    0    0    0  501 -0.00000000000E+00 -0.00000000000E+00 -0.98108000490E+02  0.98108000490E+02  0.00000000000E+00 0.  1.
         25    2    1    2    0    0  0.58326551020E+02 -0.19560124193E+02  0.98093120795E+01  0.13974687934E+03  0.12509349571E+03 0.  0.
         23    2    1    2    0    0 -0.58326551020E+02  0.19560124193E+02  0.50066770100E+02  0.11634520382E+03  0.85117213136E+02 0.  0.
          5    1    3    3  502    0 -0.14750907252E+02 -0.24045809537E+02 -0.41422189409E+02  0.50289764331E+02  0.41800000000E+01 0.  1.
         -5    1    3    3    0  502  0.73077458272E+02  0.44856853440E+01  0.51231501489E+02  0.89457115006E+02  0.41800000000E+01 0.  1.
        -11    1    4    4    0    0 -0.45629239352E+02 -0.49728980699E+01  0.68988267236E+02  0.82862163955E+02  0.00000000000E+00 0. -1.
         11    1    4    4    0    0 -0.12697311668E+02  0.24533022263E+02 -0.18921497136E+02  0.33483039868E+02  0.00000000000E+00 0.  1.
</event>
<event>
 8    1  0.6597859E-009  0.8591045E+02  0.7561462E-02  0.1313069E+00
          2   -1    0    0  501    0  0.00000000000E+00  0.00000000000E+00  0.46620000157E+03  0.46620000157E+03  0.00000000000E+00 0.  1.
         -2   -1    0    0    0  501 -0.00000000000E+00 -0.00000000000E+00 -0.39122490750E+02  0.39122490750E+02  0.00000000000E+00 0. -1.
         25    2    1    2    0    0  0.21588822009E+02  0.45052491170E+02  0.35737287501E+03  0.38192070942E+03  0.12510896168E+03 0.  0.
         23    2    1    2    0    0 -0.21588822009E+02 -0.45052491170E+02  0.69704635814E+02  0.12340178291E+03  0.88732517007E+02 0.  0.
          5    1    3    3  502    0 -0.33327331241E+01  0.47337724380E+02  0.35296813577E+03  0.35616842158E+03  0.41800000000E+01 0. -1.
         -5    1    3    3    0  502  0.24921555134E+02 -0.22852332100E+01  0.44047392376E+01  0.25752287837E+02  0.41800000000E+01 0. -1.
        -11    1    4    4    0    0 -0.35050586054E+02 -0.65523222476E+02  0.64403658990E+02  0.98334467800E+02  0.00000000000E+00 0.  1.
         11    1    4    4    0    0  0.13461764044E+02  0.20470731306E+02  0.53009768248E+01  0.25067315107E+02  0.00000000000E+00 0. -1.
</event>
<event>
 8    1  0.6597859E-009  0.1506166E+03  0.7561462E-02  0.1199717E+00
         -1   -1    0    0    0  501 -0.00000000000E+00  0.00000000000E+00  0.43329811773E+03  0.43329811773E+03  0.00000000000E+00 0.  1.
          1   -1    0    0  501    0  0.00000000000E+00 -0.00000000000E+00 -0.77823127140E+02  0.77823127140E+02  0.00000000000E+00 0. -1.
         25    2    1    2    0    0  0.46168468654E+02  0.13973529892E+03  0.22670343913E+03  0.29783580418E+03  0.12511688805E+03 0.  0.
         23    2    1    2    0    0 -0.46168468654E+02 -0.13973529892E+03  0.12877155146E+03  0.21328544069E+03  0.85153305760E+02 0.  0.
          5    1    3    3  502    0 -0.34003506943E+01  0.13127221048E+02  0.13039319748E+03  0.13116304612E+03  0.41800000000E+01 0.  1.
         -5    1    3    3    0  502  0.49568819349E+02  0.12660807787E+03  0.96310241655E+02  0.16667275807E+03  0.41800000000E+01 0.  1.
        -11    1    4    4    0    0 -0.11451760106E+02 -0.87795170417E+02  0.24729842004E+02  0.91927688123E+02  0.00000000000E+00 0. -1.
         11    1    4    4    0    0 -0.34716708548E+02 -0.51940128506E+02  0.10404170945E+03  0.12135775257E+03  0.00000000000E+00 0.  1.
</event>
<event>
 8    1  0.6597859E-009  0.1747214E+03  0.7561462E-02  0.1173012E+00
         -1   -1    0    0    0  501 -0.00000000000E+00  0.00000000000E+00  0.36573888466E+03  0.36573888466E+03  0.00000000000E+00 0.  1.
          1   -1    0    0  501    0  0.00000000000E+00 -0.00000000000E+00 -0.88773919389E+02  0.88773919389E+02  0.00000000000E+00 0. -1.
         25    2    1    2    0    0  0.13822178006E+03  0.36664315617E+02  0.13388816343E+03  0.23243598224E+03  0.12510360911E+03 0.  0.
         23    2    1    2    0    0 -0.13822178006E+03 -0.36664315617E+02  0.14307680184E+03  0.22207682180E+03  0.91638480106E+02 0.  0.
          5    1    3    3  502    0  0.11002623920E+03 -0.29322940612E+02  0.10507363831E+03  0.15499532259E+03  0.41800000000E+01 0. -1.
         -5    1    3    3    0  502  0.28195540863E+02  0.65987256228E+02  0.28814525119E+02  0.77440659649E+02  0.41800000000E+01 0. -1.
        -11    1    4    4    0    0 -0.11412622075E+03  0.63640346831E+01  0.70387797107E+02  0.13423761463E+03  0.00000000000E+00 0. -1.
         11    1    4    4    0    0 -0.24095559307E+02 -0.43028350300E+02  0.72689004729E+02  0.87839207170E+02  0.00000000000E+00 0.  1.
</event>
<event>
 8    1  0.6597859E-009  0.1847669E+03  0.7561462E-02  0.1163268E+00
          2   -1    0    0  501    0  0.00000000000E+00  0.00000000000E+00  0.41499581029E+03  0.41499581029E+03  0.00000000000E+00 0. -1.
         -2   -1    0    0    0  501 -0.00000000000E+00 -0.00000000000E+00 -0.14595741394E+03  0.14595741394E+03  0.00000000000E+00 0.  1.
         25    2    1    2    0    0  0.56904260270E+02 -0.14124689841E+03 -0.44163328742E+02  0.20194320337E+03  0.12506748831E+03 0.  0.
         23    2    1    2    0    0 -0.56904260270E+02  0.14124689841E+03  0.31320172509E+03  0.35901002087E+03  0.87201452588E+02 0.  0.
          5    1    3    3  502    0  0.29556670992E+02 -0.16050026612E+03 -0.38977924645E+02  0.16784124414E+03  0.41800000000E+01 0. -1.
         -5    1    3    3    0  502  0.27347589278E+02  0.19253367708E+02 -0.51854040976E+01  0.34101959226E+02  0.41800000000E+01 0. -1.
        -11    1    4    4    0    0 -0.35133834439E+02  0.14610492214E+03  0.29115986954E+03  0.32765088772E+03  0.00000000000E+00 0. -1.
         11    1    4    4    0    0 -0.21770425831E+02 -0.48580237230E+01  0.22041855552E+02  0.31359133143E+02  0.00000000000E+00 0.  1.
</event>
<event>
 8    1  0.6597859E-009  0.1568240E+03  0.7561462E-02  0.1192330E+00
         -1   -1    0    0    0  501 -0.00000000000E+00  0.00000000000E+00  0.36764694818E+03  0.36764694818E+03  0.00000000000E+00 0.  1.
          1   -1    0    0  501    0  0.00000000000E+00 -0.00000000000E+00 -0.12235870666E+03  0.12235870666E+03  0.00000000000E+00 0. -1.
         25    2    1    2    0    0 -0.78567504721E+02 -0.10221274059E+03 -0.20948221168E+02  0.18084841403E+03  0.12508806399E+03 0.  0.
         23    2    1    2    0    0  0.78567504721E+02  0.10221274059E+03  0.26623646268E+03  0.30915724080E+03  0.89866836725E+02 0.  0.
          5    1    3    3  502    0  0.15886379070E+02 -0.69292621584E+02 -0.35688529092E+02  0.79655432676E+02  0.41800000000E+01 0.  1.
         -5    1    3    3    0  502 -0.94453883790E+02 -0.32920119004E+02  0.14740307925E+02  0.10119298136E+03  0.41800000000E+01 0.  1.
        -11    1    4    4    0    0  0.71663960450E+02  0.44843040868E+02  0.89049168066E+02  0.12278589445E+03  0.00000000000E+00 0.  1.
         11    1    4    4    0    0  0.69035442704E+01  0.57369699720E+02  0.17718729462E+03  0.18637134636E+03  0.00000000000E+00 0. -1.
</event>
<event>
 8    1  0.6597859E-009  0.1228195E+03  0.7561462E-02  0.1238517E+00
          2   -1    0    0  501    0  0.00000000000E+00  0.00000000000E+00  0.44561455254E+03  0.44561455254E+03  0.00000000000E+00 0.  1.
         -2   -1    0    0    0  501 -0.00000000000E+00 -0.00000000000E+00 -0.47503054295E+02  0.47503054295E+02  0.00000000000E+00 0. -1.
         25    2    1    2    0    0 -0.68729235231E+02  0.60257013335E+02  0.16558301847E+03  0.22675816153E+03  0.12508761882E+03 0.  0.
         23    2    1    2    0    0  0.68729235231E+02 -0.60257013335E+02  0.23252847978E+03  0.26635944531E+03  0.92321420950E+02 0.  0.
          5    1    3    3  502    0 -0.30257696778E+02  0.96279996952E+02  0.95844070152E+02  0.13924411733E+03  0.41800000000E+01 0. -1.
         -5    1    3    3    0  502 -0.38471538453E+02 -0.36022983617E+02  0.69738948315E+02  0.87514044197E+02  0.41800000000E+01 0. -1.
        -11    1    4    4    0    0  0.32342552029E+02 -0.23029176354E+02  0.20230674437E+03  0.20616595852E+03  0.00000000000E+00 0.  1.
         11    1    4    4    0    0  0.36386683202E+02 -0.37227836981E+02  0.30221735408E+02  0.60193486789E+02  0.00000000000E+00 0. -1.
</event>
<event>
 8    1  0.6597859E-009  0.1533910E+03  0.7561462E-02  0.1196367E+00
         -1   -1    0    0    0  501 -0.00000000000E+00  0.00000000000E+00  0.22388011264E+03  0.22388011264E+03  0.00000000000E+00 0.  1.
          1   -1    0    0  501    0  0.00000000000E+00 -0.00000000000E+00 -0.16889835191E+03  0.16889835191E+03  0.00000000000E+00 0. -1.
         25    2    1    2    0    0 -0.90857109546E+02 -0.10915847466E+03  0.11966252069E+03  0.22391112436E+03  0.12508591373E+03 0.  0.
         23    2    1    2    0    0  0.90857109546E+02  0.10915847466E+03 -0.64680759958E+02  0.16886734019E+03  0.64513494171E+02 0.  0.
          5    1    3    3  502    0 -0.44327037501E+02 -0.17018617497E+02  0.11032714448E+03  0.12018348807E+03  0.41800000000E+01 0. -1.
         -5    1    3    3    0  502 -0.46530072045E+02 -0.92139857160E+02  0.93353762024E+01  0.10372763629E+03  0.41800000000E+01 0. -1.
        -11    1    4    4    0    0  0.21007334296E+01  0.47946614153E+02 -0.16216456951E+02  0.50658309938E+02  0.00000000000E+00 0.  1.
         11    1    4    4    0    0  0.88756376116E+02  0.61211860504E+02 -0.48464303007E+02  0.11820903025E+03  0.00000000000E+00 0. -1.
</event>
<event>
 8    1  0.6597859E-009  0.8305550E+02  0.7561462E-02  0.1320597E+00
          1   -1    0    0  501    0  0.00000000000E+00  0.00000000000E+00  0.10575031030E+03  0.10575031030E+03  0.00000000000E+00 0. -1.
         -1   -1    0    0    0  501 -0.00000000000E+00 -0.00000000000E+00 -0.17215481193E+03  0.17215481193E+03  0.00000000000E+00 0.  1.
         25    2    1    2    0    0  0.79079347960E+02  0.11294734200E+01 -0.17998567669E+02  0.14908409169E+03  0.12508916409E+03 0.  0.
         23    2    1    2    0    0 -0.79079347960E+02 -0.11294734200E+01 -0.48405933957E+02  0.12882103054E+03  0.89425412963E+02 0.  0.
          5    1    3    3  502    0  0.48184306914E+02 -0.12426455415E+02 -0.70586556999E+02  0.86464320132E+02  0.41800000000E+01 0.  1.
         -5    1    3    3    0  502  0.30895041046E+02  0.13555928835E+02  0.52587989330E+02  0.62619771555E+02  0.41800000000E+01 0.  1.
        -11    1    4    4    0    0 -0.37122385471E+02 -0.11678278475E+02 -0.70285789282E+02  0.80340188363E+02  0.00000000000E+00 0.  1.
         11    1    4    4    0    0 -0.41956962489E+02  0.10548805055E+02  0.21879855324E+02  0.48480842179E+02  0.00000000000E+00 0. -1.
</event>
<event>
 8    1  0.6597859E-009  0.9642893E+02  0.7561462E-02  0.1287990E+00
          2   -1    0    0  501    0  0.00000000000E+00  0.00000000000E+00  0.73224836715E+03  0.73224836715E+03  0.00000000000E+00 0. -1.
         -2   -1    0    0    0  501 -0.00000000000E+00 -0.00000000000E+00 -0.16221003278E+02  0.16221003278E+02  0.00000000000E+00 0.  1.
         25    2    1    2    0    0  0.11389851762E+02 -0.48228809226E+01  0.37663249472E+03  0.39705458208E+03  0.12508923283E+03 0.  0.
         23    2    1    2    0    0 -0.11389851762E+02  0.48228809226E+01  0.33939486915E+03  0.35141478834E+03  0.90280049612E+02 0.  0.
          5    1    3    3  502    0 -0.38316336925E+02  0.29702570922E+02  0.75146315517E+02  0.89525557974E+02  0.41800000000E+01 0. -1.
         -5    1    3    3    0  502  0.49706188687E+02 -0.34525451845E+02  0.30148617920E+03  0.30752902411E+03  0.41800000000E+01 0. -1.
        -11    1    4    4    0    0  0.33133231980E+02 -0.12976250921E+02  0.79028104231E+02  0.86669691403E+02  0.00000000000E+00 0.  1.
         11    1    4    4    0    0 -0.44523083742E+02  0.17799131843E+02  0.26036676492E+03  0.26474509694E+03  0.00000000000E+00 0. -1.
</event>
<event>
 8    1  0.6597859E-009  0.1925599E+03  0.7561462E-02  0.1156173E+00
         -1   -1    0    0    0  501 -0.00000000000E+00  0.00000000000E+00  0.79510408943E+02  0.79510408943E+02  0.00000000000E+00 0.  1.
          1   -1    0    0  501    0  0.00000000000E+00 -0.00000000000E+00 -0.72311357194E+03  0.72311357194E+03  0.00000000000E+00 0. -1.
         25    2    1    2    0    0 -0.16056783428E+03  0.73034548139E+02 -0.13049596159E+03  0.25257199674E+03  0.12508933974E+03 0.  0.
         23    2    1    2    0    0  0.16056783428E+03 -0.73034548139E+02 -0.51310720141E+03  0.55005198415E+03  0.90344399376E+02 0.  0.
          5    1    3    3  502    0 -0.19144600960E+02  0.51427960823E+02  0.52839909893E+01  0.55287827423E+02  0.41800000000E+01 0.  1.
         -5    1    3    3    0  502 -0.14142323332E+03  0.21606587315E+02 -0.13577995258E+03  0.19728416931E+03  0.41800000000E+01 0.  1.
        -11    1    4    4    0    0  0.55682221575E+02  0.54674029781E+01 -0.80436752973E+02  0.97982006122E+02  0.00000000000E+00 0.  1.
         11    1    4    4    0    0  0.10488561271E+03 -0.78501951117E+02 -0.43267044844E+03  0.45206997803E+03  0.00000000000E+00 0. -1.
</event>
<event>
 8    1  0.6597859E-009  0.9654060E+02  0.7561462E-02  0.1287743E+00
          1   -1    0    0  501    0  0.00000000000E+00  0.00000000000E+00  0.28050582851E+02  0.28050582851E+02  0.00000000000E+00 0. -1.
         -1   -1    0    0    0  501 -0.00000000000E+00 -0.00000000000E+00 -0.52308218372E+03  0.52308218372E+03  0.00000000000E+00 0.  1.
         25    2    1    2    0    0 -0.40268531486E+02  0.34864701282E+02 -0.28961932222E+03  0.31994144309E+03  0.12508426431E+03 0.  0.
         23    2    1    2    0    0  0.40268531486E+02 -0.34864701282E+02 -0.20541227865E+03  0.23119132349E+03  0.91750323216E+02 0.  0.
          5    1    3    3  502    0  0.15718463569E+02 -0.22101421077E+02 -0.19101962436E+03  0.19298060058E+03  0.41800000000E+01 0. -1.
         -5    1    3    3    0  502 -0.55986995055E+02  0.56966122359E+02 -0.98599697862E+02  0.12696084251E+03  0.41800000000E+01 0. -1.
        -11    1    4    4    0    0  0.44272425646E+02  0.59294230995E+01 -0.17374124332E+03  0.17939126334E+03  0.00000000000E+00 0.  1.
         11    1    4    4    0    0 -0.40038941595E+01 -0.40794124381E+02 -0.31671035333E+02  0.51800060150E+02  0.00000000000E+00 0. -1.
</event>
<event>
 8    1  0.6597859E-009  0.9716111E+02  0.7561462E-02  0.1286382E+00
          1   -1    0    0  501    0  0.00000000000E+00  0.00000000000E+00  0.79460032890E+03  0.79460032890E+03  0.00000000000E+00 0. -1.
         -1   -1    0    0    0  501 -0.00000000000E+00 -0.00000000000E+00 -0.15278108733E+02  0.15278108733E+02  0.00000000000E+00 0.  1.
         25    2    1    2    0    0  0.12580148180E+01  0.85542029296E+01  0.56119450847E+03  0.57503191523E+03  0.12509064796E+03 0.  0.
         23    2    1    2    0    0 -0.12580148180E+01 -0.85542029296E+01  0.21812771169E+03  0.23484652240E+03  0.86593495629E+02 0.  0.
          5    1    3    3  502    0  0.28225475173E+02  0.54128281033E+02  0.17912871798E+03  0.18929109398E+03  0.41800000000E+01 0.  1.
         -5    1    3    3    0  502 -0.26967460355E+02 -0.45574078104E+02  0.38206579050E+03  0.38574082125E+03  0.41800000000E+01 0.  1.
        -11    1    4    4    0    0 -0.39041190958E+02 -0.14733688325E+02  0.15916836680E+03  0.16454745562E+03  0.00000000000E+00 0. -1.
         11    1    4    4    0    0  0.37783176140E+02  0.61794853958E+01  0.58959344896E+02  0.70299066775E+02  0.00000000000E+00 0.  1.
</event>
<event>
 8    1  0.6597859E-009  0.1275240E+03  0.7561462E-02  0.1231177E+00
         -1   -1    0    0    0  501 -0.00000000000E+00  0.00000000000E+00  0.40977551744E+03  0.40977551744E+03  0.00000000000E+00 0.  1.
          1   -1    0    0  501    0  0.00000000000E+00 -0.00000000000E+00 -0.51889952317E+02  0.51889952317E+02  0.00000000000E+00 0. -1.
         25    2    1    2    0    0 -0.57384846783E+02  0.56835920002E+02  0.28311559492E+03  0.31988273918E+03  0.12508870572E+03 0.  0.
         23    2    1    2    0    0  0.57384846783E+02 -0.56835920002E+02  0.74769970202E+02  0.14178273057E+03  0.89378139391E+02 0.  0.
          5    1    3    3  502    0 -0.34671355639E+02 -0.36166572647E+02  0.12843177897E+03  0.13792142012E+03  0.41800000000E+01 0. -1.
         -5    1    3    3    0  502 -0.22713491144E+02  0.93002492649E+02  0.15468381595E+03  0.18196131906E+03  0.41800000000E+01 0. -1.
        -11    1    4    4    0    0  0.92498483783E+01 -0.59998105455E+02  0.10795038133E+02  0.61659266956E+02  0.00000000000E+00 0. -1.
         11    1    4    4    0    0  0.48134998404E+02  0.31621854535E+01  0.63974932069E+02  0.80123463614E+02  0.00000000000E+00 0.  1.
</event>
<event>
 8    1  0.6597859E-009  0.7465738E+02  0.7561462E-02  0.1344935E+00
         -4   -1    0    0    0  501 -0.00000000000E+00  0.00000000000E+00  0.16577950336E+03  0.16577950336E+03  0.00000000000E+00 0.  1.
          4   -1    0    0  501    0  0.00000000000E+00 -0.00000000000E+00 -0.99609451843E+02  0.99609451843E+02  0.00000000000E+00 0. -1.
         25    2    1    2    0    0  0.43342005283E+02  0.40357058866E+02  0.69203444932E+02  0.15473554241E+03  0.12508696844E+03 0.  0.
         23    2    1    2    0    0 -0.43342005283E+02 -0.40357058866E+02 -0.30333934169E+01  0.11065341279E+03  0.93422452677E+02 0.  0.
          5    1    3    3  502    0  0.45922189758E+02  0.51890532741E+02 -0.13811621207E+02  0.70779292033E+02  0.41800000000E+01 0. -1.
         -5    1    3    3    0  502 -0.25801844750E+01 -0.11533473875E+02  0.83015066139E+02  0.83956250379E+02  0.41800000000E+01 0. -1.
        -11    1    4    4    0    0 -0.25759238132E+02 -0.28250063949E+01 -0.44836593564E+02  0.51786476350E+02  0.00000000000E+00 0. -1.
         11    1    4    4    0    0 -0.17582767151E+02 -0.37532052471E+02  0.41803200147E+02  0.58866936441E+02  0.00000000000E+00 0.  1.
</event>
<event>
 8    1  0.6597859E-009  0.1215419E+03  0.7561462E-02  0.1240575E+00
          4   -1    0    0  501    0  0.00000000000E+00  0.00000000000E+00  0.58416177688E+02  0.58416177688E+02  0.00000000000E+00 0. -1.
         -4   -1    0    0    0  501 -0.00000000000E+00 -0.00000000000E+00 -0.27132150433E+03  0.27132150433E+03  0.00000000000E+00 0.  1.
         25    2    1    2    0    0  0.30681556496E+02 -0.60441513085E+02 -0.13394662013E+03  0.19540969393E+03  0.12509483212E+03 0.  0.
         23    2    1    2    0    0 -0.30681556496E+02  0.60441513085E+02 -0.78958706520E+02  0.13432798810E+03  0.84941136310E+02 0.  0.
          5    1    3    3  502    0 -0.37370505495E+02  0.80208587038E+01 -0.68998863999E+02  0.78988635186E+02  0.41800000000E+01 0. -1.
         -5    1    3    3    0  502  0.68052061991E+02 -0.68462371789E+02 -0.64947756127E+02  0.11642105874E+03  0.41800000000E+01 0. -1.
        -11    1    4    4    0    0  0.56964717405E+01  0.70134875827E+02 -0.44253583726E+02  0.83124787339E+02  0.00000000000E+00 0. -1.
         11    1    4    4    0    0 -0.36378028236E+02 -0.96933627422E+01 -0.34705122795E+02  0.51203200757E+02  0.00000000000E+00 0.  1.
</event>
<event>
 8    1  0.6597859E-009  0.9272296E+02  0.7561462E-02  0.1296388E+00
         -1   -1    0    0    0  501 -0.00000000000E+00  0.00000000000E+00  0.39988073762E+02  0.39988073762E+02  0.00000000000E+00 0.  1.
          1   -1    0    0  501    0  0.00000000000E+00 -0.00000000000E+00 -0.46530360657E+03  0.46530360657E+03  0.00000000000E+00 0. -1.
         25    2    1    2    0    0 -0.46220180373E+02 -0.68015115612E+02 -0.26479170273E+03  0.30417870867E+03  0.12509068690E+03 0.  0.
         23    2    1    2    0    0  0.46220180373E+02  0.68015115612E+02 -0.16052383008E+03  0.20111297166E+03  0.88972840356E+02 0.  0.
          5    1    3    3  502    0 -0.26722207874E+01  0.95554968225E+01  0.10379514651E+02  0.14955099727E+02  0.41800000000E+01 0. -1.
         -5    1    3    3    0  502 -0.43547959586E+02 -0.77570612434E+02 -0.27517121738E+03  0.28922360895E+03  0.41800000000E+01 0. -1.
        -11    1    4    4    0    0  0.45257374674E+02  0.49455013185E+02 -0.16815268718E+03  0.18102307725E+03  0.00000000000E+00 0. -1.
         11    1    4    4    0    0  0.96280569911E+00  0.18560102427E+02  0.76288570967E+01  0.20089894412E+02  0.00000000000E+00 0.  1.
</event>
<event>
 8    1  0.6597859E-009  0.1175018E+03  0.7561462E-02  0.1247276E+00
         -1   -1    0    0    0  501 -0.00000000000E+00  0.00000000000E+00  0.64087487240E+02  0.64087487240E+02  0.00000000000E+00 0.  1.
          1   -1    0    0  501    0  0.00000000000E+00 -0.00000000000E+00 -0.39986285270E+03  0.39986285270E+03  0.00000000000E+00 0. -1.
         25    2    1    2    0    0  0.11667744864E+02  0.77211904624E+02 -0.30708578445E+03  0.34064401485E+03  0.12505539317E+03 0.  0.
         23    2    1    2    0    0 -0.11667744864E+02 -0.77211904624E+02 -0.28689581013E+02  0.12330632508E+03  0.91013972890E+02 0.  0.
          5    1    3    3  502    0 -0.41863448838E+02  0.53179420768E+02 -0.74520795646E+02  0.10075425810E+03  0.41800000000E+01 0.  1.
         -5    1    3    3    0  502  0.53531193702E+02  0.24032483856E+02 -0.23256498880E+03  0.23988975675E+03  0.41800000000E+01 0.  1.
        -11    1    4    4    0    0  0.16433850418E+02  0.82611042400E+01  0.14577510229E+02  0.23469577911E+02  0.00000000000E+00 0.  1.
         11    1    4    4    0    0 -0.28101595282E+02 -0.85473008864E+02 -0.43267091242E+02  0.99836747174E+02  0.00000000000E+00 0. -1.
</event>
<event>
 8    1  0.6597859E-009  0.9912708E+02  0.7561462E-02  0.1282142E+00
         -2   -1    0    0    0  501 -0.00000000000E+00  0.00000000000E+00  0.62912674964E+02  0.62912674964E+02  0.00000000000E+00 0.  1.
          2   -1    0    0  501    0  0.00000000000E+00 -0.00000000000E+00 -0.32409995613E+03  0.32409995613E+03  0.00000000000E+00 0. -1.
         25    2    1    2    0    0  0.33191527568E+02  0.88608520532E+02 -0.13457922414E+03  0.20666075965E+03  0.12507579541E+03 0.  0.
         23    2    1    2    0    0 -0.33191527568E+02 -0.88608520532E+02 -0.12660805703E+03  0.18035187144E+03  0.86856490920E+02 0.  0.
          5    1    3    3  502    0  0.17644376028E+02  0.82101476750E+02 -0.14486164756E+02  0.85318801324E+02  0.41800000000E+01 0.  1.
         -5    1    3    3    0  502  0.15547151540E+02  0.65070437817E+01 -0.12009305938E+03  0.12134195833E+03  0.41800000000E+01 0.  1.
        -11    1    4    4    0    0 -0.21407435873E+02 -0.28989110807E+02  0.40382791473E+01  0.36262302113E+02  0.00000000000E+00 0.  1.
         11    1    4    4    0    0 -0.11784091695E+02 -0.59619409725E+02 -0.13064633618E+03  0.14408956933E+03  0.00000000000E+00 0. -1.
</event>
<event>
 8    1  0.6597859E-009  0.2212835E+03  0.7561462E-02  0.1132930E+00
         -4   -1    0    0    0  501 -0.00000000000E+00  0.00000000000E+00  0.19403497108E+03  0.19403497108E+03  0.00000000000E+00 0.  1.
          4   -1    0    0  501    0  0.00000000000E+00 -0.00000000000E+00 -0.27921615826E+03  0.27921615826E+03  0.00000000000E+00 0. -1.
         25    2    1    2    0    0 -0.13052850694E+03  0.14248631326E+03  0.26415855954E+02  0.23170176100E+03  0.12509143861E+03 0.  0.
         23    2    1    2    0    0  0.13052850694E+03 -0.14248631326E+03 -0.11159704313E+03  0.24154936834E+03  0.92477871519E+02 0.  0.
          5    1    3    3  502    0 -0.11190330611E+03  0.16579118625E+03  0.22868792453E+02  0.20136911736E+03  0.41800000000E+01 0. -1.
         -5    1    3    3    0  502 -0.18625200823E+02 -0.23304872987E+02  0.35470635007E+01  0.30332643639E+02  0.41800000000E+01 0. -1.
        -11    1    4    4    0    0  0.11145190930E+03 -0.15399669980E+03 -0.10897210995E+03  0.21911511218E+03  0.00000000000E+00 0. -1.
         11    1    4    4    0    0  0.19076597633E+02  0.11510386538E+02 -0.26249331808E+01  0.22434256166E+02  0.00000000000E+00 0.  1.
</event>
<event>
 8    1  0.6597859E-009  0.9643697E+02  0.7561462E-02  0.1287972E+00
         -1   -1    0    0    0  501 -0.00000000000E+00  0.00000000000E+00  0.22569771236E+02  0.22569771236E+02  0.00000000000E+00 0.  1.
          1   -1    0    0  501    0  0.00000000000E+00 -0.00000000000E+00 -0.56487100566E+03  0.56487100566E+03  0.00000000000E+00 0. -1.
         25    2    1    2    0    0 -0.30915093846E+02 -0.87478197467E+01 -0.30693893365E+03  0.33300156078E+03  0.12508502354E+03 0.  0.
         23    2    1    2    0    0  0.30915093846E+02  0.87478197467E+01 -0.23536230077E+03  0.25443921612E+03  0.91168167110E+02 0.  0.
          5    1    3    3  502    0 -0.39791694493E+02  0.40753996786E+02 -0.68047508346E+02  0.88838071775E+02  0.41800000000E+01 0. -1.
         -5    1    3    3    0  502  0.88766006462E+01 -0.49501816533E+02 -0.23889142531E+03  0.24416348901E+03  0.41800000000E+01 0. -1.
        -11    1    4    4    0    0 -0.20038618561E+02 -0.18710828841E+02 -0.14175627286E+03  0.14438310928E+03  0.00000000000E+00 0. -1.
         11    1    4    4    0    0  0.50953712408E+02  0.27458648588E+02 -0.93606027916E+02  0.11005610684E+03  0.00000000000E+00 0.  1.
</event>
<event>
 8    1  0.6597859E-009  0.7688302E+02  0.7561462E-02  0.1338137E+00
          1   -1    0    0  501    0  0.00000000000E+00  0.00000000000E+00  0.21034413776E+03  0.21034413776E+03  0.00000000000E+00 0. -1.
         -1   -1    0    0    0  501 -0.00000000000E+00 -0.00000000000E+00 -0.68541977842E+02  0.68541977842E+02  0.00000000000E+00 0.  1.
         25    2    1    2    0    0  0.38038908776E+02  0.32810696716E+02  0.77067935133E+02  0.15527230484E+03  0.12508605687E+03 0.  0.
         23    2    1    2    0    0 -0.38038908776E+02 -0.32810696716E+02  0.64734224785E+02  0.12361381077E+03  0.92554599851E+02 0.  0.
          5    1    3    3  502    0  0.56781119722E+02  0.18919342639E+02  0.10358625374E+03  0.11970639685E+03  0.41800000000E+01 0.  1.
         -5    1    3    3    0  502 -0.18742210945E+02  0.13891354077E+02 -0.26518318607E+02  0.35565907987E+02  0.41800000000E+01 0.  1.
        -11    1    4    4    0    0 -0.32214860468E+02  0.43037061862E+01 -0.14755163394E+02  0.35693612435E+02  0.00000000000E+00 0.  1.
         11    1    4    4    0    0 -0.58240483089E+01 -0.37114402902E+02  0.79489388178E+02  0.87920198330E+02  0.00000000000E+00 0. -1.
</event>
<event>
 8    1  0.6597859E-009  0.1699901E+03  0.7561462E-02  0.1177858E+00
         -2   -1    0    0    0  501 -0.00000000000E+00  0.00000000000E+00  0.12352701249E+03  0.12352701249E+03  0.00000000000E+00 0.  1.
          2   -1    0    0  501    0  0.00000000000E+00 -0.00000000000E+00 -0.28543548583E+03  0.28543548583E+03  0.00000000000E+00 0. -1.
         25    2    1    2    0    0 -0.11697732766E+03  0.95640839893E+02 -0.10881415846E+03  0.22431858483E+03  0.12508973170E+03 0.  0.
         23    2    1    2    0    0  0.11697732766E+03 -0.95640839893E+02 -0.53094314885E+02  0.18464391349E+03  0.91888536133E+02 0.  0.
          5    1    3    3  502    0 -0.77377102480E+02  0.13049911268E+02  0.43141996221E+01  0.78699433865E+02  0.41800000000E+01 0. -1.
         -5    1    3    3    0  502 -0.39600225178E+02  0.82590928625E+02 -0.11312835808E+03  0.14561915096E+03  0.41800000000E+01 0. -1.
        -11    1    4    4    0    0  0.88296423277E+02 -0.10711755324E+03 -0.62660369044E+02  0.15230479449E+03  0.00000000000E+00 0.  1.
         11    1    4    4    0    0  0.28680904381E+02  0.11476713346E+02  0.95660541587E+01  0.32339118997E+02  0.00000000000E+00 0. -1.
</event>
<event>
 8    1  0.6597859E-009  0.1487180E+03  0.7561462E-02  0.1202057E+00
          1   -1    0    0  501    0  0.00000000000E+00  0.00000000000E+00  0.10658923762E+04  0.10658923762E+04  0.00000000000E+00 0. -1.
         -1   -1    0    0    0  501 -0.00000000000E+00 -0.00000000000E+00 -0.26405829181E+02  0.26405829181E+02  0.00000000000E+00 0.  1.
         25    2    1    2    0    0 -0.12701350138E+03 -0.20483701653E+02  0.51889433967E+03  0.54904526245E+03  0.12508937967E+03 0.  0.
         23    2    1    2    0    0  0.12701350138E+03  0.20483701653E+02  0.52059220739E+03  0.54325294297E+03  0.86922391195E+02 0.  0.
          5    1    3    3  502    0 -0.10266465723E+03 -0.49167739481E+02  0.48511644208E+03  0.49831007739E+03  0.41800000000E+01 0.  1.
         -5    1    3    3    0  502 -0.24348844149E+02  0.28684037827E+02  0.33777897596E+02  0.50735185064E+02  0.41800000000E+01 0.  1.
        -11    1    4    4    0    0  0.60494550388E+02  0.44340232061E+02  0.36108222324E+03  0.36878993851E+03  0.00000000000E+00 0. -1.
         11    1    4    4    0    0  0.66518950989E+02 -0.23856530408E+02  0.15950998415E+03  0.17446300447E+03  0.00000000000E+00 0.  1.
</event>
<event>
 8    1  0.6597859E-009  0.5198827E+02  0.7561462E-02  0.1434903E+00
         -1   -1    0    0    0  501 -0.00000000000E+00  0.00000000000E+00  0.38676947710E+03  0.38676947710E+03  0.00000000000E+00 0.  1.
          1   -1    0    0  501    0  0.00000000000E+00 -0.00000000000E+00 -0.31426033353E+02  0.31426033353E+02  0.00000000000E+00 0. -1.
         25    2    1    2    0    0 -0.13366713254E+02 -0.73810374412E+01  0.23521439616E+03  0.26684554227E+03  0.12509029752E+03 0.  0.
         23    2    1    2    0    0  0.13366713254E+02  0.73810374412E+01  0.12012904759E+03  0.15134996818E+03  0.90789184693E+02 0.  0.
          5    1    3    3  502    0 -0.21868028115E+02 -0.18011756264E+02 -0.24618637810E+01  0.28743124232E+02  0.41800000000E+01 0. -1.
         -5    1    3    3    0  502  0.85013148612E+01  0.10630718822E+02  0.23767625994E+03  0.23810241804E+03  0.41800000000E+01 0. -1.
        -11    1    4    4    0    0  0.35741919842E+02 -0.40553933522E+01  0.12097253370E+03  0.12620730945E+03  0.00000000000E+00 0.  1.
         11    1    4    4    0    0 -0.22375206588E+02  0.11436430793E+02 -0.84348611249E+00  0.25142658729E+02  0.00000000000E+00 0. -1.
</event>
<event>
 8    1  0.6597859E-009  0.1000930E+03  0.7561462E-02  0.1280101E+00
         -2   -1    0    0    0  501 -0.00000000000E+00  0.00000000000E+00  0.21654293984E+02  0.21654293984E+02  0.00000000000E+00 0.  1.
          2   -1    0    0  501    0  0.00000000000E+00 -0.00000000000E+00 -0.65252088874E+03  0.65252088874E+03  0.00000000000E+00 0. -1.
         25    2    1    2    0    0  0.32115088140E+02 -0.42715304966E+01 -0.46605984342E+03  0.48364098745E+03  0.12508877741E+03 0.  0.
         23    2    1    2    0    0 -0.32115088140E+02  0.42715304966E+01 -0.16480675133E+03  0.19053419527E+03  0.89957709082E+02 0.  0.
          5    1    3    3  502    0 -0.35264946113E+02  0.16517655546E+02 -0.61159211027E+02  0.72624863942E+02  0.41800000000E+01 0. -1.
         -5    1    3    3    0  502  0.67380034252E+02 -0.20789186043E+02 -0.40490063239E+03  0.41101612351E+03  0.41800000000E+01 0. -1.
        -11    1    4    4    0    0 -0.58524279413E+02  0.17171190775E+02 -0.13748074018E+03  0.15040244345E+03  0.00000000000E+00 0. -1.
         11    1    4    4    0    0  0.26409191274E+02 -0.12899660278E+02 -0.27326011150E+02  0.40131751823E+02  0.00000000000E+00 0.  1.
</event>
<event>
 8    1  0.6597859E-009  0.9584079E+02  0.7561462E-02  0.1289294E+00
          1   -1    0    0  501    0  0.00000000000E+00  0.00000000000E+00  0.18878120844E+03  0.18878120844E+03  0.00000000000E+00 0. -1.
         -1   -1    0    0    0  501 -0.00000000000E+00 -0.00000000000E+00 -0.75299912522E+02  0.75299912522E+02  0.00000000000E+00 0.  1.
         25    2    1    2    0    0 -0.20709898441E+02 -0.36280554185E+02  0.37102278718E+02  0.13699600202E+03  0.12508455931E+03 0.  0.
         23    2    1    2    0    0  0.20709898441E+02  0.36280554185E+02  0.76379017202E+02  0.12708511894E+03  0.92583447133E+02 0.  0.
          5    1    3    3  502    0 -0.72494260792E+02 -0.99697580652E+01  0.25583190794E+02  0.77632377104E+02  0.41800000000E+01 0. -1.
         -5    1    3    3    0  502  0.51784362350E+02 -0.26310796120E+02  0.11519087924E+02  0.59363624916E+02  0.41800000000E+01 0. -1.
        -11    1    4    4    0    0  0.34048451642E+02  0.21633023653E+02 -0.73852130252E+01  0.41010073678E+02  0.00000000000E+00 0.  1.
         11    1    4    4    0    0 -0.13338553201E+02  0.14647530533E+02  0.83764230227E+02  0.86075045267E+02  0.00000000000E+00 0. -1.
</event>
<event>
 8    1  0.6597859E-009  0.1413916E+03  0.7561462E-02  0.1211469E+00
         -2   -1    0    0    0  501 -0.00000000000E+00  0.00000000000E+00  0.34503728219E+02  0.34503728219E+02  0.00000000000E+00 0.  1.
          2   -1    0    0  501    0  0.00000000000E+00 -0.00000000000E+00 -0.63339243826E+03  0.63339243826E+03  0.00000000000E+00 0. -1.
         25    2    1    2    0    0 -0.68224565529E+02  0.61535857370E+02 -0.41428137151E+03  0.44239928217E+03  0.12508723753E+03 0.  0.
         23    2    1    2    0    0  0.68224565529E+02 -0.61535857370E+02 -0.18460733853E+03  0.22549688432E+03  0.91256354922E+02 0.  0.
          5    1    3    3  502    0  0.28618238035E+02  0.48380054364E+02 -0.12782537112E+03  0.13970122086E+03  0.41800000000E+01 0.  1.
         -5    1    3    3    0  502 -0.96842803565E+02  0.13155803005E+02 -0.28645600040E+03  0.30269806130E+03  0.41800000000E+01 0.  1.
        -11    1    4    4    0    0  0.72661589800E+02 -0.80893710178E+02 -0.14556692262E+03  0.18169542630E+03  0.00000000000E+00 0.  1.
         11    1    4    4    0    0 -0.44370242704E+01  0.19357852808E+02 -0.39040415912E+02  0.43801458016E+02  0.00000000000E+00 0. -1.
</event>
<event>
 8    1  0.6597859E-009  0.9469379E+02  0.7561462E-02  0.1291867E+00
         -1   -1    0    0    0  501 -0.00000000000E+00  0.00000000000E+00  0.86647916976E+02  0.86647916976E+02  0.00000000000E+00 0.  1.
          1   -1    0    0  501    0  0.00000000000E+00 -0.00000000000E+00 -0.22236108915E+03  0.22236108915E+03  0.00000000000E+00 0. -1.
         25    2    1    2    0    0  0.82859314350E+02  0.55980470707E+01 -0.91648555825E+02  0.17589064875E+03  0.12506421722E+03 0.  0.
         23    2    1    2    0    0 -0.82859314350E+02 -0.55980470707E+01 -0.44064616353E+02  0.13311835738E+03  0.94243315680E+02 0.  0.
          5    1    3    3  502    0  0.32942779900E+02  0.26887209756E+02  0.23329094536E+02  0.48681288478E+02  0.41800000000E+01 0. -1.
         -5    1    3    3    0  502  0.49916534450E+02 -0.21289162685E+02 -0.11497765036E+03  0.12720936028E+03  0.41800000000E+01 0. -1.
        -11    1    4    4    0    0 -0.12208951507E+02 -0.16729565024E+02 -0.56812003378E+02  0.60469335787E+02  0.00000000000E+00 0. -1.
         11    1    4    4    0    0 -0.70650362842E+02  0.11131517953E+02  0.12747387025E+02  0.72649021588E+02  0.00000000000E+00 0.  1.
</event>
<event>
 8    1  0.6597859E-009  0.9064098E+02  0.7561462E-02  0.1301307E+00
          2   -1    0    0  501    0  0.00000000000E+00  0.00000000000E+00  0.30224259765E+03  0.30224259765E+03  0.00000000000E+00 0.  1.
         -2   -1    0    0    0  501 -0.00000000000E+00 -0.00000000000E+00 -0.78055328102E+02  0.78055328102E+02  0.00000000000E+00 0. -1.
         25    2    1    2    0    0  0.42840383044E+02 -0.18571825285E+02 -0.24946997757E+00  0.13351333313E+03  0.12508212012E+03 0.  0.
         23    2    1    2    0    0 -0.42840383044E+02  0.18571825285E+02  0.22443673952E+03  0.24678459262E+03  0.91381475116E+02 0.  0.
          5    1    3    3  502    0  0.28212290184E+02  0.40618350545E+02 -0.37264572335E+02  0.62063712987E+02  0.41800000000E+01 0.  1.
         -5    1    3    3    0  502  0.14628092860E+02 -0.59190175830E+02  0.37015102357E+02  0.71449620139E+02  0.41800000000E+01 0.  1.
        -11    1    4    4    0    0 -0.35702647066E+02 -0.13130608390E+02  0.20587693961E+03  0.20936190233E+03  0.00000000000E+00 0.  1.
         11    1    4    4    0    0 -0.71377359781E+01  0.31702433675E+02  0.18559799911E+02  0.37422690290E+02  0.00000000000E+00 0. -1.
</event>
<event>
 8    1  0.6597859E-009  0.9003910E+02  0.7561462E-02  0.1302757E+00
         -4   -1    0    0    0  501 -0.00000000000E+00  0.00000000000E+00  0.41634100859E+02  0.41634100859E+02  0.00000000000E+00 0.  1.
          4   -1    0    0  501    0  0.00000000000E+00 -0.00000000000E+00 -0.32880840622E+03  0.32880840622E+03  0.00000000000E+00 0. -1.
         25    2    1    2    0    0 -0.11250852541E+02 -0.37632733234E+02 -0.12859807761E+03  0.18365414522E+03  0.12509426524E+03 0.  0.
         23    2    1    2    0    0  0.11250852541E+02  0.37632733234E+02 -0.15857622775E+03  0.18678836186E+03  0.90557538755E+02 0.  0.
          5    1    3    3  502    0  0.15520073713E+02 -0.56470136504E+02 -0.13746926703E+03  0.14948250996E+03  0.41800000000E+01 0. -1.
         -5    1    3    3    0  502 -0.26770926254E+02  0.18837403271E+02  0.88711894244E+01  0.34171635259E+02  0.41800000000E+01 0. -1.
        -11    1    4    4    0    0  0.45375679885E+02  0.26086687334E+02 -0.49971125597E+02  0.72364224410E+02  0.00000000000E+00 0.  1.
         11    1    4    4    0    0 -0.34124827345E+02  0.11546045900E+02 -0.10860510216E+03  0.11442413745E+03  0.00000000000E+00 0. -1.
</event>
<event>
 8    1  0.6597859E-009  0.1383954E+03  0.7561462E-02  0.1215504E+00
          1   -1    0    0  501    0  0.00000000000E+00  0.00000000000E+00  0.16628154123E+03  0.16628154123E+03  0.00000000000E+00 0. -1.
         -1   -1    0    0    0  501 -0.00000000000E+00 -0.00000000000E+00 -0.14226411060E+03  0.14226411060E+03  0.00000000000E+00 0.  1.
         25    2    1    2    0    0 -0.96394707748E+02  0.49860445915E+02  0.17812311676E+01  0.16561718318E+03  0.12509146586E+03 0.  0.
         23    2    1    2    0    0  0.96394707748E+02 -0.49860445915E+02  0.22236199460E+02  0.14292846865E+03  0.90311100284E+02 0.  0.
          5    1    3    3  502    0 -0.86391530406E+02  0.78643265278E+02 -0.30720377421E+02  0.12086965578E+03  0.41800000000E+01 0.  1.
         -5    1    3    3    0  502 -0.10003177342E+02 -0.28782819363E+02  0.32501608589E+02  0.44747527399E+02  0.41800000000E+01 0.  1.
        -11    1    4    4    0    0  0.20191703882E+02 -0.48921483663E+02  0.37939618251E+02  0.65118592602E+02  0.00000000000E+00 0.  1.
         11    1    4    4    0    0  0.76203003866E+02 -0.93896225174E+00 -0.15703418791E+02  0.77809876044E+02  0.00000000000E+00 0. -1.
</event>
<event>
 8    1  0.6597859E-009  0.1346304E+03  0.7561462E-02  0.1220742E+00
         -1   -1    0    0    0  501 -0.00000000000E+00  0.00000000000E+00  0.15956354992E+02  0.15956354992E+02  0.00000000000E+00 0.  1.
          1   -1    0    0  501    0  0.00000000000E+00 -0.00000000000E+00 -0.13305781904E+04  0.13305781904E+04  0.00000000000E+00 0. -1.
         25    2    1    2    0    0  0.91278484779E+02  0.32661411788E+02 -0.74799729407E+03  0.76455533999E+03  0.12508551621E+03 0.  0.
         23    2    1    2    0    0 -0.91278484779E+02 -0.32661411788E+02 -0.56662454132E+03  0.58197920539E+03  0.90762850729E+02 0.  0.
          5    1    3    3  502    0  0.11456617291E+03  0.14309106237E+02 -0.68652353735E+03  0.69617684408E+03  0.41800000000E+01 0.  1.
         -5    1    3    3    0  502 -0.23287688131E+02  0.18352305551E+02 -0.61473756727E+02  0.68378495916E+02  0.41800000000E+01 0.  1.
        -11    1    4    4    0    0 -0.37433018576E+02  0.24905531364E+02 -0.11406685669E+03  0.12260817333E+03  0.00000000000E+00 0.  1.
         11    1    4    4    0    0 -0.53845466204E+02 -0.57566943152E+02 -0.45255768463E+03  0.45937103206E+03  0.00000000000E+00 0. -1.
</event>
<event>
 8    1  0.6597859E-009  0.9425489E+02  0.7561462E-02  0.1292863E+00
         -2   -1    0    0    0  501 -0.00000000000E+00  0.00000000000E+00  0.26350867116E+02  0.26350867116E+02  0.00000000000E+00 0. -1.
          2   -1    0    0  501    0  0.00000000000E+00 -0.00000000000E+00 -0.56328606994E+03  0.56328606994E+03  0.00000000000E+00 0.  1.
         25    2    1    2    0    0  0.49352496532E+02 -0.26204399142E+02 -0.30754687986E+03  0.33668180569E+03  0.12508883053E+03 0.  0.
         23    2    1    2    0    0 -0.49352496532E+02  0.26204399142E+02 -0.22938832296E+03  0.25295513136E+03  0.90801741850E+02 0.  0.
          5    1    3    3  502    0  0.63407564295E+02 -0.40174655131E+02 -0.86068759160E+02  0.11427959498E+03  0.41800000000E+01 0. -1.
         -5    1    3    3    0  502 -0.14055067763E+02  0.13970255989E+02 -0.22147812070E+03  0.22240221072E+03  0.41800000000E+01 0. -1.
        -11    1    4    4    0    0  0.56957653439E+01 -0.20256964121E+02 -0.12632624351E+02  0.24543217723E+02  0.00000000000E+00 0. -1.
         11    1    4    4    0    0 -0.55048261876E+02  0.46461363262E+02 -0.21675569861E+03  0.22841191364E+03  0.00000000000E+00 0.  1.
</event>
<event>
 8    1  0.6597859E-009  0.1195511E+03  0.7561462E-02  0.1243839E+00
          1   -1    0    0  501    0  0.00000000000E+00  0.00000000000E+00  0.55304715351E+03  0.55304715351E+03  0.00000000000E+00 0. -1.
         -1   -1    0    0    0  501 -0.00000000000E+00 -0.00000000000E+00 -0.31080005770E+02  0.31080005770E+02  0.00000000000E+00 0.  1.
         25    2    1    2    0    0 -0.44295250303E+02 -0.49177159118E+02  0.36373619381E+03  0.39029713333E+03  0.12508945365E+03 0.  0.
         23    2    1    2    0    0  0.44295250303E+02  0.49177159118E+02  0.15823095393E+03  0.19383002596E+03  0.90291649682E+02 0.  0.
          5    1    3    3  502    0 -0.85440398829E+02 -0.18173230630E+02  0.26153864493E+03  0.27577212197E+03  0.41800000000E+01 0. -1.
         -5    1    3    3    0  502  0.41145148525E+02 -0.31003928488E+02  0.10219754889E+03  0.11452501136E+03  0.41800000000E+01 0. -1.
        -11    1    4    4    0    0  0.59619336714E+02  0.13492898444E+02  0.50421725243E+02  0.79239346256E+02  0.00000000000E+00 0.  1.
         11    1    4    4    0    0 -0.15324086410E+02  0.35684260674E+02  0.10780922869E+03  0.11459067970E+03  0.00000000000E+00 0. -1.
</event>
<event>
 8    1  0.6597859E-009  0.1140937E+03  0.7561462E-02  0.1253171E+00
         -1   -1    0    0    0  501 -0.00000000000E+00  0.00000000000E+00  0.28010098308E+02  0.28010098308E+02  0.00000000000E+00 0.  1.
          1   -1    0    0  501    0  0.00000000000E+00 -0.00000000000E+00 -0.60561981177E+03  0.60561981177E+03  0.00000000000E+00 0. -1.
         25    2    1    2    0    0 -0.16881427870E+02  0.67388152029E+02 -0.26707490425E+03  0.30299044880E+03  0.12509221377E+03 0.  0.
         23    2    1    2    0    0  0.16881427870E+02 -0.67388152029E+02 -0.31053480922E+03  0.33063946128E+03  0.89802227026E+02 0.  0.
          5    1    3    3  502    0 -0.70143581847E+02  0.35777614848E+02 -0.17499418116E+03  0.19193904147E+03  0.41800000000E+01 0.  1.
         -5    1    3    3    0  502  0.53262153977E+02  0.31610537181E+02 -0.92080723082E+02  0.11105140733E+03  0.41800000000E+01 0.  1.
        -11    1    4    4    0    0  0.36051315896E+02 -0.47549441496E+02 -0.29044772235E+03  0.29651395614E+03  0.00000000000E+00 0. -1.
         11    1    4    4    0    0 -0.19169888026E+02 -0.19838710533E+02 -0.20087086866E+02  0.34125505143E+02  0.00000000000E+00 0.  1.
</event>
<event>
 8    1  0.6597859E-009  0.1427508E+03  0.7561462E-02  0.1209675E+00
         -1   -1    0    0    0  501 -0.00000000000E+00  0.00000000000E+00  0.54867171023E+02  0.54867171023E+02  0.00000000000E+00 0.  1.
          1   -1    0    0  501    0  0.00000000000E+00 -0.00000000000E+00 -0.40180346955E+03  0.40180346955E+03  0.00000000000E+00 0. -1.
         25    2    1    2    0    0 -0.64939049655E+02 -0.68347973859E+02 -0.24008154707E+03  0.28666265616E+03  0.12509118071E+03 0.  0.
         23    2    1    2    0    0  0.64939049655E+02  0.68347973859E+02 -0.10685475146E+03  0.17000798442E+03  0.92715970336E+02 0.  0.
          5    1    3    3  502    0  0.13258284113E+02 -0.75902717276E+02 -0.13338509988E+03  0.15409757253E+03  0.41800000000E+01 0.  1.
         -5    1    3    3    0  502 -0.78197333768E+02  0.75547434171E+01 -0.10669644718E+03  0.13256508363E+03  0.41800000000E+01 0.  1.
        -11    1    4    4    0    0 -0.33521061987E+01  0.60872581374E+02 -0.33726307175E+02  0.69671885110E+02  0.00000000000E+00 0.  1.
         11    1    4    4    0    0  0.68291155853E+02  0.74753924849E+01 -0.73128444288E+02  0.10033609931E+03  0.00000000000E+00 0. -1.
</event>
<event>
 8    1  0.6597859E-009  0.1276859E+03  0.7561462E-02  0.1230930E+00
         -1   -1    0    0    0  501 -0.00000000000E+00  0.00000000000E+00  0.38834219644E+02  0.38834219644E+02  0.00000000000E+00 0.  1.
          1   -1    0    0  501    0  0.00000000000E+00 -0.00000000000E+00 -0.49456208528E+03  0.49456208528E+03  0.00000000000E+00 0. -1.
         25    2    1    2    0    0  0.37530757572E+02  0.68762710837E+02 -0.31698381628E+03  0.34965712122E+03  0.12507795360E+03 0.  0.
         23    2    1    2    0    0 -0.37530757572E+02 -0.68762710837E+02 -0.13874404936E+03  0.18373918370E+03  0.91505782489E+02 0.  0.
          5    1    3    3  502    0 -0.46332193084E+02  0.26876530543E+02 -0.11236181672E+03  0.12454585608E+03  0.41800000000E+01 0. -1.
         -5    1    3    3    0  502  0.83862950656E+02  0.41886180294E+02 -0.20462199955E+03  0.22511126514E+03  0.41800000000E+01 0. -1.
        -11    1    4    4    0    0  0.20780167345E+02 -0.49350349148E+01 -0.70299189443E+02  0.73472076062E+02  0.00000000000E+00 0. -1.
         11    1    4    4    0    0 -0.58310924917E+02 -0.63827675922E+02 -0.68444859918E+02  0.11026710764E+03  0.00000000000E+00 0.  1.
</event>
<event>
 8    1  0.6597859E-009  0.1583217E+03  0.7561462E-02  0.1190605E+00
          1   -1    0    0  501    0  0.00000000000E+00  0.00000000000E+00  0.24350909355E+03  0.24350909355E+03  0.00000000000E+00 0. -1.
         -1   -1    0    0    0  501 -0.00000000000E+00 -0.00000000000E+00 -0.16628271009E+03  0.16628271009E+03  0.00000000000E+00 0.  1.
         25    2    1    2    0    0  0.45611887304E+02 -0.13441603171E+03 -0.53038878328E+02  0.19648912618E+03  0.12508693077E+03 0.  0.
         23    2    1    2    0    0 -0.45611887304E+02  0.13441603171E+03  0.13026526179E+03  0.21330267746E+03  0.91547145974E+02 0.  0.
          5    1    3    3  502    0  0.15272510495E+02 -0.10349776848E+03 -0.91014650618E+02  0.13873059030E+03  0.41800000000E+01 0. -1.
         -5    1    3    3    0  502  0.30339376809E+02 -0.30918263236E+02  0.37975772291E+02  0.57758535886E+02  0.41800000000E+01 0. -1.
        -11    1    4    4    0    0 -0.40069161305E+02  0.14822363629E+03  0.11385131696E+03  0.19114891162E+03  0.00000000000E+00 0.  1.
         11    1    4    4    0    0 -0.55427259987E+01 -0.13807604575E+02  0.16413944836E+02  0.22153765835E+02  0.00000000000E+00 0. -1.
</event>
<event>
 8    1  0.6597859E-009  0.1922695E+03  0.7561462E-02  0.1156430E+00
         -1   -1    0    0    0  501 -0.00000000000E+00  0.00000000000E+00  0.39126450438E+03  0.39126450438E+03  0.00000000000E+00 0.  1.
          1   -1    0    0  501    0  0.00000000000E+00 -0.00000000000E+00 -0.10904831174E+03  0.10904831174E+03  0.00000000000E+00 0. -1.
         25    2    1    2    0    0  0.50010292077E+02  0.16456367382E+03  0.18810242401E+03  0.28392441712E+03  0.12509324787E+03 0.  0.
         23    2    1    2    0    0 -0.50010292077E+02 -0.16456367382E+03  0.94113768631E+02  0.21638839900E+03  0.91565854565E+02 0.  0.
          5    1    3    3  502    0 -0.16000812110E+02  0.27114408733E+01  0.72277285817E+02  0.74194719117E+02  0.41800000000E+01 0.  1.
         -5    1    3    3    0  502  0.66011104187E+02  0.16185223295E+03  0.11582513820E+03  0.20972969800E+03  0.41800000000E+01 0.  1.
        -11    1    4    4    0    0  0.34042760485E+01 -0.12836402390E+03  0.76630193799E+02  0.14953627764E+03  0.00000000000E+00 0.  1.
         11    1    4    4    0    0 -0.53414568125E+02 -0.36199649917E+02  0.17483574832E+02  0.66852121365E+02  0.00000000000E+00 0. -1.
</event>
<event>
 8    1  0.6597859E-009  0.1077376E+03  0.7561462E-02  0.1264818E+00
         -2   -1    0    0    0  501 -0.00000000000E+00  0.00000000000E+00  0.21533939715E+02  0.21533939715E+02  0.00000000000E+00 0.  1.
          2   -1    0    0  501    0  0.00000000000E+00 -0.00000000000E+00 -0.60406918573E+03  0.60406918573E+03  0.00000000000E+00 0. -1.
         25    2    1    2    0    0  0.29097105844E+02  0.98429168307E+01 -0.26858570665E+03  0.29787382641E+03  0.12508800927E+03 0.  0.
         23    2    1    2    0    0 -0.29097105844E+02 -0.98429168307E+01 -0.31394953936E+03  0.32772929903E+03  0.88874381001E+02 0.  0.
          5    1    3    3  502    0 -0.42922272847E+01  0.60461576812E+02 -0.84960027739E+02  0.10444952943E+03  0.41800000000E+01 0. -1.
         -5    1    3    3    0  502  0.33389333129E+02 -0.50618659982E+02 -0.18362567891E+03  0.19342429698E+03  0.41800000000E+01 0. -1.
        -11    1    4    4    0    0 -0.10826625366E+02 -0.49288293774E+02 -0.17610355029E+03  0.18319119014E+03  0.00000000000E+00 0.  1.
         11    1    4    4    0    0 -0.18270480478E+02  0.39445376943E+02 -0.13784598907E+03  0.14453810889E+03  0.00000000000E+00 0. -1.
</event>
<event>
 8    1  0.6597859E-009  0.1035812E+03  0.7561462E-02  0.1272940E+00
         -1   -1    0    0    0  501 -0.00000000000E+00  0.00000000000E+00  0.40623745080E+03  0.40623745080E+03  0.00000000000E+00 0.  1.
          1   -1    0    0  501    0  0.00000000000E+00 -0.00000000000E+00 -0.35084468108E+02  0.35084468108E+02  0.00000000000E+00 0. -1.
         25    2    1    2    0    0  0.76972603473E+01 -0.17627808362E+02  0.23386142744E+03  0.26590551864E+03  0.12507833607E+03 0.  0.
         23    2    1    2    0    0 -0.76972603473E+01  0.17627808362E+02  0.13729155524E+03  0.17541640026E+03  0.10748002091E+03 0.  0.
          5    1    3    3  502    0  0.17644217515E+02 -0.56505042654E+02  0.21172683614E+03  0.21988602457E+03  0.41800000000E+01 0. -1.
         -5    1    3    3    0  502 -0.99469571679E+01  0.38877234292E+02  0.22134591304E+02  0.46019494080E+02  0.41800000000E+01 0. -1.
        -11    1    4    4    0    0 -0.42336987896E+02 -0.27573704002E+02  0.80128066004E+02  0.94727169587E+02  0.00000000000E+00 0. -1.
         11    1    4    4    0    0  0.34639727549E+02  0.45201512363E+02  0.57163489241E+02  0.80689230674E+02  0.00000000000E+00 0.  1.
</event>
<event>
 8    1  0.6597859E-009  0.9683697E+02  0.7561462E-02  0.1287092E+00
         -2   -1    0    0    0  501 -0.00000000000E+00  0.00000000000E+00  0.49663080983E+02  0.49663080983E+02  0.00000000000E+00 0.  1.
          2   -1    0    0  501    0  0.00000000000E+00 -0.00000000000E+00 -0.32683459890E+03  0.32683459890E+03  0.00000000000E+00 0. -1.
         25    2    1    2    0    0 -0.19022980119E+02 -0.16725457709E+02 -0.62045916785E+02  0.14191495083E+03  0.12509413564E+03 0.  0.
         23    2    1    2    0    0  0.19022980119E+02  0.16725457709E+02 -0.21512560113E+03  0.23458272905E+03  0.90046753401E+02 0.  0.
          5    1    3    3  502    0  0.24790990573E+02  0.34726938421E+02  0.89628257775E+01  0.43799065191E+02  0.41800000000E+01 0.  1.
         -5    1    3    3    0  502 -0.43813970691E+02 -0.51452396130E+02 -0.71008742563E+02  0.98115885643E+02  0.41800000000E+01 0.  1.
        -11    1    4    4    0    0  0.50095125261E+02  0.73107622409E+01 -0.73267719188E+02  0.89056877861E+02  0.00000000000E+00 0.  1.
         11    1    4    4    0    0 -0.31072145142E+02  0.94146954678E+01 -0.14185788195E+03  0.14552585119E+03  0.00000000000E+00 0. -1.
</event>
<event>
 7    1  0.6597859E-009  0.1509316E+03  0.7561462E-02  0.1199333E+00
         -2   -1    0    0    0  501 -0.00000000000E+00  0.00000000000E+00  0.27892960225E+02  0.27892960225E+02  0.00000000000E+00 0.  1.
          2   -1    0    0  501    0  0.00000000000E+00 -0.00000000000E+00 -0.11175462161E+04  0.11175462161E+04  0.00000000000E+00 0. -1.
         23    2    1    2    0    0  0.11200276666E+03  0.82449500301E+02 -0.49218714167E+03  0.51938809610E+03  0.90406150825E+02 0.  0.
          5    1    1    2  502    0 -0.10463365664E+03 -0.61189016829E+02 -0.58945507655E+03  0.60180317177E+03  0.41800000000E+01 0. -1.
         -5    1    1    2    0  502 -0.73691100209E+01 -0.21260483472E+02 -0.80110376525E+01  0.24247908451E+02  0.41800000000E+01 0. -1.
        -11    1    3    3    0    0  0.11446405757E+03  0.49595056823E+02 -0.30845509177E+03  0.33272546307E+03  0.00000000000E+00 0.  1.
         11    1    3    3    0    0 -0.24612909106E+01  0.32854443478E+02 -0.18373204990E+03  0.18666263303E+03  0.00000000000E+00 0. -1.
</event>
<event>
 8    1  0.6597859E-009  0.9926920E+02  0.7561462E-02  0.1281840E+00
         -2   -1    0    0    0  501 -0.00000000000E+00  0.00000000000E+00  0.20117748741E+02  0.20117748741E+02  0.00000000000E+00 0.  1.
          2   -1    0    0  501    0  0.00000000000E+00 -0.00000000000E+00 -0.66952328207E+03  0.66952328207E+03  0.00000000000E+00 0. -1.
         25    2    1    2    0    0  0.90890962281E+01 -0.13254332888E+02 -0.24935857760E+03  0.27943634831E+03  0.12508670402E+03 0.  0.
         23    2    1    2    0    0 -0.90890962281E+01  0.13254332888E+02 -0.40004695572E+03  0.41020468250E+03  0.89286201332E+02 0.  0.
          5    1    3    3  502    0  0.97529108028E+01  0.46659133778E+02 -0.42381964738E+02  0.63921024469E+02  0.41800000000E+01 0.  1.
         -5    1    3    3    0  502 -0.66381457476E+00 -0.59913466667E+02 -0.20697661287E+03  0.21551532384E+03  0.41800000000E+01 0.  1.
        -11    1    4    4    0    0  0.40253752041E+02  0.43900847341E+01 -0.18816590471E+03  0.19247349192E+03  0.00000000000E+00 0. -1.
         11    1    4    4    0    0 -0.49342848269E+02  0.88642481543E+01 -0.21188105102E+03  0.21773119058E+03  0.00000000000E+00 0.  1.
</event>
<event>
 8    1  0.6597859E-009  0.1061883E+03  0.7561462E-02  0.1267796E+00
         -2   -1    0    0    0  501 -0.00000000000E+00  0.00000000000E+00  0.37011237451E+02  0.37011237451E+02  0.00000000000E+00 0.  1.
          2   -1    0    0  501    0  0.00000000000E+00 -0.00000000000E+00 -0.44342792903E+03  0.44342792903E+03  0.00000000000E+00 0. -1.
         25    2    1    2    0    0  0.94916482073E+01 -0.59506948017E+01 -0.35363286523E+03  0.37527217275E+03  0.12508996008E+03 0.  0.
         23    2    1    2    0    0 -0.94916482073E+01  0.59506948017E+01 -0.52783826344E+02  0.10516699373E+03  0.90268832340E+02 0.  0.
          5    1    3    3  502    0  0.44206894914E+02  0.42698803024E+02 -0.22653235231E+03  0.23475906028E+03  0.41800000000E+01 0. -1.
         -5    1    3    3    0  502 -0.34715246706E+02 -0.48649497826E+02 -0.12710051292E+03  0.14051311247E+03  0.41800000000E+01 0. -1.
        -11    1    4    4    0    0 -0.47470548645E+02 -0.11837140611E+02 -0.30863339304E+02  0.57845627316E+02  0.00000000000E+00 0. -1.
         11    1    4    4    0    0  0.37978900438E+02  0.17787835413E+02 -0.21920487040E+02  0.47321366413E+02  0.00000000000E+00 0.  1.
</event>
<event>
 8    1  0.6597859E-009  0.2456409E+03  0.7561462E-02  0.1116091E+00
         -2   -1    0    0    0  501 -0.00000000000E+00  0.00000000000E+00  0.10127012457E+04  0.10127012457E+04  0.00000000000E+00 0.  1.
          2   -1    0    0  501    0  0.00000000000E+00 -0.00000000000E+00 -0.91745198253E+02  0.91745198253E+02  0.00000000000E+00 0. -1.
         25    2    1    2    0    0  0.79945882035E+02  0.21671681370E+03  0.77156039400E+03  0.81505443410E+03  0.12510302780E+03 0.  0.
         23    2    1    2    0    0 -0.79945882035E+02 -0.21671681370E+03  0.14939565340E+03  0.28939200981E+03  0.89839594231E+02 0.  0.
          5    1    3    3  502    0  0.87274244631E+01  0.14411659614E+03  0.58462867664E+03  0.60220754161E+03  0.41800000000E+01 0. -1.
         -5    1    3    3    0  502  0.71218457571E+02  0.72600217561E+02  0.18693171736E+03  0.21284689250E+03  0.41800000000E+01 0. -1.
        -11    1    4    4    0    0 -0.92185840185E+02 -0.14170970891E+03  0.82350872361E+02  0.18804663493E+03  0.00000000000E+00 0. -1.
         11    1    4    4    0    0  0.12239958150E+02 -0.75007104785E+02  0.67044781044E+02  0.10134537488E+03  0.00000000000E+00 0.  1.
</event>
<event>
 8    1  0.6597859E-009  0.7886487E+02  0.7561462E-02  0.1332304E+00
          1   -1    0    0  501    0  0.00000000000E+00  0.00000000000E+00  0.76590151785E+02  0.76590151785E+02  0.00000000000E+00 0. -1.
         -1   -1    0    0    0  501 -0.00000000000E+00 -0.00000000000E+00 -0.18498628510E+03  0.18498628510E+03  0.00000000000E+00 0.  1.
         25    2    1    2    0    0 -0.16058705596E+02 -0.25856301101E+02 -0.26202509491E+02  0.13138173051E+03  0.12509259481E+03 0.  0.
         23    2    1    2    0    0  0.16058705596E+02  0.25856301101E+02 -0.82193623819E+02  0.13019470637E+03  0.96272734660E+02 0.  0.
          5    1    3    3  502    0 -0.46937291858E+02  0.59021758817E+01 -0.59268005458E+02  0.75948100161E+02  0.41800000000E+01 0. -1.
         -5    1    3    3    0  502  0.30878586262E+02 -0.31758476982E+02  0.33065495967E+02  0.55433630346E+02  0.41800000000E+01 0. -1.
        -11    1    4    4    0    0  0.33182311765E+02 -0.17854825973E+01  0.81182693239E+01  0.34207602357E+02  0.00000000000E+00 0. -1.
         11    1    4    4    0    0 -0.17123606169E+02  0.27641783698E+02 -0.90311893143E+02  0.95987104016E+02  0.00000000000E+00 0.  1.
</event>
<event>
 8    1  0.6597859E-009  0.8138819E+02  0.7561462E-02  0.1325157E+00
          2   -1    0    0  501    0  0.00000000000E+00  0.00000000000E+00  0.11648261462E+03  0.11648261462E+03  0.00000000000E+00 0. -1.
         -2   -1    0    0    0  501 -0.00000000000E+00 -0.00000000000E+00 -0.11241011394E+03  0.11241011394E+03  0.00000000000E+00 0.  1.
         25    2    1    2    0    0  0.14338095401E+02  0.60145444527E+01 -0.30707020170E+02  0.12973858320E+03  0.12508966048E+03 0.  0.
         23    2    1    2    0    0 -0.14338095401E+02 -0.60145444527E+01  0.34779520846E+02  0.99154145360E+02  0.91543288924E+02 0.  0.
          5    1    3    3  502    0  0.33844119485E+02  0.32307696740E+02  0.33397003452E+02  0.57637174913E+02  0.41800000000E+01 0.  1.
         -5    1    3    3    0  502 -0.19506024084E+02 -0.26293152287E+02 -0.64104023622E+02  0.72101408289E+02  0.41800000000E+01 0.  1.
        -11    1    4    4    0    0  0.19498447681E+01  0.36870833993E+02  0.38231844791E+02  0.53150110537E+02  0.00000000000E+00 0. -1.
         11    1    4    4    0    0 -0.16287940169E+02 -0.42885378446E+02 -0.34523239450E+01  0.46004034823E+02  0.00000000000E+00 0.  1.
</event>
<event>
 8    1  0.6597859E-009  0.2002058E+03  0.7561462E-02  0.1149565E+00
          2   -1    0    0  501    0  0.00000000000E+00  0.00000000000E+00  0.18665381627E+03  0.18665381627E+03  0.00000000000E+00 0. -1.
         -2   -1    0    0    0  501 -0.00000000000E+00 -0.00000000000E+00 -0.27466843994E+03  0.27466843994E+03  0.00000000000E+00 0.  1.
         25    2    1    2    0    0 -0.18365373821E+03 -0.10431883253E+01 -0.12901496356E+03  0.25694635732E+03  0.12508711331E+03 0.  0.
         23    2    1    2    0    0  0.18365373821E+03  0.10431883253E+01  0.41000339884E+02  0.20437589889E+03  0.79741434514E+02 0.  0.
          5    1    3    3  502    0 -0.76111546704E+01 -0.30522871840E+02  0.69999410185E+01  0.32496876082E+02  0.41800000000E+01 0. -1.
         -5    1    3    3    0  502 -0.17604258354E+03  0.29479683515E+02 -0.13601490458E+03  0.22444948123E+03  0.41800000000E+01 0. -1.
        -11    1    4    4    0    0  0.99355173428E+02  0.25088901872E+02 -0.99964316976E+01  0.10296034251E+03  0.00000000000E+00 0.  1.
         11    1    4    4    0    0  0.84298564782E+02 -0.24045713546E+02  0.50996771582E+02  0.10141555638E+03  0.00000000000E+00 0. -1.
</event>
<event>
 8    1  0.6597859E-009  0.1043853E+03  0.7561462E-02  0.1271335E+00
          2   -1    0    0  501    0  0.00000000000E+00  0.00000000000E+00  0.79852966643E+03  0.79852966643E+03  0.00000000000E+00 0. -1.
         -2   -1    0    0    0  501 -0.00000000000E+00 -0.00000000000E+00 -0.17854837591E+02  0.17854837591E+02  0.00000000000E+00 0.  1.
         25    2    1    2    0    0  0.27218661865E+01  0.15033179811E+02  0.51940937366E+03  0.53447818137E+03  0.12508966329E+03 0.  0.
         23    2    1    2    0    0 -0.27218661865E+01 -0.15033179811E+02  0.26126545518E+03  0.28190632265E+03  0.10477657959E+03 0.  0.
          5    1    3    3  502    0 -0.51176252949E+02 -0.18815888811E+02  0.15120356769E+03  0.16078879880E+03  0.41800000000E+01 0. -1.
         -5    1    3    3    0  502  0.53898119136E+02  0.33849068622E+02  0.36820580598E+03  0.37368938257E+03  0.41800000000E+01 0. -1.
        -11    1    4    4    0    0  0.27255451059E+02 -0.41941506490E+02  0.67586676501E+02  0.84082747455E+02  0.00000000000E+00 0.  1.
         11    1    4    4    0    0 -0.29977317245E+02  0.26908326679E+02  0.19367877868E+03  0.19782357520E+03  0.00000000000E+00 0. -1.
</event>
<event>
 8    1  0.6597859E-009  0.9483882E+02  0.7561462E-02  0.1291540E+00
          2   -1    0    0  501    0  0.00000000000E+00  0.00000000000E+00  0.81364427735E+02  0.81364427735E+02  0.00000000000E+00 0.  1.
         -2   -1    0    0    0  501 -0.00000000000E+00 -0.00000000000E+00 -0.17972495545E+03  0.17972495545E+03  0.00000000000E+00 0. -1.
         25    2    1    2    0    0 -0.27794923951E+02  0.35591339656E+02 -0.81433438947E+02  0.15594138040E+03  0.12508800057E+03 0.  0.
         23    2    1    2    0    0  0.27794923951E+02 -0.35591339656E+02 -0.16927088770E+02  0.10514800279E+03  0.93435940086E+02 0.  0.
          5    1    3    3  502    0 -0.15782601858E+02 -0.27983398265E+02 -0.85044273725E+02  0.91006384354E+02  0.41800000000E+01 0. -1.
         -5    1    3    3    0  502 -0.12012322092E+02  0.63574737921E+02  0.36108347776E+01  0.64934996046E+02  0.41800000000E+01 0. -1.
        -11    1    4    4    0    0 -0.28227559018E+02 -0.51745887515E+01  0.16567611369E+02  0.33136946198E+02  0.00000000000E+00 0.  1.
         11    1    4    4    0    0  0.56022482968E+02 -0.30416750904E+02 -0.33494700140E+02  0.72011056588E+02  0.00000000000E+00 0. -1.
</event>
<event>
 8    1  0.6597859E-009  0.1539866E+03  0.7561462E-02  0.1195658E+00
         -1   -1    0    0    0  501 -0.00000000000E+00  0.00000000000E+00  0.62536888336E+02  0.62536888336E+02  0.00000000000E+00 0.  1.
          1   -1    0    0  501    0  0.00000000000E+00 -0.00000000000E+00 -0.49354398139E+03  0.49354398139E+03  0.00000000000E+00 0. -1.
         25    2    1    2    0    0  0.79313831331E+02  0.10958135959E+03 -0.26803753585E+03  0.32525594834E+03  0.12509417691E+03 0.  0.
         23    2    1    2    0    0 -0.79313831331E+02 -0.10958135959E+03 -0.16296955720E+03  0.23082492138E+03  0.91773141747E+02 0.  0.
          5    1    3    3  502    0  0.69435879611E+01  0.89628005987E+02 -0.21548870619E+03  0.23352568973E+03  0.41800000000E+01 0.  1.
         -5    1    3    3    0  502  0.72370243370E+02  0.19953353605E+02 -0.52548829665E+02  0.91730258610E+02  0.41800000000E+01 0.  1.
        -11    1    4    4    0    0 -0.50688400108E+02 -0.31620381009E+02 -0.12694058818E+03  0.14029638388E+03  0.00000000000E+00 0. -1.
         11    1    4    4    0    0 -0.28625431223E+02 -0.77960978583E+02 -0.36028969018E+02  0.90528537505E+02  0.00000000000E+00 0.  1.
</event>
<event>
 8    1  0.6597859E-009  0.1100306E+03  0.7561462E-02  0.1260513E+00
         -2   -1    0    0    0  501 -0.00000000000E+00  0.00000000000E+00  0.59981205251E+02  0.59981205251E+02  0.00000000000E+00 0.  1.
          2   -1    0    0  501    0  0.00000000000E+00 -0.00000000000E+00 -0.39237256415E+03  0.39237256415E+03  0.00000000000E+00 0. -1.
         25    2    1    2    0    0  0.82848189072E+02  0.24690397276E+02 -0.27269679092E+03  0.31222393796E+03  0.12508720761E+03 0.  0.
         23    2    1    2    0    0 -0.82848189072E+02 -0.24690397276E+02 -0.59694567986E+02  0.14012983144E+03  0.92733435521E+02 0.  0.
          5    1    3    3  502    0 -0.81465960540E+01  0.20577988766E+02 -0.18278364177E+03  0.18416610098E+03  0.41800000000E+01 0. -1.
         -5    1    3    3    0  502  0.90994785126E+02  0.41124085099E+01 -0.89913149143E+02  0.12805783698E+03  0.41800000000E+01 0. -1.
        -11    1    4    4    0    0 -0.37185768686E+02 -0.43273195581E+02 -0.69443479682E+02  0.89876291195E+02  0.00000000000E+00 0. -1.
         11    1    4    4    0    0 -0.45662420386E+02  0.18582798305E+02  0.97489116963E+01  0.50253540250E+02  0.00000000000E+00 0.  1.
</event>
<event>
 8    1  0.6597859E-009  0.1444798E+03  0.7561462E-02  0.1207425E+00
         -1   -1    0    0    0  501 -0.00000000000E+00  0.00000000000E+00  0.27277767730E+03  0.27277767730E+03  0.00000000000E+00 0.  1.
          1   -1    0    0  501    0  0.00000000000E+00 -0.00000000000E+00 -0.10556978671E+03  0.10556978671E+03  0.00000000000E+00 0. -1.
         25    2    1    2    0    0  0.80769952251E+02 -0.55820475948E+02 -0.27682470733E+01  0.15902447560E+03  0.12506562249E+03 0.  0.
         23    2    1    2    0    0 -0.80769952251E+02  0.55820475948E+02  0.16997613766E+03  0.21932298840E+03  0.97831360741E+02 0.  0.
          5    1    3    3  502    0  0.17152481929E+02 -0.81123108963E+02  0.22350339414E+02  0.85977767569E+02  0.41800000000E+01 0. -1.
         -5    1    3    3    0  502  0.63617470321E+02  0.25302633016E+02 -0.25118586487E+02  0.73046708035E+02  0.41800000000E+01 0. -1.
        -11    1    4    4    0    0 -0.15830829605E+01 -0.24501743030E+02  0.20008648980E+02  0.31673136838E+02  0.00000000000E+00 0.  1.
         11    1    4    4    0    0 -0.79186869290E+02  0.80322218978E+02  0.14996748868E+03  0.18764985156E+03  0.00000000000E+00 0. -1.
</event>
<event>
 8    1  0.6597859E-009  0.1314347E+03  0.7561462E-02  0.1225342E+00
          1   -1    0    0  501    0  0.00000000000E+00  0.00000000000E+00  0.52189878085E+03  0.52189878085E+03  0.00000000000E+00 0. -1.
         -1   -1    0    0    0  501 -0.00000000000E+00 -0.00000000000E+00 -0.44502022958E+02  0.44502022958E+02  0.00000000000E+00 0.  1.
         25    2    1    2    0    0  0.95731877505E+02 -0.26261658265E+02  0.18476140683E+03  0.24421466615E+03  0.12509899538E+03 0.  0.
         23    2    1    2    0    0 -0.95731877505E+02  0.26261658265E+02  0.29263535106E+03  0.32218613766E+03  0.91182188720E+02 0.  0.
          5    1    3    3  502    0  0.11213359782E+03 -0.35174084431E+02  0.91466994633E+02  0.14897933911E+03  0.41800000000E+01 0. -1.
         -5    1    3    3    0  502 -0.16401720314E+02  0.89124261658E+01  0.93294412194E+02  0.95235327038E+02  0.41800000000E+01 0. -1.
        -11    1    4    4    0    0  0.13821264563E+02  0.33640445990E+01  0.79607890273E+01  0.16300868447E+02  0.00000000000E+00 0.  1.
         11    1    4    4    0    0 -0.10955314207E+03  0.22897613666E+02  0.28467456204E+03  0.30588526921E+03  0.00000000000E+00 0. -1.
</event>
<event>
 8    1  0.6597859E-009  0.1244183E+03  0.7561462E-02  0.1235981E+00
          1   -1    0    0  501    0  0.00000000000E+00  0.00000000000E+00  0.42769419803E+02  0.42769419803E+02  0.00000000000E+00 0. -1.
         -1   -1    0    0    0  501 -0.00000000000E+00 -0.00000000000E+00 -0.48969961591E+03  0.48969961591E+03  0.00000000000E+00 0.  1.
         25    2    1    2    0    0 -0.31953606773E+02  0.89793269599E+02 -0.23390914913E+03  0.28186001782E+03  0.12509082839E+03 0.  0.
         23    2    1    2    0    0  0.31953606773E+02 -0.89793269599E+02 -0.21302104698E+03  0.25060901790E+03  0.91340293103E+02 0.  0.
          5    1    3    3  502    0 -0.23576002467E+02 -0.10594077096E+02 -0.14527821766E+03  0.14761874978E+03  0.41800000000E+01 0. -1.
         -5    1    3    3    0  502 -0.83776043067E+01  0.10038734669E+03 -0.88630931477E+02  0.13424126804E+03  0.41800000000E+01 0. -1.
        -11    1    4    4    0    0  0.46429401987E+02 -0.20002909763E+02 -0.43427494258E+02  0.66646477967E+02  0.00000000000E+00 0. -1.
         11    1    4    4    0    0 -0.14475795213E+02 -0.69790359836E+02 -0.16959355272E+03  0.18396253993E+03  0.00000000000E+00 0.  1.
</event>
<event>
 8    1  0.6597859E-009  0.8233663E+02  0.7561462E-02  0.1322548E+00
         -2   -1    0    0    0  501 -0.00000000000E+00  0.00000000000E+00  0.13559682310E+02  0.13559682310E+02  0.00000000000E+00 0.  1.
          2   -1    0    0  501    0  0.00000000000E+00 -0.00000000000E+00 -0.23907370993E+04  0.23907370993E+04  0.00000000000E+00 0. -1.
         25    2    1    2    0    0 -0.96705130913E+00  0.28018747491E+01 -0.22094280841E+04  0.22129688662E+04  0.12509979344E+03 0.  0.
         23    2    1    2    0    0  0.96705130913E+00 -0.28018747491E+01 -0.16774933290E+03  0.19132791541E+03  0.91966009134E+02 0.  0.
          5    1    3    3  502    0 -0.16958687600E+02 -0.38886503282E+02 -0.29993337386E+03  0.30294761656E+03  0.41800000000E+01 0. -1.
         -5    1    3    3    0  502  0.15991636291E+02  0.41688378031E+02 -0.19094947103E+04  0.19100212497E+04  0.41800000000E+01 0. -1.
        -11    1    4    4    0    0  0.33504840778E+02 -0.21365951633E+02 -0.33576521635E+02  0.52023658559E+02  0.00000000000E+00 0.  1.
         11    1    4    4    0    0 -0.32537789469E+02  0.18564076884E+02 -0.13417281126E+03  0.13930425685E+03  0.00000000000E+00 0. -1.
</event>
<event>
 8    1  0.6597859E-009  0.1232478E+03  0.7561462E-02  0.1237833E+00
          1   -1    0    0  501    0  0.00000000000E+00  0.00000000000E+00  0.21571088805E+03  0.21571088805E+03  0.00000000000E+00 0. -1.
         -1   -1    0    0    0  501 -0.00000000000E+00 -0.00000000000E+00 -0.97302081751E+02  0.97302081751E+02  0.00000000000E+00 0.  1.
         25    2    1    2    0    0 -0.92053023670E+02 -0.20344889495E+02  0.54679533567E+02  0.16590257198E+03  0.12508452463E+03 0.  0.
         23    2    1    2    0    0  0.92053023670E+02  0.20344889495E+02  0.63729272735E+02  0.14711039783E+03  0.93232908620E+02 0.  0.
          5    1    3    3  502    0 -0.42889165084E+01  0.21754437938E+02  0.64161600691E+02  0.68013482326E+02  0.41800000000E+01 0.  1.
         -5    1    3    3    0  502 -0.87764107162E+02 -0.42099327433E+02 -0.94820671238E+01  0.97889089654E+02  0.41800000000E+01 0.  1.
        -11    1    4    4    0    0  0.17071405389E+02 -0.31164258383E+02 -0.85872105062E+00  0.35544075235E+02  0.00000000000E+00 0. -1.
         11    1    4    4    0    0  0.74981618282E+02  0.51509147878E+02  0.64587993786E+02  0.11156632259E+03  0.00000000000E+00 0.  1.
</event>
<event>
 8    1  0.6597859E-009  0.9865411E+02  0.7561462E-02  0.1283152E+00
          2   -1    0    0  501    0  0.00000000000E+00  0.00000000000E+00  0.32330119411E+03  0.32330119411E+03  0.00000000000E+00 0. -1.
         -2   -1    0    0    0  501 -0.00000000000E+00 -0.00000000000E+00 -0.55863989837E+02  0.55863989837E+02  0.00000000000E+00 0.  1.
         25    2    1    2    0    0  0.56017842884E+02 -0.37837107039E+02  0.20478666091E+03  0.24930782152E+03  0.12508864054E+03 0.  0.
         23    2    1    2    0    0 -0.56017842884E+02  0.37837107039E+02  0.62650543364E+02  0.12985736243E+03  0.91477858539E+02 0.  0.
          5    1    3    3  502    0  0.41084874073E+02  0.52313626931E+01  0.19883707524E+03  0.20314770224E+03  0.41800000000E+01 0.  1.
         -5    1    3    3    0  502  0.14932968811E+02 -0.43068469732E+02  0.59495856691E+01  0.46160119283E+02  0.41800000000E+01 0.  1.
        -11    1    4    4    0    0 -0.32899705204E+02  0.65834706050E+02  0.57049018214E+02  0.93119222518E+02  0.00000000000E+00 0. -1.
         11    1    4    4    0    0 -0.23118137680E+02 -0.27997599011E+02  0.56015251505E+01  0.36738139912E+02  0.00000000000E+00 0.  1.
</event>
<event>
 8    1  0.6597859E-009  0.1722244E+03  0.7561462E-02  0.1175548E+00
          1   -1    0    0  501    0  0.00000000000E+00  0.00000000000E+00  0.91278493968E+03  0.91278493968E+03  0.00000000000E+00 0. -1.
         -1   -1    0    0    0  501 -0.00000000000E+00 -0.00000000000E+00 -0.35667431608E+02  0.35667431608E+02  0.00000000000E+00 0.  1.
         25    2    1    2    0    0  0.17651864655E+02  0.14276425669E+03  0.38347315574E+03  0.42823605078E+03  0.12506491393E+03 0.  0.
         23    2    1    2    0    0 -0.17651864655E+02 -0.14276425669E+03  0.49364435232E+03  0.52021632050E+03  0.79038295941E+02 0.  0.
          5    1    3    3  502    0 -0.17591565403E+02  0.14429006360E+03  0.35169500034E+03  0.38057316155E+03  0.41800000000E+01 0.  1.
         -5    1    3    3    0  502  0.35243430058E+02 -0.15258069124E+01  0.31778155409E+02  0.47662889235E+02  0.41800000000E+01 0.  1.
        -11    1    4    4    0    0 -0.45722315002E+02 -0.55886038687E+02  0.24079556010E+03  0.25138870534E+03  0.00000000000E+00 0.  1.
         11    1    4    4    0    0  0.28070450347E+02 -0.86878218001E+02  0.25284879222E+03  0.26882761516E+03  0.00000000000E+00 0. -1.
</event>
<event>
 8    1  0.6597859E-009  0.1339068E+03  0.7561462E-02  0.1221771E+00
         -1   -1    0    0    0  501 -0.00000000000E+00  0.00000000000E+00  0.10575460555E+03  0.10575460555E+03  0.00000000000E+00 0.  1.
          1   -1    0    0  501    0  0.00000000000E+00 -0.00000000000E+00 -0.28891909417E+03  0.28891909417E+03  0.00000000000E+00 0. -1.
         25    2    1    2    0    0  0.11976447915E+03 -0.27318004158E+02 -0.29496067198E+02  0.17777963661E+03  0.12508308197E+03 0.  0.
         23    2    1    2    0    0 -0.11976447915E+03  0.27318004158E+02 -0.15366842142E+03  0.21689406311E+03  0.91319477963E+02 0.  0.
          5    1    3    3  502    0  0.12042569906E+03 -0.55597413362E+01  0.21176424146E+02  0.12247111112E+03  0.41800000000E+01 0.  1.
         -5    1    3    3    0  502 -0.66121991454E+00 -0.21758262822E+02 -0.50672491343E+02  0.55308525489E+02  0.41800000000E+01 0.  1.
        -11    1    4    4    0    0 -0.92467420526E+02  0.10751658096E+02 -0.44553136194E+02  0.10320273231E+03  0.00000000000E+00 0.  1.
         11    1    4    4    0    0 -0.27297058624E+02  0.16566346062E+02 -0.10911528522E+03  0.11369133081E+03  0.00000000000E+00 0. -1.
</event>
<event>
 8    1  0.6597859E-009  0.8633301E+02  0.7561462E-02  0.1311983E+00
          1   -1    0    0  501    0  0.00000000000E+00  0.00000000000E+00  0.15156858007E+02  0.15156858007E+02  0.00000000000E+00 0. -1.
         -1   -1    0    0    0  501 -0.00000000000E+00 -0.00000000000E+00 -0.72361218243E+03  0.72361218243E+03  0.00000000000E+00 0.  1.
         25    2    1    2    0    0  0.38129885178E+01  0.15918526717E+01 -0.59512559663E+03  0.60814382010E+03  0.12508939718E+03 0.  0.
         23    2    1    2    0    0 -0.38129885178E+01 -0.15918526717E+01 -0.11332972779E+03  0.13062522033E+03  0.64824749204E+02 0.  0.
          5    1    3    3  502    0 -0.43402587405E+02 -0.35990938296E+02 -0.18104019823E+03  0.18966327533E+03  0.41800000000E+01 0. -1.
         -5    1    3    3    0  502  0.47215575923E+02  0.37582790968E+02 -0.41408539840E+03  0.41848054477E+03  0.41800000000E+01 0. -1.
        -11    1    4    4    0    0 -0.13525636939E+02 -0.26032156832E+02 -0.92606760191E+02  0.97142308378E+02  0.00000000000E+00 0.  1.
         11    1    4    4    0    0  0.97126484217E+01  0.24440304161E+02 -0.20722967602E+02  0.33482911956E+02  0.00000000000E+00 0. -1.
</event>
<event>
 8    1  0.6597859E-009  0.1097432E+03  0.7561462E-02  0.1261046E+00
         -1   -1    0    0    0  501 -0.00000000000E+00  0.00000000000E+00  0.92556073849E+02  0.92556073849E+02  0.00000000000E+00 0.  1.
          1   -1    0    0  501    0  0.00000000000E+00 -0.00000000000E+00 -0.19263912511E+03  0.19263912511E+03  0.00000000000E+00 0. -1.
         25    2    1    2    0    0 -0.48470213430E+02  0.59759879078E+02 -0.71169456575E+02  0.16319668253E+03  0.12508981135E+03 0.  0.
         23    2    1    2    0    0  0.48470213430E+02 -0.59759879078E+02 -0.28913594686E+02  0.12199851643E+03  0.90150082169E+02 0.  0.
          5    1    3    3  502    0 -0.56528716599E+02  0.82452665504E+02 -0.14012768911E+02  0.10103349911E+03  0.41800000000E+01 0. -1.
         -5    1    3    3    0  502  0.80585031695E+01 -0.22692786426E+02 -0.57156687664E+02  0.62163183427E+02  0.41800000000E+01 0. -1.
        -11    1    4    4    0    0  0.34699363300E+02 -0.10822555247E+01  0.23665897414E+02  0.42015375648E+02  0.00000000000E+00 0.  1.
         11    1    4    4    0    0  0.13770850130E+02 -0.58677623553E+02 -0.52579492100E+02  0.79983140777E+02  0.00000000000E+00 0. -1.
</event>
<event>
 8    1  0.6597859E-009  0.1249524E+03  0.7561462E-02  0.1235144E+00
         -1   -1    0    0    0  501 -0.00000000000E+00  0.00000000000E+00  0.38401247489E+02  0.38401247489E+02  0.00000000000E+00 0.  1.
          1   -1    0    0  501    0  0.00000000000E+00 -0.00000000000E+00 -0.43841874524E+03  0.43841874524E+03  0.00000000000E+00 0. -1.
         25    2    1    2    0    0 -0.26679737728E+02 -0.64084346053E+02 -0.23468711457E+03  0.27485248822E+03  0.12508891525E+03 0.  0.
         23    2    1    2    0    0  0.26679737728E+02  0.64084346053E+02 -0.16533038317E+03  0.20196750451E+03  0.92941516352E+02 0.  0.
          5    1    3    3  502    0 -0.37985974710E+02 -0.98944413895E+02 -0.16942645289E+03  0.19988928599E+03  0.41800000000E+01 0. -1.
         -5    1    3    3    0  502  0.11306236982E+02  0.34860067841E+02 -0.65260661684E+02  0.74963202227E+02  0.41800000000E+01 0. -1.
        -11    1    4    4    0    0  0.55656001955E+02  0.49629938768E+02 -0.73954836250E+02  0.10502399336E+03  0.00000000000E+00 0.  1.
         11    1    4    4    0    0 -0.28976264227E+02  0.14454407285E+02 -0.91375546925E+02  0.96943511151E+02  0.00000000000E+00 0. -1.
</event>
<event>
 8    1  0.6597859E-009  0.6626698E+02  0.7561462E-02  0.1373268E+00
          4   -1    0    0  501    0  0.00000000000E+00  0.00000000000E+00  0.18583146653E+03  0.18583146653E+03  0.00000000000E+00 0. -1.
         -4   -1    0    0    0  501 -0.00000000000E+00 -0.00000000000E+00 -0.68907601227E+02  0.68907601227E+02  0.00000000000E+00 0.  1.
         25    2    1    2    0    0  0.18382198056E+02 -0.26570773060E+02  0.62029247540E+02  0.14332186394E+03  0.12509843303E+03 0.  0.
         23    2    1    2    0    0 -0.18382198056E+02  0.26570773060E+02  0.54894617761E+02  0.11141720381E+03  0.91413691860E+02 0.  0.
          5    1    3    3  502    0 -0.21177263344E+02 -0.11924501873E+01 -0.31708946140E+02  0.38377442404E+02  0.41800000000E+01 0. -1.
         -5    1    3    3    0  502  0.39559461399E+02 -0.25378322873E+02  0.93738193680E+02  0.10494442154E+03  0.41800000000E+01 0. -1.
        -11    1    4    4    0    0 -0.48475270405E+01  0.42529157933E+02 -0.93816989682E+01  0.43820589549E+02  0.00000000000E+00 0.  1.
         11    1    4    4    0    0 -0.13534671015E+02 -0.15958384874E+02  0.64276316729E+02  0.67596614261E+02  0.00000000000E+00 0. -1.
</event>
<event>
 8    1  0.6597859E-009  0.7320940E+02  0.7561462E-02  0.1349507E+00
          4   -1    0    0  501    0  0.00000000000E+00  0.00000000000E+00  0.37267527040E+03  0.37267527040E+03  0.00000000000E+00 0. -1.
         -4   -1    0    0    0  501 -0.00000000000E+00 -0.00000000000E+00 -0.38202459936E+02  0.38202459936E+02  0.00000000000E+00 0.  1.
         25    2    1    2    0    0  0.80215421035E+00 -0.30522670044E+02  0.12699672920E+03  0.18085413523E+03  0.12509105549E+03 0.  0.
         23    2    1    2    0    0 -0.80215421035E+00  0.30522670044E+02  0.20747608126E+03  0.23002359511E+03  0.94510598201E+02 0.  0.
          5    1    3    3  502    0  0.12742346421E+02 -0.58939640751E+02  0.11871584446E+02  0.61600775657E+02  0.41800000000E+01 0.  1.
         -5    1    3    3    0  502 -0.11940192211E+02  0.28416970707E+02  0.11512514476E+03  0.11925335957E+03  0.41800000000E+01 0.  1.
        -11    1    4    4    0    0  0.19844529497E+02  0.24146100874E+01  0.36256763099E+00  0.19994177856E+02  0.00000000000E+00 0.  1.
         11    1    4    4    0    0 -0.20646683708E+02  0.28108059957E+02  0.20711351363E+03  0.21002941725E+03  0.00000000000E+00 0. -1.
</event>
<event>
 8    1  0.6597859E-009  0.8864253E+02  0.7561462E-02  0.1306173E+00
         -1   -1    0    0    0  501 -0.00000000000E+00  0.00000000000E+00  0.39962812089E+02  0.39962812089E+02  0.00000000000E+00 0.  1.
          1   -1    0    0  501    0  0.00000000000E+00 -0.00000000000E+00 -0.43897590873E+03  0.43897590873E+03  0.00000000000E+00 0. -1.
         25    2    1    2    0    0  0.10259741904E+02  0.48912456042E+02 -0.11605522868E+03  0.17781341262E+03  0.12510436820E+03 0.  0.
         23    2    1    2    0    0 -0.10259741904E+02 -0.48912456042E+02 -0.28295786796E+03  0.30112530820E+03  0.90075554609E+02 0.  0.
          5    1    3    3  502    0  0.48411632861E+02  0.39635429701E+02 -0.85508066810E+01  0.63286982696E+02  0.41800000000E+01 0.  1.
         -5    1    3    3    0  502 -0.38151890957E+02  0.92770263407E+01 -0.10750442200E+03  0.11452642992E+03  0.41800000000E+01 0.  1.
        -11    1    4    4    0    0 -0.17002966121E+02 -0.59864014264E+02 -0.28136612064E+03  0.28816608909E+03  0.00000000000E+00 0. -1.
         11    1    4    4    0    0  0.67432242173E+01  0.10951558222E+02 -0.15917473238E+01  0.12959219108E+02  0.00000000000E+00 0.  1.
</event>
<event>
 8    1  0.6597859E-009  0.1050297E+03  0.7561462E-02  0.1270061E+00
          2   -1    0    0  501    0  0.00000000000E+00  0.00000000000E+00  0.29377048111E+03  0.29377048111E+03  0.00000000000E+00 0.  1.
         -2   -1    0    0    0  501 -0.00000000000E+00 -0.00000000000E+00 -0.42540412052E+02  0.42540412052E+02  0.00000000000E+00 0. -1.
         25    2    1    2    0    0  0.26646299979E+01 -0.28928111355E+02  0.14218013298E+03  0.19159227088E+03  0.12509385343E+03 0.  0.
         23    2    1    2    0    0 -0.26646299979E+01  0.28928111355E+02  0.10904993608E+03  0.14471862229E+03  0.90596110279E+02 0.  0.
          5    1    3    3  502    0  0.98338157760E+01 -0.74348927808E+02  0.11690089601E+03  0.13895236193E+03  0.41800000000E+01 0.  1.
         -5    1    3    3    0  502 -0.71691857781E+01  0.45420816453E+02  0.25279236970E+02  0.52639908945E+02  0.41800000000E+01 0.  1.
        -11    1    4    4    0    0 -0.40080110410E+02 -0.21454715070E+01  0.24060157722E+02  0.46796468757E+02  0.00000000000E+00 0.  1.
         11    1    4    4    0    0  0.37415480412E+02  0.31073582862E+02  0.84989778361E+02  0.97922153532E+02  0.00000000000E+00 0. -1.
</event>
<event>
 8    1  0.6597859E-009  0.1474073E+03  0.7561462E-02  0.1203696E+00
          1   -1    0    0  501    0  0.00000000000E+00  0.00000000000E+00  0.10315363104E+04  0.10315363104E+04  0.00000000000E+00 0. -1.
         -1   -1    0    0    0  501 -0.00000000000E+00 -0.00000000000E+00 -0.24097629437E+02  0.24097629437E+02  0.00000000000E+00 0.  1.
         25    2    1    2    0    0 -0.72268479518E+02  0.85567348017E+02  0.63187641623E+03  0.65380342544E+03  0.12508640835E+03 0.  0.
         23    2    1    2    0    0  0.72268479518E+02 -0.85567348017E+02  0.37556226476E+03  0.40183051442E+03  0.88748202408E+02 0.  0.
          5    1    3    3  502    0  0.26502162848E+02  0.59869809909E+01  0.40403571857E+02  0.48868492874E+02  0.41800000000E+01 0. -1.
         -5    1    3    3    0  502 -0.98770642366E+02  0.79580367026E+02  0.59147284437E+03  0.60493493256E+03  0.41800000000E+01 0. -1.
        -11    1    4    4    0    0  0.61564910107E+02 -0.79651874786E+01  0.12971455976E+03  0.14380385732E+03  0.00000000000E+00 0.  1.
         11    1    4    4    0    0  0.10703569411E+02 -0.77602160538E+02  0.24584770500E+03  0.25802665710E+03  0.00000000000E+00 0. -1.
</event>
<event>
 8    1  0.6597859E-009  0.1439426E+03  0.7561462E-02  0.1208120E+00
          2   -1    0    0  501    0  0.00000000000E+00  0.00000000000E+00  0.54762120492E+02  0.54762120492E+02  0.00000000000E+00 0. -1.
         -2   -1    0    0    0  501 -0.00000000000E+00 -0.00000000000E+00 -0.73956172940E+03  0.73956172940E+03  0.00000000000E+00 0.  1.
         25    2    1    2    0    0  0.90734437465E+02 -0.67368426166E+02 -0.60826571768E+03  0.63119404786E+03  0.12508996664E+03 0.  0.
         23    2    1    2    0    0 -0.90734437465E+02  0.67368426166E+02 -0.76533891229E+02  0.16312980204E+03  0.89345692796E+02 0.  0.
          5    1    3    3  502    0  0.11328300284E+03 -0.76258164939E+02 -0.56634077273E+03  0.58258706620E+03  0.41800000000E+01 0.  1.
         -5    1    3    3    0  502 -0.22548565375E+02  0.88897387729E+01 -0.41924944956E+02  0.48606981654E+02  0.41800000000E+01 0.  1.
        -11    1    4    4    0    0 -0.27376845499E+02  0.55949591120E+02 -0.76628868527E+02  0.98751364080E+02  0.00000000000E+00 0.  1.
         11    1    4    4    0    0 -0.63357591966E+02  0.11418835046E+02  0.94977298244E-01  0.64378437961E+02  0.00000000000E+00 0. -1.
</event>
<event>
 8    1  0.6597859E-009  0.1454460E+03  0.7561462E-02  0.1206183E+00
         -2   -1    0    0    0  501 -0.00000000000E+00  0.00000000000E+00  0.32043507988E+02  0.32043507988E+02  0.00000000000E+00 0.  1.
          2   -1    0    0  501    0  0.00000000000E+00 -0.00000000000E+00 -0.72409072046E+03  0.72409072046E+03  0.00000000000E+00 0. -1.
         25    2    1    2    0    0  0.85587402977E+02  0.48106805174E+02 -0.48165922713E+03  0.50723015889E+03  0.12508938704E+03 0.  0.
         23    2    1    2    0    0 -0.85587402977E+02 -0.48106805174E+02 -0.21038798534E+03  0.24890406956E+03  0.89725488113E+02 0.  0.
          5    1    3    3  502    0 -0.34487247393E+01  0.67336153752E+02 -0.21997074651E+03  0.23011008892E+03  0.41800000000E+01 0.  1.
         -5    1    3    3    0  502  0.89036127716E+02 -0.19229348577E+02 -0.26168848062E+03  0.27712006996E+03  0.41800000000E+01 0.  1.
        -11    1    4    4    0    0 -0.10374322771E+03 -0.34037732822E+02 -0.18364856111E+03  0.21365396919E+03  0.00000000000E+00 0.  1.
         11    1    4    4    0    0  0.18155824730E+02 -0.14069072352E+02 -0.26739424226E+02  0.35250100374E+02  0.00000000000E+00 0. -1.
</event>
<event>
 8    1  0.6597859E-009  0.1322557E+03  0.7561462E-02  0.1224147E+00
          1   -1    0    0  501    0  0.00000000000E+00  0.00000000000E+00  0.31853154888E+03  0.31853154888E+03  0.00000000000E+00 0. -1.
         -1   -1    0    0    0  501 -0.00000000000E+00 -0.00000000000E+00 -0.86156281030E+02  0.86156281030E+02  0.00000000000E+00 0.  1.
         25    2    1    2    0    0 -0.12007472370E+03 -0.32525530493E+02  0.14336065925E+03  0.22732138046E+03  0.12508749733E+03 0.  0.
         23    2    1    2    0    0  0.12007472370E+03  0.32525530493E+02  0.89014608601E+02  0.17736644946E+03  0.89774202550E+02 0.  0.
          5    1    3    3  502    0 -0.42743859984E+01  0.57392679935E+01  0.96103689462E+02  0.96460360257E+02  0.41800000000E+01 0.  1.
         -5    1    3    3    0  502 -0.11580033770E+03 -0.38264798486E+02  0.47256969791E+02  0.13086102020E+03  0.41800000000E+01 0.  1.
        -11    1    4    4    0    0  0.89973685679E+02  0.13231336567E+00  0.97139864539E+02  0.13240632502E+03  0.00000000000E+00 0.  1.
         11    1    4    4    0    0  0.30101038017E+02  0.32393217127E+02 -0.81252559383E+01  0.44960124439E+02  0.00000000000E+00 0. -1.
</event>
<event>
 8    1  0.6597859E-009  0.1273261E+03  0.7561462E-02  0.1231478E+00
         -1   -1    0    0    0  501 -0.00000000000E+00  0.00000000000E+00  0.67598925441E+02  0.67598925441E+02  0.00000000000E+00 0.  1.
          1   -1    0    0  501    0  0.00000000000E+00 -0.00000000000E+00 -0.37059082455E+03  0.37059082455E+03  0.00000000000E+00 0. -1.
         25    2    1    2    0    0 -0.60922336781E+02  0.33451302242E+02 -0.35934453202E+02  0.14758544770E+03  0.12513855803E+03 0.  0.
         23    2    1    2    0    0  0.60922336781E+02 -0.33451302242E+02 -0.26705744591E+03  0.29060430229E+03  0.91107959886E+02 0.  0.
          5    1    3    3  502    0 -0.97293985030E+02  0.12047759541E+02 -0.11914117105E+02  0.98846783556E+02  0.41800000000E+01 0.  1.
         -5    1    3    3    0  502  0.36371648249E+02  0.21403542701E+02 -0.24020336097E+02  0.48738664146E+02  0.41800000000E+01 0.  1.
        -11    1    4    4    0    0  0.45445592953E+02  0.26223289128E+02 -0.13603253789E+03  0.14580059731E+03  0.00000000000E+00 0.  1.
         11    1    4    4    0    0  0.15476743828E+02 -0.59674591371E+02 -0.13102490802E+03  0.14480370498E+03  0.00000000000E+00 0. -1.
</event>
<event>
 8    1  0.6597859E-009  0.8414553E+02  0.7561462E-02  0.1317682E+00
          3   -1    0    0  501    0  0.00000000000E+00  0.00000000000E+00  0.51354934675E+02  0.51354934675E+02  0.00000000000E+00 0. -1.
         -3   -1    0    0    0  501 -0.00000000000E+00 -0.00000000000E+00 -0.27180929739E+03  0.27180929739E+03  0.00000000000E+00 0.  1.
         25    2    1    2    0    0 -0.27008797748E+02  0.24552472649E+02 -0.89489960933E+02  0.15807708408E+03  0.12509041663E+03 0.  0.
         23    2    1    2    0    0  0.27008797748E+02 -0.24552472649E+02 -0.13096440179E+03  0.16508714799E+03  0.93647172025E+02 0.  0.
          5    1    3    3  502    0  0.26312492646E+02  0.14339570468E+02  0.19671356028E+02  0.36088851443E+02  0.41800000000E+01 0.  1.
         -5    1    3    3    0  502 -0.53321290395E+02  0.10212902181E+02 -0.10916131696E+03  0.12198823263E+03  0.41800000000E+01 0.  1.
        -11    1    4    4    0    0  0.59436498311E+01  0.27129767633E+02 -0.62691259351E+01  0.28471972273E+02  0.00000000000E+00 0. -1.
         11    1    4    4    0    0  0.21065147917E+02 -0.51682240282E+02 -0.12469527585E+03  0.13661517572E+03  0.00000000000E+00 0.  1.
</event>
<event>
 8    1  0.6597859E-009  0.1444327E+03  0.7561462E-02  0.1207486E+00
         -1   -1    0    0    0  501 -0.00000000000E+00  0.00000000000E+00  0.50685799034E+02  0.50685799034E+02  0.00000000000E+00 0.  1.
          1   -1    0    0  501    0  0.00000000000E+00 -0.00000000000E+00 -0.47462986195E+03  0.47462986195E+03  0.00000000000E+00 0. -1.
         25    2    1    2    0    0 -0.36266899400E+02  0.93569671307E+02 -0.30641944151E+03  0.34584787808E+03  0.12508920519E+03 0.  0.
         23    2    1    2    0    0  0.36266899400E+02 -0.93569671307E+02 -0.11752462141E+03  0.17946778291E+03  0.91247340155E+02 0.  0.
          5    1    3    3  502    0 -0.81900672925E+02  0.56292807929E+02 -0.16617400592E+03  0.19366949448E+03  0.41800000000E+01 0. -1.
         -5    1    3    3    0  502  0.45633773524E+02  0.37276863378E+02 -0.14024543559E+03  0.15217838359E+03  0.41800000000E+01 0. -1.
        -11    1    4    4    0    0 -0.27220349980E+02 -0.27321846964E+02 -0.13750144712E+02  0.40945051644E+02  0.00000000000E+00 0.  1.
         11    1    4    4    0    0  0.63487249380E+02 -0.66247824342E+02 -0.10377447670E+03  0.13852273127E+03  0.00000000000E+00 0. -1.
</event>
<event>
 8    1  0.6597859E-009  0.1049683E+03  0.7561462E-02  0.1270182E+00
         -1   -1    0    0    0  501 -0.00000000000E+00  0.00000000000E+00  0.11424357536E+03  0.11424357536E+03  0.00000000000E+00 0.  1.
          1   -1    0    0  501    0  0.00000000000E+00 -0.00000000000E+00 -0.13705713449E+03  0.13705713449E+03  0.00000000000E+00 0. -1.
         25    2    1    2    0    0 -0.13583408638E+02  0.39233501271E+02  0.34037654349E+02  0.13613613896E+03  0.12510279695E+03 0.  0.
         23    2    1    2    0    0  0.13583408638E+02 -0.39233501271E+02 -0.56851213479E+02  0.11516457089E+03  0.91142971765E+02 0.  0.
          5    1    3    3  502    0 -0.37810798193E+02 -0.29824488951E+02  0.39787351812E+02  0.62607206976E+02  0.41800000000E+01 0.  1.
         -5    1    3    3    0  502  0.24227389555E+02  0.69057990222E+02 -0.57496974634E+01  0.73528931986E+02  0.41800000000E+01 0.  1.
        -11    1    4    4    0    0  0.38777278911E+02  0.32381038653E+01 -0.52837522391E+02  0.65619863218E+02  0.00000000000E+00 0. -1.
         11    1    4    4    0    0 -0.25193870273E+02 -0.42471605136E+02 -0.40136910880E+01  0.49544707672E+02  0.00000000000E+00 0.  1.
</event>
<event>
 8    1  0.6597859E-009  0.1528712E+03  0.7561462E-02  0.1196989E+00
         -1   -1    0    0    0  501 -0.00000000000E+00  0.00000000000E+00  0.33081370992E+02  0.33081370992E+02  0.00000000000E+00 0.  1.
          1   -1    0    0  501    0  0.00000000000E+00 -0.00000000000E+00 -0.90406293340E+03  0.90406293340E+03  0.00000000000E+00 0. -1.
         25    2    1    2    0    0  0.63348765525E+02  0.11032618935E+03 -0.34484264075E+03  0.38826300522E+03  0.12508709042E+03 0.  0.
         23    2    1    2    0    0 -0.63348765525E+02 -0.11032618935E+03 -0.52613892165E+03  0.54888129917E+03  0.90904243868E+02 0.  0.
          5    1    3    3  502    0  0.19808300309E+02 -0.16339394403E+02 -0.10480973098E+02  0.28047598251E+02  0.41800000000E+01 0. -1.
         -5    1    3    3    0  502  0.43540465216E+02  0.12666558375E+03 -0.33436166766E+03  0.36021540697E+03  0.41800000000E+01 0. -1.
        -11    1    4    4    0    0 -0.19157192444E+02 -0.97983190653E+02 -0.44106093580E+03  0.45221947411E+03  0.00000000000E+00 0.  1.
         11    1    4    4    0    0 -0.44191573081E+02 -0.12342998696E+02 -0.85077985853E+02  0.96661825065E+02  0.00000000000E+00 0. -1.
</event>
<event>
 8    1  0.6597859E-009  0.1744509E+03  0.7561462E-02  0.1173284E+00
          1   -1    0    0  501    0  0.00000000000E+00  0.00000000000E+00  0.38695770096E+03  0.38695770096E+03  0.00000000000E+00 0. -1.
         -1   -1    0    0    0  501 -0.00000000000E+00 -0.00000000000E+00 -0.93869390713E+02  0.93869390713E+02  0.00000000000E+00 0.  1.
         25    2    1    2    0    0  0.15367048728E+03  0.25117687100E+02  0.13408375710E+03  0.24056411399E+03  0.12508845732E+03 0.  0.
         23    2    1    2    0    0 -0.15367048728E+03 -0.25117687100E+02  0.15900455315E+03  0.24026297769E+03  0.90544650097E+02 0.  0.
          5    1    3    3  502    0  0.15873701515E+03  0.33181317492E+02  0.15040007704E+03  0.22121504330E+03  0.41800000000E+01 0. -1.
         -5    1    3    3    0  502 -0.50665278717E+01 -0.80636303925E+01 -0.16316319943E+02  0.19349070682E+02  0.41800000000E+01 0. -1.
        -11    1    4    4    0    0 -0.10216702766E+03  0.24175880645E+02  0.11830197246E+03  0.15817057702E+03  0.00000000000E+00 0.  1.
         11    1    4    4    0    0 -0.51503459615E+02 -0.49293567744E+02  0.40702580687E+02  0.82092400671E+02  0.00000000000E+00 0. -1.
</event>
<event>
 8    1  0.6597859E-009  0.9327189E+02  0.7561462E-02  0.1295116E+00
         -2   -1    0    0    0  501 -0.00000000000E+00  0.00000000000E+00  0.16262958274E+03  0.16262958274E+03  0.00000000000E+00 0. -1.
          2   -1    0    0  501    0  0.00000000000E+00 -0.00000000000E+00 -0.17975112323E+03  0.17975112323E+03  0.00000000000E+00 0.  1.
         25    2    1    2    0    0 -0.19629442468E+02  0.16695544687E+02 -0.13815710693E+03  0.18815087733E+03  0.12509720310E+03 0.  0.
         23    2    1    2    0    0  0.19629442468E+02 -0.16695544687E+02  0.12103556643E+03  0.15422982864E+03  0.92049853214E+02 0.  0.
          5    1    3    3  502    0 -0.52456669060E+02 -0.90921917633E+01 -0.11365660103E+02  0.54598724431E+02  0.41800000000E+01 0.  1.
         -5    1    3    3    0  502  0.32827226592E+02  0.25787736450E+02 -0.12679144683E+03  0.13355215290E+03  0.41800000000E+01 0.  1.
        -11    1    4    4    0    0  0.14717486073E+02  0.35672677563E+02  0.74937981944E+02  0.84290245335E+02  0.00000000000E+00 0. -1.
         11    1    4    4    0    0  0.49119563942E+01 -0.52368222250E+02  0.46097584491E+02  0.69939583307E+02  0.00000000000E+00 0.  1.
</event>
<event>
 8    1  0.6597859E-009  0.1548184E+03  0.7561462E-02  0.1194674E+00
         -2   -1    0    0    0  501 -0.00000000000E+00  0.00000000000E+00  0.15959419044E+02  0.15959419044E+02  0.00000000000E+00 0.  1.
          2   -1    0    0  501    0  0.00000000000E+00 -0.00000000000E+00 -0.23831663433E+04  0.23831663433E+04  0.00000000000E+00 0. -1.
         25    2    1    2    0    0  0.29154963858E+02 -0.13402485916E+03 -0.17710223211E+04  0.17807252235E+04  0.12509830159E+03 0.  0.
         23    2    1    2    0    0 -0.29154963858E+02  0.13402485916E+03 -0.59618460318E+03  0.61840053885E+03  0.90390655422E+02 0.  0.
          5    1    3    3  502    0 -0.24977442026E+02 -0.11614060055E+02 -0.80315006348E+03  0.80363316001E+03  0.41800000000E+01 0.  1.
         -5    1    3    3    0  502  0.54132405884E+02 -0.12241079911E+03 -0.96787225763E+03  0.97709206352E+03  0.41800000000E+01 0.  1.
        -11    1    4    4    0    0  0.15788436879E+02  0.51874966308E+02 -0.10296363070E+03  0.11636922323E+03  0.00000000000E+00 0.  1.
         11    1    4    4    0    0 -0.44943400737E+02  0.82149892854E+02 -0.49322097248E+03  0.50203131562E+03  0.00000000000E+00 0. -1.
</event>
<event>
 8    1  0.6597859E-009  0.1327230E+03  0.7561462E-02  0.1223470E+00
         -1   -1    0    0    0  501 -0.00000000000E+00  0.00000000000E+00  0.12496517935E+03  0.12496517935E+03  0.00000000000E+00 0.  1.
          1   -1    0    0  501    0  0.00000000000E+00 -0.00000000000E+00 -0.18747776118E+03  0.18747776118E+03  0.00000000000E+00 0. -1.
         25    2    1    2    0    0  0.75597413404E+02 -0.64484353351E+02 -0.68024919011E+01  0.15989565856E+03  0.12508855659E+03 0.  0.
         23    2    1    2    0    0 -0.75597413404E+02  0.64484353351E+02 -0.55710089936E+02  0.15254728197E+03  0.10145865353E+03 0.  0.
          5    1    3    3  502    0  0.19114653641E+02  0.23416253724E+02 -0.39885679696E+02  0.50219824443E+02  0.41800000000E+01 0. -1.
         -5    1    3    3    0  502  0.56482759763E+02 -0.87900607074E+02  0.33083187795E+02  0.10967583412E+03  0.41800000000E+01 0. -1.
        -11    1    4    4    0    0 -0.50576852269E+02 -0.10204050674E+02  0.67297946114E+01  0.52032977726E+02  0.00000000000E+00 0.  1.
         11    1    4    4    0    0 -0.25020561135E+02  0.74688404024E+02 -0.62439884547E+02  0.10051430424E+03  0.00000000000E+00 0. -1.
</event>
<event>
 8    1  0.6597859E-009  0.1185646E+03  0.7561462E-02  0.1245484E+00
         -3   -1    0    0    0  501 -0.00000000000E+00  0.00000000000E+00  0.16309805840E+03  0.16309805840E+03  0.00000000000E+00 0.  1.
          3   -1    0    0  501    0  0.00000000000E+00 -0.00000000000E+00 -0.11808055483E+03  0.11808055483E+03  0.00000000000E+00 0. -1.
         25    2    1    2    0    0 -0.47868900002E+02 -0.52817390747E+02  0.74674793535E+02  0.16218719984E+03  0.12508898693E+03 0.  0.
         23    2    1    2    0    0  0.47868900002E+02  0.52817390747E+02 -0.29657289961E+02  0.11899141339E+03  0.90544426997E+02 0.  0.
          5    1    3    3  502    0 -0.84185032172E+02 -0.66769387510E+01  0.50966918441E+02  0.98725884794E+02  0.41800000000E+01 0.  1.
         -5    1    3    3    0  502  0.36316132171E+02 -0.46140451996E+02  0.23707875093E+02  0.63461315048E+02  0.41800000000E+01 0.  1.
        -11    1    4    4    0    0  0.22695946842E+02 -0.10916390394E+02 -0.42377027714E+02  0.49295903077E+02  0.00000000000E+00 0. -1.
         11    1    4    4    0    0  0.25172953160E+02  0.63733781141E+02  0.12719737754E+02  0.69695510313E+02  0.00000000000E+00 0.  1.
</event>
<event>
 8    1  0.6597859E-009  0.1009364E+03  0.7561462E-02  0.1278339E+00
         -2   -1    0    0    0  501 -0.00000000000E+00  0.00000000000E+00  0.19176703633E+02  0.19176703633E+02  0.00000000000E+00 0.  1.
          2   -1    0    0  501    0  0.00000000000E+00 -0.00000000000E+00 -0.81241366870E+03  0.81241366870E+03  0.00000000000E+00 0. -1.
         25    2    1    2    0    0  0.59324947998E+02  0.15577911583E+02 -0.48529379917E+03  0.50489736173E+03  0.12509657706E+03 0.  0.
         23    2    1    2    0    0 -0.59324947998E+02 -0.15577911583E+02 -0.30794316590E+03  0.32669301060E+03  0.90206479618E+02 0.  0.
          5    1    3    3  502    0  0.44731694652E+01  0.36477938580E+02 -0.35490954500E+02  0.51261384096E+02  0.41800000000E+01 0.  1.
         -5    1    3    3    0  502  0.54851778533E+02 -0.20900026997E+02 -0.44980284467E+03  0.45363597764E+03  0.41800000000E+01 0.  1.
        -11    1    4    4    0    0 -0.53593923571E+01 -0.44492200877E+02 -0.16935606635E+03  0.17518492011E+03  0.00000000000E+00 0.  1.
         11    1    4    4    0    0 -0.53965555641E+02  0.28914289294E+02 -0.13858709955E+03  0.15150809049E+03  0.00000000000E+00 0. -1.
</event>
<event>
 8    1  0.6597859E-009  0.1013321E+03  0.7561462E-02  0.1277519E+00
          1   -1    0    0  501    0  0.00000000000E+00  0.00000000000E+00  0.70727326734E+02  0.70727326734E+02  0.00000000000E+00 0. -1.
         -1   -1    0    0    0  501 -0.00000000000E+00 -0.00000000000E+00 -0.18619892365E+03  0.18619892365E+03  0.00000000000E+00 0.  1.
         25    2    1    2    0    0 -0.60393942440E+00  0.35586382683E+02 -0.81201324417E+02  0.15333208810E+03  0.12510123412E+03 0.  0.
         23    2    1    2    0    0  0.60393942440E+00 -0.35586382683E+02 -0.34270272498E+02  0.10359416228E+03  0.91052421751E+02 0.  0.
          5    1    3    3  502    0 -0.45328615354E+02  0.40266401217E+02 -0.41160331480E+00  0.60775885466E+02  0.41800000000E+01 0. -1.
         -5    1    3    3    0  502  0.44724675930E+02 -0.46800185336E+01 -0.80789721102E+02  0.92556202635E+02  0.41800000000E+01 0. -1.
        -11    1    4    4    0    0 -0.25409772000E+02 -0.57403312134E+02 -0.29314672904E+02  0.69283091765E+02  0.00000000000E+00 0.  1.
         11    1    4    4    0    0  0.26013711424E+02  0.21816929451E+02 -0.49555995944E+01  0.34311070518E+02  0.00000000000E+00 0. -1.
</event>
<event>
 8    1  0.6597859E-009  0.1732968E+03  0.7561462E-02  0.1174453E+00
         -1   -1    0    0    0  501 -0.00000000000E+00  0.00000000000E+00  0.89521826632E+02  0.89521826632E+02  0.00000000000E+00 0. -1.
          1   -1    0    0  501    0  0.00000000000E+00 -0.00000000000E+00 -0.34833295904E+03  0.34833295904E+03  0.00000000000E+00 0.  1.
         25    2    1    2    0    0 -0.94056173165E+02  0.78049018402E+02 -0.94375213593E+02  0.19872761189E+03  0.12509104605E+03 0.  0.
         23    2    1    2    0    0  0.94056173165E+02 -0.78049018402E+02 -0.16443591882E+03  0.23912717378E+03  0.12330620772E+03 0.  0.
          5    1    3    3  502    0  0.24359355917E+02 -0.10411800806E+02 -0.11124647771E+02  0.29034703455E+02  0.41800000000E+01 0.  1.
         -5    1    3    3    0  502 -0.11841552908E+03  0.88460819207E+02 -0.83250565822E+02  0.16969290843E+03  0.41800000000E+01 0.  1.
        -11    1    4    4    0    0  0.10208271004E+02  0.31980381074E+02 -0.19745478760E+02  0.38946598080E+02  0.00000000000E+00 0. -1.
         11    1    4    4    0    0  0.83847902161E+02 -0.11002939948E+03 -0.14469044006E+03  0.20018057570E+03  0.00000000000E+00 0.  1.
</event>
<event>
 8    1  0.6597859E-009  0.1112886E+03  0.7561462E-02  0.1258202E+00
         -1   -1    0    0    0  501 -0.00000000000E+00  0.00000000000E+00  0.19191094145E+03  0.19191094145E+03  0.00000000000E+00 0. -1.
          1   -1    0    0  501    0  0.00000000000E+00 -0.00000000000E+00 -0.97036178607E+02  0.97036178607E+02  0.00000000000E+00 0.  1.
         25    2    1    2    0    0  0.66679896133E+02 -0.40726642146E+02  0.82556771001E+02  0.16901903459E+03  0.12508775194E+03 0.  0.
         23    2    1    2    0    0 -0.66679896133E+02  0.40726642146E+02  0.12317991841E+02  0.11992808547E+03  0.90145132051E+02 0.  0.
          5    1    3    3  502    0  0.46653998749E+02  0.11385662971E+02 -0.19990302774E+02  0.52185376549E+02  0.41800000000E+01 0.  1.
         -5    1    3    3    0  502  0.20025897384E+02 -0.52112305117E+02  0.10254707377E+03  0.11683365804E+03  0.41800000000E+01 0.  1.
        -11    1    4    4    0    0  0.22059899906E+02  0.43638931588E+01  0.82097119819E+01  0.23939133614E+02  0.00000000000E+00 0. -1.
         11    1    4    4    0    0 -0.88739796039E+02  0.36362748987E+02  0.41082798587E+01  0.95988951856E+02  0.00000000000E+00 0.  1.
</event>
<event>
 8    1  0.6597859E-009  0.1042291E+03  0.7561462E-02  0.1271646E+00
         -1   -1    0    0    0  501 -0.00000000000E+00  0.00000000000E+00  0.28939293489E+03  0.28939293489E+03  0.00000000000E+00 0.  1.
          1   -1    0    0  501    0  0.00000000000E+00 -0.00000000000E+00 -0.58268215034E+02  0.58268215034E+02  0.00000000000E+00 0. -1.
         25    2    1    2    0    0 -0.19238624766E+02 -0.65235825140E+02  0.14471120758E+03  0.20303436697E+03  0.12512307145E+03 0.  0.
         23    2    1    2    0    0  0.19238624766E+02  0.65235825140E+02  0.86413512279E+02  0.14462678295E+03  0.93934943862E+02 0.  0.
          5    1    3    3  502    0  0.46065684836E+02 -0.20625597515E+02  0.99985802055E+02  0.11208075484E+03  0.41800000000E+01 0.  1.
         -5    1    3    3    0  502 -0.65304309602E+02 -0.44610227625E+02  0.44725405527E+02  0.90953612138E+02  0.41800000000E+01 0.  1.
        -11    1    4    4    0    0  0.13776438853E+02  0.64196895094E+00  0.78056998555E+02  0.79265991541E+02  0.00000000000E+00 0.  1.
         11    1    4    4    0    0  0.54621859126E+01  0.64593856189E+02  0.83565137241E+01  0.65360791412E+02  0.00000000000E+00 0. -1.
</event>
<event>
 8    1  0.6597859E-009  0.1680435E+03  0.7561462E-02  0.1179904E+00
          1   -1    0    0  501    0  0.00000000000E+00  0.00000000000E+00  0.49071123450E+03  0.49071123450E+03  0.00000000000E+00 0.  1.
         -1   -1    0    0    0  501 -0.00000000000E+00 -0.00000000000E+00 -0.75268652939E+02  0.75268652939E+02  0.00000000000E+00 0. -1.
         25    2    1    2    0    0  0.12578400940E+03 -0.65466639378E+02  0.31888998591E+03  0.37073684465E+03  0.12508991556E+03 0.  0.
         23    2    1    2    0    0 -0.12578400940E+03  0.65466639378E+02  0.96552595647E+02  0.19524304278E+03  0.93219869862E+02 0.  0.
          5    1    3    3  502    0  0.19681021968E+02 -0.66747500064E+02  0.64105743270E+02  0.94707919999E+02  0.41800000000E+01 0.  1.
         -5    1    3    3    0  502  0.10610298743E+03  0.12808606859E+01  0.25478424264E+03  0.27602892465E+03  0.41800000000E+01 0.  1.
        -11    1    4    4    0    0  0.60485386162E+01  0.19734465413E+02 -0.66507294001E+01  0.21685620721E+02  0.00000000000E+00 0. -1.
         11    1    4    4    0    0 -0.13183254802E+03  0.45732173965E+02  0.10320332505E+03  0.17355742206E+03  0.00000000000E+00 0.  1.
</event>
<event>
 8    1  0.6597859E-009  0.1529315E+03  0.7561462E-02  0.1196916E+00
          1   -1    0    0  501    0  0.00000000000E+00  0.00000000000E+00  0.14982305268E+03  0.14982305268E+03  0.00000000000E+00 0. -1.
         -1   -1    0    0    0  501 -0.00000000000E+00 -0.00000000000E+00 -0.19164181595E+03  0.19164181595E+03  0.00000000000E+00 0.  1.
         25    2    1    2    0    0 -0.22842790958E+02  0.12139945173E+03  0.16675570715E+02  0.17659042465E+03  0.12508590424E+03 0.  0.
         23    2    1    2    0    0  0.22842790958E+02 -0.12139945173E+03 -0.58494333986E+02  0.16487444399E+03  0.92208324960E+02 0.  0.
          5    1    3    3  502    0  0.23318510944E+02  0.11239015085E+03  0.42863110138E+02  0.12259697211E+03  0.41800000000E+01 0. -1.
         -5    1    3    3    0  502 -0.46161301902E+02  0.90093008787E+01 -0.26187539423E+02  0.53993452535E+02  0.41800000000E+01 0. -1.
        -11    1    4    4    0    0 -0.97387390749E+01 -0.10819113953E+03 -0.16125851788E+02  0.10981898200E+03  0.00000000000E+00 0. -1.
         11    1    4    4    0    0  0.32581530033E+02 -0.13208312197E+02 -0.42368482198E+02  0.55055461983E+02  0.00000000000E+00 0.  1.
</event>
<event>
 8    1  0.6597859E-009  0.1053369E+03  0.7561462E-02  0.1269457E+00
          1   -1    0    0  501    0  0.00000000000E+00  0.00000000000E+00  0.22637597392E+03  0.22637597392E+03  0.00000000000E+00 0. -1.
         -1   -1    0    0    0  501 -0.00000000000E+00 -0.00000000000E+00 -0.62633514071E+02  0.62633514071E+02  0.00000000000E+00 0.  1.
         25    2    1    2    0    0 -0.44128649959E+02 -0.43707496984E+01  0.11284347127E+03  0.17421035118E+03  0.12509658768E+03 0.  0.
         23    2    1    2    0    0  0.44128649959E+02  0.43707496984E+01  0.50898988578E+02  0.11479913681E+03  0.92853075199E+02 0.  0.
          5    1    3    3  502    0  0.41686377662E+02 -0.18055403507E+02  0.35576130529E+02  0.57852269979E+02  0.41800000000E+01 0.  1.
         -5    1    3    3    0  502 -0.85815027621E+02  0.13684653808E+02  0.77267340740E+02  0.11635808120E+03  0.41800000000E+01 0.  1.
        -11    1    4    4    0    0 -0.16887538491E+02  0.94135416802E-01 -0.16620014055E+02  0.23694359771E+02  0.00000000000E+00 0.  1.
         11    1    4    4    0    0  0.61016188451E+02  0.42766142816E+01  0.67519002634E+02  0.91104777039E+02  0.00000000000E+00 0. -1.
</event>
<event>
 8    1  0.6597859E-009  0.1776792E+03  0.7561462E-02  0.1170068E+00
          1   -1    0    0  501    0  0.00000000000E+00  0.00000000000E+00  0.11545183880E+04  0.11545183880E+04  0.00000000000E+00 0. -1.
         -1   -1    0    0    0  501 -0.00000000000E+00 -0.00000000000E+00 -0.32419603835E+02  0.32419603835E+02  0.00000000000E+00 0.  1.
         25    2    1    2    0    0 -0.10033293076E+03  0.12142453430E+03  0.67615522337E+03  0.70543882404E+03  0.12508970318E+03 0.  0.
         23    2    1    2    0    0  0.10033293076E+03 -0.12142453430E+03  0.44594356074E+03  0.48149916775E+03  0.90361355948E+02 0.  0.
          5    1    3    3  502    0 -0.46375553136E+02 -0.17926826518E+01  0.34265273971E+03  0.34580670622E+03  0.41800000000E+01 0.  1.
         -5    1    3    3    0  502 -0.53957377628E+02  0.12321721695E+03  0.33350248367E+03  0.35963211782E+03  0.41800000000E+01 0.  1.
        -11    1    4    4    0    0  0.51154645732E+00 -0.53362469281E+02  0.20673211440E+03  0.21350873971E+03  0.00000000000E+00 0.  1.
         11    1    4    4    0    0  0.99821384306E+02 -0.68062065017E+02  0.23921144634E+03  0.26799042803E+03  0.00000000000E+00 0. -1.
</event>
<event>
 8    1  0.6597859E-009  0.1415092E+03  0.7561462E-02  0.1211313E+00
          2   -1    0    0  501    0  0.00000000000E+00  0.00000000000E+00  0.20715758752E+03  0.20715758752E+03  0.00000000000E+00 0. -1.
         -2   -1    0    0    0  501 -0.00000000000E+00 -0.00000000000E+00 -0.12584857378E+03  0.12584857378E+03  0.00000000000E+00 0.  1.
         25    2    1    2    0    0 -0.64942312922E+02 -0.99800936681E+02  0.51860537952E+02  0.18031659986E+03  0.12508728879E+03 0.  0.
         23    2    1    2    0    0  0.64942312922E+02  0.99800936681E+02  0.29448475789E+02  0.15268956144E+03  0.90934913414E+02 0.  0.
          5    1    3    3  502    0 -0.84136503986E+02 -0.66702293630E+02 -0.95149794744E+01  0.10787100868E+03  0.41800000000E+01 0. -1.
         -5    1    3    3    0  502  0.19194191063E+02 -0.33098643052E+02  0.61375517426E+02  0.72445591182E+02  0.41800000000E+01 0. -1.
        -11    1    4    4    0    0  0.75227113991E+02  0.60742635577E+02 -0.87673586066E+01  0.97085802429E+02  0.00000000000E+00 0.  1.
         11    1    4    4    0    0 -0.10284801069E+02  0.39058301104E+02  0.38215834395E+02  0.55603759015E+02  0.00000000000E+00 0. -1.
</event>
<event>
 8    1  0.6597859E-009  0.2552613E+03  0.7561462E-02  0.1110024E+00
          2   -1    0    0  501    0  0.00000000000E+00  0.00000000000E+00  0.60922230798E+03  0.60922230798E+03  0.00000000000E+00 0. -1.
         -2   -1    0    0    0  501 -0.00000000000E+00 -0.00000000000E+00 -0.11793232228E+03  0.11793232228E+03  0.00000000000E+00 0.  1.
         25    2    1    2    0    0  0.23091699381E+01  0.23258392560E+03  0.35525920336E+03  0.44267054868E+03  0.12508996116E+03 0.  0.
         23    2    1    2    0    0 -0.23091699381E+01 -0.23258392560E+03  0.13603078234E+03  0.28448408157E+03  0.91248036736E+02 0.  0.
          5    1    3    3  502    0  0.56256829657E+02  0.67946483993E+02  0.92322597938E+02  0.12775950086E+03  0.41800000000E+01 0.  1.
         -5    1    3    3    0  502 -0.53947659719E+02  0.16463744161E+03  0.26293660542E+03  0.31491104782E+03  0.41800000000E+01 0.  1.
        -11    1    4    4    0    0  0.43113310232E+02 -0.11984115711E+03  0.57239417408E+02  0.13963169899E+03  0.00000000000E+00 0. -1.
         11    1    4    4    0    0 -0.45422480170E+02 -0.11274276849E+03  0.78791364934E+02  0.14485238258E+03  0.00000000000E+00 0.  1.
</event>
<event>
 8    1  0.6597859E-009  0.1036122E+03  0.7561462E-02  0.1272878E+00
          2   -1    0    0  501    0  0.00000000000E+00  0.00000000000E+00  0.49277101522E+03  0.49277101522E+03  0.00000000000E+00 0. -1.
         -2   -1    0    0    0  501 -0.00000000000E+00 -0.00000000000E+00 -0.27937209323E+02  0.27937209323E+02  0.00000000000E+00 0.  1.
         25    2    1    2    0    0  0.16292343501E+02  0.42526940080E+02  0.25425483429E+03  0.28699702707E+03  0.12509113358E+03 0.  0.
         23    2    1    2    0    0 -0.16292343501E+02 -0.42526940080E+02  0.21057897161E+03  0.23371119747E+03  0.90572840574E+02 0.  0.
          5    1    3    3  502    0 -0.26311188816E+02  0.62917211400E+02  0.21450373479E+03  0.22512258614E+03  0.41800000000E+01 0. -1.
         -5    1    3    3    0  502  0.42603532317E+02 -0.20390271321E+02  0.39751099495E+02  0.61874440939E+02  0.41800000000E+01 0. -1.
        -11    1    4    4    0    0  0.32067382703E+02 -0.22325494048E+02  0.14270621065E+03  0.14795880263E+03  0.00000000000E+00 0. -1.
         11    1    4    4    0    0 -0.48359726205E+02 -0.20201446031E+02  0.67872760956E+02  0.85752394836E+02  0.00000000000E+00 0.  1.
</event>
<event>
 8    1  0.6597859E-009  0.1589521E+03  0.7561462E-02  0.1189885E+00
         -2   -1    0    0    0  501 -0.00000000000E+00  0.00000000000E+00  0.55350493727E+02  0.55350493727E+02  0.00000000000E+00 0.  1.
          2   -1    0    0  501    0  0.00000000000E+00 -0.00000000000E+00 -0.56654525014E+03  0.56654525014E+03  0.00000000000E+00 0. -1.
         25    2    1    2    0    0 -0.20181919269E+02 -0.13594239669E+03 -0.23535398295E+03  0.29988242239E+03  0.12510125853E+03 0.  0.
         23    2    1    2    0    0  0.20181919269E+02  0.13594239669E+03 -0.27584077346E+03  0.32201332148E+03  0.93363814292E+02 0.  0.
          5    1    3    3  502    0  0.43647987699E+02 -0.69677224704E+02 -0.16353743909E+03  0.18309022054E+03  0.41800000000E+01 0. -1.
         -5    1    3    3    0  502 -0.63829906968E+02 -0.66265171986E+02 -0.71816543862E+02  0.11679220186E+03  0.41800000000E+01 0. -1.
        -11    1    4    4    0    0  0.32838730406E+02  0.89277190691E+02 -0.24935465606E+03  0.26688301462E+03  0.00000000000E+00 0. -1.
         11    1    4    4    0    0 -0.12656811137E+02  0.46665205999E+02 -0.26486117404E+02  0.55130306858E+02  0.00000000000E+00 0.  1.
</event>
<event>
 8    1  0.6597859E-009  0.1198091E+03  0.7561462E-02  0.1243412E+00
         -1   -1    0    0    0  501 -0.00000000000E+00  0.00000000000E+00  0.48977490083E+03  0.48977490083E+03  0.00000000000E+00 0.  1.
          1   -1    0    0  501    0  0.00000000000E+00 -0.00000000000E+00 -0.30765738576E+02  0.30765738576E+02  0.00000000000E+00 0. -1.
         25    2    1    2    0    0 -0.40358135914E+02  0.39087118215E+02  0.26630230892E+03  0.29953505362E+03  0.12509095356E+03 0.  0.
         23    2    1    2    0    0  0.40358135914E+02 -0.39087118215E+02  0.19270685333E+03  0.22100558579E+03  0.92471377647E+02 0.  0.
          5    1    3    3  502    0 -0.77251395144E+02 -0.43041101297E+01  0.18092304783E+03  0.19681698365E+03  0.41800000000E+01 0. -1.
         -5    1    3    3    0  502  0.36893259230E+02  0.43391228344E+02  0.85379261094E+02  0.10271806997E+03  0.41800000000E+01 0. -1.
        -11    1    4    4    0    0  0.40355832668E+02  0.20619978288E+02  0.57577191118E+02  0.73272844028E+02  0.00000000000E+00 0. -1.
         11    1    4    4    0    0  0.23032460559E-02 -0.59707096502E+02  0.13512966221E+03  0.14773274176E+03  0.00000000000E+00 0.  1.
</event>
<event>
 8    1  0.6597859E-009  0.1692430E+03  0.7561462E-02  0.1178640E+00
         -2   -1    0    0    0  501 -0.00000000000E+00  0.00000000000E+00  0.94288100601E+03  0.94288100601E+03  0.00000000000E+00 0. -1.
          2   -1    0    0  501    0  0.00000000000E+00 -0.00000000000E+00 -0.33473555292E+02  0.33473555292E+02  0.00000000000E+00 0.  1.
         25    2    1    2    0    0  0.14198420771E+02  0.13814460721E+03  0.41685858769E+03  0.45683913967E+03  0.12508153241E+03 0.  0.
         23    2    1    2    0    0 -0.14198420771E+02 -0.13814460721E+03  0.49254886302E+03  0.51951542163E+03  0.89478283350E+02 0.  0.
          5    1    3    3  502    0 -0.44010525795E+02  0.97849589440E+02  0.31441326227E+03  0.33224184027E+03  0.41800000000E+01 0. -1.
         -5    1    3    3    0  502  0.58208946567E+02  0.40295017769E+02  0.10244532542E+03  0.12459729940E+03  0.41800000000E+01 0. -1.
        -11    1    4    4    0    0  0.31104765593E+02 -0.84133692567E+02  0.21099188835E+03  0.22926744561E+03  0.00000000000E+00 0.  1.
         11    1    4    4    0    0 -0.45303186364E+02 -0.54010914642E+02  0.28155697467E+03  0.29024797602E+03  0.00000000000E+00 0. -1.
</event>
<event>
 8    1  0.6597859E-009  0.1263503E+03  0.7561462E-02  0.1232974E+00
          2   -1    0    0  501    0  0.00000000000E+00  0.00000000000E+00  0.76394146833E+03  0.76394146833E+03  0.00000000000E+00 0.  1.
         -2   -1    0    0    0  501 -0.00000000000E+00 -0.00000000000E+00 -0.24764415705E+02  0.24764415705E+02  0.00000000000E+00 0. -1.
         25    2    1    2    0    0  0.80244119079E+02 -0.17749929992E+02  0.33417570814E+03  0.36616199088E+03  0.12508805295E+03 0.  0.
         23    2    1    2    0    0 -0.80244119079E+02  0.17749929992E+02  0.40500134449E+03  0.42254389316E+03  0.88108308050E+02 0.  0.
          5    1    3    3  502    0  0.10383022209E+03  0.10363867301E+02  0.29193501037E+03  0.31005104006E+03  0.41800000000E+01 0. -1.
         -5    1    3    3    0  502 -0.23586103009E+02 -0.28113797292E+02  0.42240697770E+02  0.56110950816E+02  0.41800000000E+01 0. -1.
        -11    1    4    4    0    0 -0.27742883308E+02  0.44479491082E+02  0.27306647171E+03  0.27805285590E+03  0.00000000000E+00 0.  1.
         11    1    4    4    0    0 -0.52501235772E+02 -0.26729561090E+02  0.13193487277E+03  0.14449103726E+03  0.00000000000E+00 0. -1.
</event>
<event>
 8    1  0.6597859E-009  0.1111283E+03  0.7561462E-02  0.1258495E+00
          2   -1    0    0  501    0  0.00000000000E+00  0.00000000000E+00  0.72548862867E+03  0.72548862867E+03  0.00000000000E+00 0. -1.
         -2   -1    0    0    0  501 -0.00000000000E+00 -0.00000000000E+00 -0.26285294166E+02  0.26285294166E+02  0.00000000000E+00 0.  1.
         25    2    1    2    0    0 -0.24702018331E+02  0.38150546421E+01  0.60382282422E+03  0.61715099196E+03  0.12509436229E+03 0.  0.
         23    2    1    2    0    0  0.24702018331E+02 -0.38150546421E+01  0.95380510283E+02  0.13462293088E+03  0.91657773397E+02 0.  0.
          5    1    3    3  502    0 -0.75804338670E+02 -0.47273525296E+00  0.34303464303E+03  0.35133567989E+03  0.41800000000E+01 0. -1.
         -5    1    3    3    0  502  0.51102320339E+02  0.42877898951E+01  0.26078818119E+03  0.26581531207E+03  0.41800000000E+01 0. -1.
        -11    1    4    4    0    0  0.46382543216E+02  0.29620770547E+02  0.58656251360E+02  0.80431872952E+02  0.00000000000E+00 0. -1.
         11    1    4    4    0    0 -0.21680524886E+02 -0.33435825189E+02  0.36724258923E+02  0.54191057923E+02  0.00000000000E+00 0.  1.
</event>
<event>
 8    1  0.6597859E-009  0.1176453E+03  0.7561462E-02  0.1247033E+00
          1   -1    0    0  501    0  0.00000000000E+00  0.00000000000E+00  0.42708738789E+02  0.42708738789E+02  0.00000000000E+00 0. -1.
         -1   -1    0    0    0  501 -0.00000000000E+00 -0.00000000000E+00 -0.39758236259E+03  0.39758236259E+03  0.00000000000E+00 0.  1.
         25    2    1    2    0    0  0.29496022945E+02 -0.61186598703E+02 -0.15845258708E+03  0.21299856928E+03  0.12508937977E+03 0.  0.
         23    2    1    2    0    0 -0.29496022945E+02  0.61186598703E+02 -0.19642103672E+03  0.22729253210E+03  0.92015521800E+02 0.  0.
          5    1    3    3  502    0  0.46134790321E+02  0.25065603408E+02 -0.43798070291E+02  0.68501435849E+02  0.41800000000E+01 0. -1.
         -5    1    3    3    0  502 -0.16638767377E+02 -0.86252202111E+02 -0.11465451679E+03  0.14449713343E+03  0.41800000000E+01 0. -1.
        -11    1    4    4    0    0 -0.23090199666E+02 -0.85691435041E+01 -0.12443547173E+03  0.12684941532E+03  0.00000000000E+00 0. -1.
         11    1    4    4    0    0 -0.64058232790E+01  0.69755742207E+02 -0.71985564991E+02  0.10044311679E+03  0.00000000000E+00 0.  1.
</event>
<event>
 8    1  0.6597859E-009  0.1008439E+03  0.7561462E-02  0.1278531E+00
          4   -1    0    0  501    0  0.00000000000E+00  0.00000000000E+00  0.15227193905E+03  0.15227193905E+03  0.00000000000E+00 0. -1.
         -4   -1    0    0    0  501 -0.00000000000E+00 -0.00000000000E+00 -0.89255965069E+02  0.89255965069E+02  0.00000000000E+00 0.  1.
         25    2    1    2    0    0 -0.29773602803E+02  0.34247970694E+02  0.20409580873E+02  0.13462195522E+03  0.12508848434E+03 0.  0.
         23    2    1    2    0    0  0.29773602803E+02 -0.34247970694E+02  0.42606393103E+02  0.10690594890E+03  0.86914821839E+02 0.  0.
          5    1    3    3  502    0  0.30577456748E+01  0.71355327836E+02 -0.15606966950E+02  0.73225558630E+02  0.41800000000E+01 0. -1.
         -5    1    3    3    0  502 -0.32831348478E+02 -0.37107357143E+02  0.36016547824E+02  0.61396396589E+02  0.41800000000E+01 0. -1.
        -11    1    4    4    0    0  0.62186524702E+01 -0.51089115946E+02 -0.44456315327E+01  0.51657845933E+02  0.00000000000E+00 0.  1.
         11    1    4    4    0    0  0.23554950333E+02  0.16841145252E+02  0.47052024636E+02  0.55248102962E+02  0.00000000000E+00 0. -1.
</event>
<event>
 8    1  0.6597859E-009  0.1996639E+03  0.7561462E-02  0.1150023E+00
         -2   -1    0    0    0  501 -0.00000000000E+00  0.00000000000E+00  0.28761842892E+02  0.28761842892E+02  0.00000000000E+00 0. -1.
          2   -1    0    0  501    0  0.00000000000E+00 -0.00000000000E+00 -0.15525744946E+04  0.15525744946E+04  0.00000000000E+00 0.  1.
         25    2    1    2    0    0 -0.18924800784E+02 -0.16889524764E+03 -0.99398454131E+03  0.10161382741E+04  0.12509184979E+03 0.  0.
         23    2    1    2    0    0  0.18924800784E+02  0.16889524764E+03 -0.52982811041E+03  0.56519806345E+03  0.99233419667E+02 0.  0.
          5    1    3    3  502    0 -0.42308833928E+02 -0.17598073527E+03 -0.78064685513E+03  0.80136523598E+03  0.41800000000E+01 0. -1.
         -5    1    3    3    0  502  0.23384033144E+02  0.70854876249E+01 -0.21333768617E+03  0.21477303807E+03  0.41800000000E+01 0. -1.
        -11    1    4    4    0    0  0.40369946734E+02  0.23882060980E+02 -0.17746150138E+03  0.18355563165E+03  0.00000000000E+00 0.  1.
         11    1    4    4    0    0 -0.21445145950E+02  0.14501318666E+03 -0.35236660903E+03  0.38164243180E+03  0.00000000000E+00 0. -1.
</event>
<event>
 8    1  0.6597859E-009  0.1726402E+03  0.7561462E-02  0.1175122E+00
         -2   -1    0    0    0  501 -0.00000000000E+00  0.00000000000E+00  0.88165171730E+02  0.88165171730E+02  0.00000000000E+00 0.  1.
          2   -1    0    0  501    0  0.00000000000E+00 -0.00000000000E+00 -0.44442166866E+03  0.44442166866E+03  0.00000000000E+00 0. -1.
         25    2    1    2    0    0  0.74128092383E+01  0.14326479044E+03 -0.75886968093E+02  0.20490548902E+03  0.12509067745E+03 0.  0.
         23    2    1    2    0    0 -0.74128092383E+01 -0.14326479044E+03 -0.28036952884E+03  0.32768135137E+03  0.90488924273E+02 0.  0.
          5    1    3    3  502    0 -0.69570429331E+01 -0.22108784110E+02 -0.15606101032E+02  0.28252815269E+02  0.41800000000E+01 0. -1.
         -5    1    3    3    0  502  0.14369852171E+02  0.16537357455E+03 -0.60280867061E+02  0.17665267375E+03  0.41800000000E+01 0. -1.
        -11    1    4    4    0    0  0.25288010391E+02 -0.39655157429E+02 -0.15402806768E+03  0.16104862810E+03  0.00000000000E+00 0. -1.
         11    1    4    4    0    0 -0.32700819629E+02 -0.10360963301E+03 -0.12634146115E+03  0.16663272326E+03  0.00000000000E+00 0.  1.
</event>
<event>
 8    1  0.6597859E-009  0.1507100E+03  0.7561462E-02  0.1199603E+00
         -1   -1    0    0    0  501 -0.00000000000E+00  0.00000000000E+00  0.10996926074E+03  0.10996926074E+03  0.00000000000E+00 0.  1.
          1   -1    0    0  501    0  0.00000000000E+00 -0.00000000000E+00 -0.22303624951E+03  0.22303624951E+03  0.00000000000E+00 0. -1.
         25    2    1    2    0    0 -0.41736804295E+02 -0.99069570255E+02 -0.28282000213E+02  0.16734309909E+03  0.12508837153E+03 0.  0.
         23    2    1    2    0    0  0.41736804295E+02  0.99069570255E+02 -0.84784988555E+02  0.16566241116E+03  0.93267355518E+02 0.  0.
          5    1    3    3  502    0 -0.72791890127E+02 -0.10512134378E+03 -0.38889160482E+02  0.13371236065E+03  0.41800000000E+01 0.  1.
         -5    1    3    3    0  502  0.31055085833E+02  0.60517735296E+01  0.10607160269E+02  0.33630738438E+02  0.41800000000E+01 0.  1.
        -11    1    4    4    0    0  0.46167268238E+02  0.39335685094E+01 -0.35868538564E+02  0.58595577278E+02  0.00000000000E+00 0.  1.
         11    1    4    4    0    0 -0.44304639429E+01  0.95136001746E+02 -0.48916449991E+02  0.10706683389E+03  0.00000000000E+00 0. -1.
</event>
<event>
 8    1  0.6597859E-009  0.1444319E+03  0.7561462E-02  0.1207487E+00
         -1   -1    0    0    0  501 -0.00000000000E+00  0.00000000000E+00  0.47809830986E+03  0.47809830986E+03  0.00000000000E+00 0.  1.
          1   -1    0    0  501    0  0.00000000000E+00 -0.00000000000E+00 -0.53339913797E+02  0.53339913797E+02  0.00000000000E+00 0. -1.
         25    2    1    2    0    0  0.95859151117E+02 -0.51113248420E+02  0.30083329066E+03  0.34344055482E+03  0.12509678217E+03 0.  0.
         23    2    1    2    0    0 -0.95859151117E+02  0.51113248420E+02  0.12392510540E+03  0.18799766884E+03  0.90466296053E+02 0.  0.
          5    1    3    3  502    0  0.13951333346E+02 -0.68961817862E+02  0.20106905713E+03  0.21306480273E+03  0.41800000000E+01 0.  1.
         -5    1    3    3    0  502  0.81907817771E+02  0.17848569442E+02  0.99764233530E+02  0.13037575210E+03  0.41800000000E+01 0.  1.
        -11    1    4    4    0    0 -0.26620159702E+02  0.59031959469E+02  0.30866753890E+02  0.71736752345E+02  0.00000000000E+00 0. -1.
         11    1    4    4    0    0 -0.69238991415E+02 -0.79187110492E+01  0.93058351515E+02  0.11626091649E+03  0.00000000000E+00 0.  1.
</event>
<event>
 8    1  0.6597859E-009  0.8376769E+02  0.7561462E-02  0.1318687E+00
         -2   -1    0    0    0  501 -0.00000000000E+00  0.00000000000E+00  0.20259148566E+02  0.20259148566E+02  0.00000000000E+00 0. -1.
          2   -1    0    0  501    0  0.00000000000E+00 -0.00000000000E+00 -0.99127596495E+03  0.99127596495E+03  0.00000000000E+00 0.  1.
         25    2    1    2    0    0  0.54833767284E+01  0.48987905621E+02 -0.82134082824E+03  0.83227308102E+03  0.12509133835E+03 0.  0.
         23    2    1    2    0    0 -0.54833767284E+01 -0.48987905621E+02 -0.14967598814E+03  0.17926203250E+03  0.85452282309E+02 0.  0.
          5    1    3    3  502    0  0.19651067938E+02  0.52739977423E+02 -0.81288916826E+03  0.81484596211E+03  0.41800000000E+01 0. -1.
         -5    1    3    3    0  502 -0.14167691209E+02 -0.37520718020E+01 -0.84516599833E+01  0.17427118909E+02  0.41800000000E+01 0. -1.
        -11    1    4    4    0    0  0.32110097940E+02 -0.48615381229E+02 -0.11077947972E+03  0.12516631659E+03  0.00000000000E+00 0.  1.
         11    1    4    4    0    0 -0.37593474669E+02 -0.37252439189E+00 -0.38896508414E+02  0.54095715901E+02  0.00000000000E+00 0. -1.
</event>
<event>
 8    1  0.6597859E-009  0.2063737E+03  0.7561462E-02  0.1144470E+00
         -1   -1    0    0    0  501 -0.00000000000E+00  0.00000000000E+00  0.24040813699E+02  0.24040813699E+02  0.00000000000E+00 0.  1.
          1   -1    0    0  501    0  0.00000000000E+00 -0.00000000000E+00 -0.20008455341E+04  0.20008455341E+04  0.00000000000E+00 0. -1.
         25    2    1    2    0    0  0.17674511032E+03  0.66843222272E+02 -0.93327172234E+03  0.96039076202E+03  0.12508979838E+03 0.  0.
         23    2    1    2    0    0 -0.17674511032E+03 -0.66843222272E+02 -0.10435329980E+04  0.10644955858E+04  0.92102571787E+02 0.  0.
          5    1    3    3  502    0  0.41219880109E+02  0.53630353748E+02 -0.14039941193E+03  0.15589984166E+03  0.41800000000E+01 0. -1.
         -5    1    3    3    0  502  0.13552523021E+03  0.13212868524E+02 -0.79287231041E+03  0.80449092035E+03  0.41800000000E+01 0. -1.
        -11    1    4    4    0    0 -0.96191038104E+02  0.10885198880E+02 -0.42183036398E+03  0.43279563231E+03  0.00000000000E+00 0.  1.
         11    1    4    4    0    0 -0.80554072211E+02 -0.77728421152E+02 -0.62170263404E+03  0.63169995344E+03  0.00000000000E+00 0. -1.
</event>
<event>
 8    1  0.6597859E-009  0.1111213E+03  0.7561462E-02  0.1258507E+00
         -1   -1    0    0    0  501 -0.00000000000E+00  0.00000000000E+00  0.13933722560E+03  0.13933722560E+03  0.00000000000E+00 0.  1.
          1   -1    0    0  501    0  0.00000000000E+00 -0.00000000000E+00 -0.14645800602E+03  0.14645800602E+03  0.00000000000E+00 0. -1.
         25    2    1    2    0    0 -0.56047486945E+02 -0.59372807074E+02 -0.51389628821E+02  0.15796757545E+03  0.12508561040E+03 0.  0.
         23    2    1    2    0    0  0.56047486945E+02  0.59372807074E+02  0.44268848409E+02  0.12782765617E+03  0.87827830046E+02 0.  0.
          5    1    3    3  502    0  0.11829888899E+02  0.21851406521E+02 -0.45326536568E+02  0.51859401805E+02  0.41800000000E+01 0.  1.
         -5    1    3    3    0  502 -0.67877375845E+02 -0.81224213595E+02 -0.60630922522E+01  0.10610817364E+03  0.41800000000E+01 0.  1.
        -11    1    4    4    0    0  0.31953404258E+02  0.59457633457E+01  0.59032159722E+02  0.67388189075E+02  0.00000000000E+00 0.  1.
         11    1    4    4    0    0  0.24094082687E+02  0.53427043729E+02 -0.14763311313E+02  0.60439467098E+02  0.00000000000E+00 0. -1.
</event>
<event>
 8    1  0.6597859E-009  0.1462813E+03  0.7561462E-02  0.1205118E+00
         -2   -1    0    0    0  501 -0.00000000000E+00  0.00000000000E+00  0.32454730800E+02  0.32454730800E+02  0.00000000000E+00 0.  1.
          2   -1    0    0  501    0  0.00000000000E+00 -0.00000000000E+00 -0.68360671738E+03  0.68360671738E+03  0.00000000000E+00 0. -1.
         25    2    1    2    0    0 -0.98003578326E+02 -0.59926481325E+01 -0.41933921852E+03  0.44846946151E+03  0.12505544580E+03 0.  0.
         23    2    1    2    0    0  0.98003578326E+02  0.59926481325E+01 -0.23181276806E+03  0.26759198667E+03  0.90706662912E+02 0.  0.
          5    1    3    3  502    0  0.28516056947E+02 -0.14211122534E+02 -0.86334443307E+02  0.92120736040E+02  0.41800000000E+01 0.  1.
         -5    1    3    3    0  502 -0.12651963527E+03  0.82184744018E+01 -0.33300477521E+03  0.35634872547E+03  0.41800000000E+01 0.  1.
        -11    1    4    4    0    0  0.11537901522E+03  0.60044707747E+00 -0.20364822935E+03  0.23406255363E+03  0.00000000000E+00 0. -1.
         11    1    4    4    0    0 -0.17375436898E+02  0.53922010550E+01 -0.28164538709E+02  0.33529433044E+02  0.00000000000E+00 0.  1.
</event>
<event>
 8    1  0.6597859E-009  0.8652338E+02  0.7561462E-02  0.1311496E+00
          1   -1    0    0  501    0  0.00000000000E+00  0.00000000000E+00  0.59782656648E+03  0.59782656648E+03  0.00000000000E+00 0. -1.
         -1   -1    0    0    0  501 -0.00000000000E+00 -0.00000000000E+00 -0.20892973995E+02  0.20892973995E+02  0.00000000000E+00 0.  1.
         25    2    1    2    0    0  0.39092092021E+01 -0.28681933905E+01  0.25767717085E+03  0.28647457152E+03  0.12508655922E+03 0.  0.
         23    2    1    2    0    0 -0.39092092021E+01  0.28681933905E+01  0.31925642163E+03  0.33224496895E+03  0.91861570817E+02 0.  0.
          5    1    3    3  502    0  0.11278702527E+01 -0.42167022213E+02  0.23890066542E+03  0.24263208813E+03  0.41800000000E+01 0.  1.
         -5    1    3    3    0  502  0.27813389494E+01  0.39298828823E+02  0.18776505433E+02  0.43842483386E+02  0.41800000000E+01 0.  1.
        -11    1    4    4    0    0 -0.33143770485E+02  0.34586801728E+02  0.14403920969E+03  0.15179608132E+03  0.00000000000E+00 0.  1.
         11    1    4    4    0    0  0.29234561283E+02 -0.31718608338E+02  0.17521721195E+03  0.18044888764E+03  0.00000000000E+00 0. -1.
</event>
<event>
 8    1  0.6597859E-009  0.6616014E+02  0.7561462E-02  0.1373660E+00
         -2   -1    0    0    0  501 -0.00000000000E+00  0.00000000000E+00  0.34603032634E+02  0.34603032634E+02  0.00000000000E+00 0.  1.
          2   -1    0    0  501    0  0.00000000000E+00 -0.00000000000E+00 -0.56541250200E+03  0.56541250200E+03  0.00000000000E+00 0. -1.
         25    2    1    2    0    0 -0.44486219617E+02 -0.99325680106E+01 -0.44519521584E+03  0.46467602116E+03  0.12508934722E+03 0.  0.
         23    2    1    2    0    0  0.44486219617E+02  0.99325680106E+01 -0.85614253525E+02  0.13533951348E+03  0.94389108789E+02 0.  0.
          5    1    3    3  502    0  0.22908240814E+01 -0.51645701692E+01  0.70612789227E+01  0.99626663113E+01  0.41800000000E+01 0.  1.
         -5    1    3    3    0  502 -0.46777043699E+02 -0.47679978414E+01 -0.45225649476E+03  0.45471335485E+03  0.41800000000E+01 0.  1.
        -11    1    4    4    0    0  0.55691863159E+02  0.23537762543E+02 -0.14639225228E+02  0.62208655370E+02  0.00000000000E+00 0.  1.
         11    1    4    4    0    0 -0.11205643542E+02 -0.13605194533E+02 -0.70975028297E+02  0.73130858105E+02  0.00000000000E+00 0. -1.
</event>
<event>
 8    1  0.6597859E-009  0.1584121E+03  0.7561462E-02  0.1190501E+00
         -2   -1    0    0    0  501 -0.00000000000E+00  0.00000000000E+00  0.13976305372E+03  0.13976305372E+03  0.00000000000E+00 0.  1.
          2   -1    0    0  501    0  0.00000000000E+00 -0.00000000000E+00 -0.26371138953E+03  0.26371138953E+03  0.00000000000E+00 0. -1.
         25    2    1    2    0    0 -0.46841809544E+02  0.11554988742E+03  0.36959756235E+02  0.18044232635E+03  0.12508987951E+03 0.  0.
         23    2    1    2    0    0  0.46841809544E+02 -0.11554988742E+03 -0.16090809204E+03  0.22303211689E+03  0.91137146520E+02 0.  0.
          5    1    3    3  502    0 -0.83838056038E+02  0.51687317035E+02  0.18291285573E+01  0.98596229612E+02  0.41800000000E+01 0.  1.
         -5    1    3    3    0  502  0.36996246493E+02  0.63862570385E+02  0.35130627678E+02  0.81846096741E+02  0.41800000000E+01 0.  1.
        -11    1    4    4    0    0 -0.18333947722E+02 -0.43283416456E+02 -0.93498814352E+02  0.10464996925E+03  0.00000000000E+00 0. -1.
         11    1    4    4    0    0  0.65175757267E+02 -0.72266470965E+02 -0.67409277693E+02  0.11838214764E+03  0.00000000000E+00 0.  1.
</event>
<event>
 8    1  0.6597859E-009  0.3524612E+03  0.7561462E-02  0.1061609E+00
         -1   -1    0    0    0  501 -0.00000000000E+00  0.00000000000E+00  0.25250611567E+03  0.25250611567E+03  0.00000000000E+00 0.  1.
          1   -1    0    0  501    0  0.00000000000E+00 -0.00000000000E+00 -0.62249907311E+03  0.62249907311E+03  0.00000000000E+00 0. -1.
         25    2    1    2    0    0  0.34249858977E+03 -0.22928504139E+02 -0.36974780561E+03  0.51980013889E+03  0.12509094426E+03 0.  0.
         23    2    1    2    0    0 -0.34249858977E+03  0.22928504139E+02 -0.24515183211E+00  0.35520504990E+03  0.91321230152E+02 0.  0.
          5    1    3    3  502    0  0.12919035416E+03 -0.41461500544E+02 -0.21991415418E+03  0.25843550694E+03  0.41800000000E+01 0. -1.
         -5    1    3    3    0  502  0.21330823561E+03  0.18532996406E+02 -0.14983365143E+03  0.26136463195E+03  0.41800000000E+01 0. -1.
        -11    1    4    4    0    0 -0.25305713799E+02  0.28066543718E+02 -0.35174234363E+01  0.37953686182E+02  0.00000000000E+00 0.  1.
         11    1    4    4    0    0 -0.31719287597E+03 -0.51380395799E+01  0.32722716042E+01  0.31725136372E+03  0.00000000000E+00 0. -1.
</event>
<event>
 8    1  0.6597859E-009  0.1895645E+03  0.7561462E-02  0.1158855E+00
          1   -1    0    0  501    0  0.00000000000E+00  0.00000000000E+00  0.16532035499E+03  0.16532035499E+03  0.00000000000E+00 0. -1.
         -1   -1    0    0    0  501 -0.00000000000E+00 -0.00000000000E+00 -0.28648635345E+03  0.28648635345E+03  0.00000000000E+00 0.  1.
         25    2    1    2    0    0 -0.10583199640E+03 -0.15133216388E+03 -0.24071477726E+02  0.22433977542E+03  0.12508822291E+03 0.  0.
         23    2    1    2    0    0  0.10583199640E+03  0.15133216388E+03 -0.97094520733E+02  0.22746693302E+03  0.90620220552E+02 0.  0.
          5    1    3    3  502    0 -0.69809505203E+02 -0.98342516949E+02 -0.75263232115E+02  0.14222040699E+03  0.41800000000E+01 0. -1.
         -5    1    3    3    0  502 -0.36022491199E+02 -0.52989646931E+02  0.51191754389E+02  0.82119368431E+02  0.41800000000E+01 0. -1.
        -11    1    4    4    0    0  0.33782897984E+02  0.10061578643E+03 -0.89849776965E+02  0.13906042965E+03  0.00000000000E+00 0. -1.
         11    1    4    4    0    0  0.72049098419E+02  0.50716377454E+02 -0.72447437675E+01  0.88406503365E+02  0.00000000000E+00 0.  1.
</event>
<event>
 8    1  0.6597859E-009  0.1574730E+03  0.7561462E-02  0.1191580E+00
         -2   -1    0    0    0  501 -0.00000000000E+00  0.00000000000E+00  0.61816863561E+02  0.61816863561E+02  0.00000000000E+00 0. -1.
          2   -1    0    0  501    0  0.00000000000E+00 -0.00000000000E+00 -0.54183890672E+03  0.54183890672E+03  0.00000000000E+00 0.  1.
         25    2    1    2    0    0  0.13650869003E+03  0.12423697709E+02 -0.16577475407E+03  0.24883310144E+03  0.12509065741E+03 0.  0.
         23    2    1    2    0    0 -0.13650869003E+03 -0.12423697709E+02 -0.31424728909E+03  0.35482266884E+03  0.91426456243E+02 0.  0.
          5    1    3    3  502    0  0.53684006108E+02  0.61106069208E+02 -0.11253539715E+03  0.13891584581E+03  0.41800000000E+01 0. -1.
         -5    1    3    3    0  502  0.82824683920E+02 -0.48682371499E+02 -0.53239356922E+02  0.10991725564E+03  0.41800000000E+01 0. -1.
        -11    1    4    4    0    0 -0.96730987125E+02 -0.12680292298E+02 -0.29484215613E+03  0.31056331192E+03  0.00000000000E+00 0.  1.
         11    1    4    4    0    0 -0.39777702903E+02  0.25659458898E+00 -0.19405132964E+02  0.44259356913E+02  0.00000000000E+00 0. -1.
</event>
<event>
 8    1  0.6597859E-009  0.8859896E+02  0.7561462E-02  0.1306280E+00
         -1   -1    0    0    0  501 -0.00000000000E+00  0.00000000000E+00  0.33812659234E+03  0.33812659234E+03  0.00000000000E+00 0.  1.
          1   -1    0    0  501    0  0.00000000000E+00 -0.00000000000E+00 -0.39259426504E+02  0.39259426504E+02  0.00000000000E+00 0. -1.
         25    2    1    2    0    0  0.19391026992E+02 -0.23185003719E+02  0.12427226711E+03  0.17890074393E+03  0.12509325914E+03 0.  0.
         23    2    1    2    0    0 -0.19391026992E+02  0.23185003719E+02  0.17459489874E+03  0.19848527492E+03  0.89439752733E+02 0.  0.
          5    1    3    3  502    0 -0.34939800360E+02  0.22582111385E+02  0.79842138969E+01  0.42567140793E+02  0.41800000000E+01 0. -1.
         -5    1    3    3    0  502  0.54330827352E+02 -0.45767115104E+02  0.11628805321E+03  0.13633360314E+03  0.41800000000E+01 0. -1.
        -11    1    4    4    0    0  0.12686360824E+02  0.28973696892E+02  0.13953876890E+02  0.34570645681E+02  0.00000000000E+00 0. -1.
         11    1    4    4    0    0 -0.32077387816E+02 -0.57886931729E+01  0.16064102185E+03  0.16391462924E+03  0.00000000000E+00 0.  1.
</event>
<event>
 8    1  0.6597859E-009  0.1082147E+03  0.7561462E-02  0.1263912E+00
          2   -1    0    0  501    0  0.00000000000E+00  0.00000000000E+00  0.11205863097E+03  0.11205863097E+03  0.00000000000E+00 0. -1.
         -2   -1    0    0    0  501 -0.00000000000E+00 -0.00000000000E+00 -0.17420550497E+03  0.17420550497E+03  0.00000000000E+00 0.  1.
         25    2    1    2    0    0 -0.62771387343E+02  0.24038605013E+02 -0.91775883332E+02  0.16908423410E+03  0.12509421993E+03 0.  0.
         23    2    1    2    0    0  0.62771387343E+02 -0.24038605013E+02  0.29629009330E+02  0.11717990184E+03  0.91297040487E+02 0.  0.
          5    1    3    3  502    0 -0.11437826677E+01  0.57362243533E+02 -0.79033334678E+02  0.97752113084E+02  0.41800000000E+01 0. -1.
         -5    1    3    3    0  502 -0.61627604676E+02 -0.33323638520E+02 -0.12742548654E+02  0.71332121015E+02  0.41800000000E+01 0. -1.
        -11    1    4    4    0    0  0.74064405583E+02 -0.19897398678E+02 -0.85361251365E+01  0.77164163191E+02  0.00000000000E+00 0.  1.
         11    1    4    4    0    0 -0.11293018240E+02 -0.41412063350E+01  0.38165134466E+02  0.40015738650E+02  0.00000000000E+00 0. -1.
</event>
<event>
 8    1  0.6597859E-009  0.1268293E+03  0.7561462E-02  0.1232238E+00
         -2   -1    0    0    0  501 -0.00000000000E+00  0.00000000000E+00  0.12937576035E+03  0.12937576035E+03  0.00000000000E+00 0.  1.
          2   -1    0    0  501    0  0.00000000000E+00 -0.00000000000E+00 -0.15504971814E+03  0.15504971814E+03  0.00000000000E+00 0. -1.
         25    2    1    2    0    0 -0.86384177185E+02 -0.22266402590E+02  0.10361626790E+01  0.15364603429E+03  0.12509201200E+03 0.  0.
         23    2    1    2    0    0  0.86384177185E+02  0.22266402590E+02 -0.26710120462E+02  0.13077944420E+03  0.91824908052E+02 0.  0.
          5    1    3    3  502    0 -0.96886427575E+02 -0.54698632309E+02 -0.20353938816E+02  0.11318425443E+03  0.41800000000E+01 0.  1.
         -5    1    3    3    0  502  0.10502250389E+02  0.32432229719E+02  0.21390101494E+02  0.40461779863E+02  0.41800000000E+01 0.  1.
        -11    1    4    4    0    0  0.65372834293E+02  0.43165942468E+02  0.14851753432E+02  0.79733811101E+02  0.00000000000E+00 0.  1.
         11    1    4    4    0    0  0.21011342892E+02 -0.20899539878E+02 -0.41561873894E+02  0.51045633102E+02  0.00000000000E+00 0. -1.
</event>
<event>
 8    1  0.6597859E-009  0.8682710E+02  0.7561462E-02  0.1310722E+00
          1   -1    0    0  501    0  0.00000000000E+00  0.00000000000E+00  0.30438732715E+03  0.30438732715E+03  0.00000000000E+00 0. -1.
         -1   -1    0    0    0  501 -0.00000000000E+00 -0.00000000000E+00 -0.51967286660E+02  0.51967286660E+02  0.00000000000E+00 0.  1.
         25    2    1    2    0    0 -0.10483379665E+02  0.34959273510E+01  0.23236892243E+03  0.26412836152E+03  0.12508538080E+03 0.  0.
         23    2    1    2    0    0  0.10483379665E+02 -0.34959273510E+01  0.20051118059E+02  0.92226252293E+02  0.89339305568E+02 0.  0.
          5    1    3    3  502    0  0.33195197092E+02  0.34491499916E+02  0.34653800634E+02  0.59244771708E+02  0.41800000000E+01 0.  1.
         -5    1    3    3    0  502 -0.43678576756E+02 -0.30995572565E+02  0.19771512180E+03  0.20488358981E+03  0.41800000000E+01 0.  1.
        -11    1    4    4    0    0  0.52830454256E+01  0.33806459796E+02  0.37459421074E+02  0.50734559426E+02  0.00000000000E+00 0. -1.
         11    1    4    4    0    0  0.52003342390E+01 -0.37302387147E+02 -0.17408303015E+02  0.41491692867E+02  0.00000000000E+00 0.  1.
</event>
<event>
 8    1  0.6597859E-009  0.1435402E+03  0.7561462E-02  0.1208643E+00
          2   -1    0    0  501    0  0.00000000000E+00  0.00000000000E+00  0.29386280049E+03  0.29386280049E+03  0.00000000000E+00 0.  1.
         -2   -1    0    0    0  501 -0.00000000000E+00 -0.00000000000E+00 -0.80890206153E+02  0.80890206153E+02  0.00000000000E+00 0. -1.
         25    2    1    2    0    0 -0.93682861209E+02  0.30676175605E+02  0.56939586969E+02  0.16913856098E+03  0.12509288554E+03 0.  0.
         23    2    1    2    0    0  0.93682861209E+02 -0.30676175605E+02  0.15603300737E+03  0.20561444566E+03  0.90628332447E+02 0.  0.
          5    1    3    3  502    0  0.13490959374E+02 -0.29702767750E+02  0.26783356315E+02  0.42415574644E+02  0.41800000000E+01 0. -1.
         -5    1    3    3    0  502 -0.10717382058E+03  0.60378943355E+02  0.30156230653E+02  0.12672298634E+03  0.41800000000E+01 0. -1.
        -11    1    4    4    0    0  0.31824717699E+02  0.30520263643E+02  0.33728037666E+02  0.55514679809E+02  0.00000000000E+00 0. -1.
         11    1    4    4    0    0  0.61858143510E+02 -0.61196439248E+02  0.12230496970E+03  0.15009976585E+03  0.00000000000E+00 0.  1.
</event>
<event>
 8    1  0.6597859E-009  0.8146674E+02  0.7561462E-02  0.1324940E+00
          2   -1    0    0  501    0  0.00000000000E+00  0.00000000000E+00  0.38185905593E+03  0.38185905593E+03  0.00000000000E+00 0. -1.
         -2   -1    0    0    0  501 -0.00000000000E+00 -0.00000000000E+00 -0.37895523924E+02  0.37895523924E+02  0.00000000000E+00 0.  1.
         25    2    1    2    0    0 -0.30430947546E+02  0.89228753360E+01  0.26121042767E+03  0.29134883618E+03  0.12509035354E+03 0.  0.
         23    2    1    2    0    0  0.30430947546E+02 -0.89228753360E+01  0.82753104333E+02  0.12840574367E+03  0.92920925832E+02 0.  0.
          5    1    3    3  502    0 -0.29054924309E+02 -0.54200742229E+02  0.16556371220E+03  0.17666557186E+03  0.41800000000E+01 0. -1.
         -5    1    3    3    0  502 -0.13760232368E+01  0.63123617565E+02  0.95646715473E+02  0.11468326432E+03  0.41800000000E+01 0. -1.
        -11    1    4    4    0    0  0.15902792715E+02  0.61798937203E+01  0.99888923212E+02  0.10133551639E+03  0.00000000000E+00 0. -1.
         11    1    4    4    0    0  0.14528154831E+02 -0.15102769056E+02 -0.17135818879E+02  0.27070227273E+02  0.00000000000E+00 0.  1.
</event>
<event>
 8    1  0.6597859E-009  0.1354932E+03  0.7561462E-02  0.1219525E+00
         -1   -1    0    0    0  501 -0.00000000000E+00  0.00000000000E+00  0.69881433351E+02  0.69881433351E+02  0.00000000000E+00 0.  1.
          1   -1    0    0  501    0  0.00000000000E+00 -0.00000000000E+00 -0.35421382715E+03  0.35421382715E+03  0.00000000000E+00 0. -1.
         25    2    1    2    0    0  0.10551628006E+03 -0.88336953598E+01 -0.20458202207E+03  0.26213228406E+03  0.12509121096E+03 0.  0.
         23    2    1    2    0    0 -0.10551628006E+03  0.88336953598E+01 -0.79750371727E+02  0.16196297644E+03  0.93060004381E+02 0.  0.
          5    1    3    3  502    0  0.40301043051E+02  0.45992531633E+02 -0.30920202717E+02  0.68651426592E+02  0.41800000000E+01 0.  1.
         -5    1    3    3    0  502  0.65215237011E+02 -0.54826226993E+02 -0.17366181936E+03  0.19348085747E+03  0.41800000000E+01 0.  1.
        -11    1    4    4    0    0 -0.42409921866E+02 -0.28473134771E+02  0.32973397380E+01  0.51187823999E+02  0.00000000000E+00 0.  1.
         11    1    4    4    0    0 -0.63106358196E+02  0.37306830131E+02 -0.83047711465E+02  0.11077515244E+03  0.00000000000E+00 0. -1.
</event>
<event>
 8    1  0.6597859E-009  0.1193987E+03  0.7561462E-02  0.1244092E+00
         -2   -1    0    0    0  501 -0.00000000000E+00  0.00000000000E+00  0.52479652826E+02  0.52479652826E+02  0.00000000000E+00 0. -1.
          2   -1    0    0  501    0  0.00000000000E+00 -0.00000000000E+00 -0.55970196138E+03  0.55970196138E+03  0.00000000000E+00 0.  1.
         25    2    1    2    0    0  0.60182542816E+02  0.67197754259E+02 -0.44265685464E+03  0.46875273550E+03  0.12508620803E+03 0.  0.
         23    2    1    2    0    0 -0.60182542816E+02 -0.67197754259E+02 -0.64565453912E+02  0.14342887871E+03  0.90915723452E+02 0.  0.
          5    1    3    3  502    0  0.66722166499E+02  0.96965939638E+02 -0.28957944343E+03  0.31261472679E+03  0.41800000000E+01 0.  1.
         -5    1    3    3    0  502 -0.65396236831E+01 -0.29768185379E+02 -0.15307741121E+03  0.15613800870E+03  0.41800000000E+01 0.  1.
        -11    1    4    4    0    0 -0.91023598376E+01 -0.11799329457E+02 -0.66401189529E+02  0.68052884591E+02  0.00000000000E+00 0.  1.
         11    1    4    4    0    0 -0.51080182978E+02 -0.55398424802E+02  0.18357356169E+01  0.75375994116E+02  0.00000000000E+00 0. -1.
</event>
<event>
 8    1  0.6597859E-009  0.9144661E+02  0.7561462E-02  0.1299386E+00
         -3   -1    0    0    0  501 -0.00000000000E+00  0.00000000000E+00  0.74584687311E+02  0.74584687311E+02  0.00000000000E+00 0.  1.
          3   -1    0    0  501    0  0.00000000000E+00 -0.00000000000E+00 -0.17056298711E+03  0.17056298711E+03  0.00000000000E+00 0. -1.
         25    2    1    2    0    0 -0.18854954378E+02 -0.21678655549E+02 -0.77944736217E+02  0.15016107795E+03  0.12508994371E+03 0.  0.
         23    2    1    2    0    0  0.18854954378E+02  0.21678655549E+02 -0.18033563579E+02  0.94986596465E+02  0.88722999733E+02 0.  0.
          5    1    3    3  502    0 -0.57492514722E+02 -0.36196066188E+02 -0.75933308426E+01  0.68488506553E+02  0.41800000000E+01 0. -1.
         -5    1    3    3    0  502  0.38637560344E+02  0.14517410640E+02 -0.70351405375E+02  0.81672571401E+02  0.41800000000E+01 0. -1.
        -11    1    4    4    0    0  0.59154350472E+01 -0.24592839026E+02 -0.35736454564E+02  0.43782351330E+02  0.00000000000E+00 0. -1.
         11    1    4    4    0    0  0.12939519331E+02  0.46271494574E+02  0.17702890985E+02  0.51204245135E+02  0.00000000000E+00 0.  1.
</event>
<event>
 8    1  0.6597859E-009  0.6706592E+02  0.7561462E-02  0.1370365E+00
         -1   -1    0    0    0  501 -0.00000000000E+00  0.00000000000E+00  0.17704694961E+03  0.17704694961E+03  0.00000000000E+00 0.  1.
          1   -1    0    0  501    0  0.00000000000E+00 -0.00000000000E+00 -0.89002450378E+02  0.89002450378E+02  0.00000000000E+00 0. -1.
         25    2    1    2    0    0 -0.30750348864E+00  0.29160707194E+02  0.10426351893E+03  0.16543365193E+03  0.12508785077E+03 0.  0.
         23    2    1    2    0    0  0.30750348864E+00 -0.29160707194E+02 -0.16219019696E+02  0.10061574806E+03  0.94921181803E+02 0.  0.
          5    1    3    3  502    0  0.26345702731E+00 -0.29181590360E+01 -0.28413546766E+02  0.28868444738E+02  0.41800000000E+01 0. -1.
         -5    1    3    3    0  502 -0.57096051595E+00  0.32078866230E+02  0.13267706570E+03  0.13656520720E+03  0.41800000000E+01 0. -1.
        -11    1    4    4    0    0 -0.43457000521E+02 -0.30157929699E+02 -0.20282948620E+02  0.56651651544E+02  0.00000000000E+00 0.  1.
         11    1    4    4    0    0  0.43764504010E+02  0.99722250478E+00  0.40639289243E+01  0.43964096513E+02  0.00000000000E+00 0. -1.
</event>
<event>
 8    1  0.6597859E-009  0.1042569E+03  0.7561462E-02  0.1271591E+00
         -1   -1    0    0    0  501 -0.00000000000E+00  0.00000000000E+00  0.36268436307E+03  0.36268436307E+03  0.00000000000E+00 0.  1.
          1   -1    0    0  501    0  0.00000000000E+00 -0.00000000000E+00 -0.38854916625E+02  0.38854916625E+02  0.00000000000E+00 0. -1.
         25    2    1    2    0    0 -0.46924255043E+02 -0.61768849041E+00  0.20771561143E+03  0.24697369680E+03  0.12509182399E+03 0.  0.
         23    2    1    2    0    0  0.46924255043E+02  0.61768849041E+00  0.11611383502E+03  0.15456558290E+03  0.90586033600E+02 0.  0.
          5    1    3    3  502    0 -0.83460801966E+02 -0.23412131663E+02  0.16354019030E+03  0.18513967597E+03  0.41800000000E+01 0.  1.
         -5    1    3    3    0  502  0.36536546923E+02  0.22794443172E+02  0.44175421130E+02  0.61834020835E+02  0.41800000000E+01 0.  1.
        -11    1    4    4    0    0  0.25058624049E+02  0.31733187081E+02  0.10848857250E+03  0.11577866887E+03  0.00000000000E+00 0.  1.
         11    1    4    4    0    0  0.21865630993E+02 -0.31115498591E+02  0.76252625145E+01  0.38786914026E+02  0.00000000000E+00 0. -1.
</event>
<event>
 8    1  0.6597859E-009  0.2543219E+03  0.7561462E-02  0.1110604E+00
          2   -1    0    0  501    0  0.00000000000E+00  0.00000000000E+00  0.15588829286E+04  0.15588829286E+04  0.00000000000E+00 0. -1.
         -2   -1    0    0    0  501 -0.00000000000E+00 -0.00000000000E+00 -0.45444710104E+02  0.45444710104E+02  0.00000000000E+00 0.  1.
         25    2    1    2    0    0  0.17294493602E+03  0.16182814620E+03  0.93264926854E+03  0.97035107800E+03  0.12509299207E+03 0.  0.
         23    2    1    2    0    0 -0.17294493602E+03 -0.16182814620E+03  0.58078894999E+03  0.63397656074E+03  0.92261450997E+02 0.  0.
          5    1    3    3  502    0  0.16860907083E+03  0.83811133757E+02  0.70008472501E+03  0.72497546131E+03  0.41800000000E+01 0.  1.
         -5    1    3    3    0  502  0.43358651883E+01  0.78017012446E+02  0.23256454353E+03  0.24537561669E+03  0.41800000000E+01 0.  1.
        -11    1    4    4    0    0 -0.88276084809E+02 -0.48903920862E+02  0.34216129492E+03  0.35673325099E+03  0.00000000000E+00 0. -1.
         11    1    4    4    0    0 -0.84668851211E+02 -0.11292422534E+03  0.23862765507E+03  0.27724330975E+03  0.00000000000E+00 0.  1.
</event>
<event>
 8    1  0.6597859E-009  0.1715002E+03  0.7561462E-02  0.1176292E+00
         -2   -1    0    0    0  501 -0.00000000000E+00  0.00000000000E+00  0.15767894723E+03  0.15767894723E+03  0.00000000000E+00 0. -1.
          2   -1    0    0  501    0  0.00000000000E+00 -0.00000000000E+00 -0.22697154242E+03  0.22697154242E+03  0.00000000000E+00 0.  1.
         25    2    1    2    0    0  0.77581803875E+02 -0.11880037108E+03  0.18816239707E+02  0.19008884131E+03  0.12508897734E+03 0.  0.
         23    2    1    2    0    0 -0.77581803875E+02  0.11880037108E+03 -0.88108834901E+02  0.19456164833E+03  0.99792804113E+02 0.  0.
          5    1    3    3  502    0 -0.28530094766E+02 -0.21463641453E+02 -0.19678138346E+02  0.40979943150E+02  0.41800000000E+01 0. -1.
         -5    1    3    3    0  502  0.10611189864E+03 -0.97336729632E+02  0.38494378054E+02  0.14910889816E+03  0.41800000000E+01 0. -1.
        -11    1    4    4    0    0  0.74788692826E+01  0.57910868953E+02 -0.94640225425E+00  0.58399468370E+02  0.00000000000E+00 0. -1.
         11    1    4    4    0    0 -0.85060673158E+02  0.60889502131E+02 -0.87162432646E+02  0.13616217996E+03  0.00000000000E+00 0.  1.
</event>
<event>
 8    1  0.6597859E-009  0.1285466E+03  0.7561462E-02  0.1229628E+00
         -2   -1    0    0    0  501 -0.00000000000E+00  0.00000000000E+00  0.74858931321E+02  0.74858931321E+02  0.00000000000E+00 0. -1.
          2   -1    0    0  501    0  0.00000000000E+00 -0.00000000000E+00 -0.23005884169E+03  0.23005884169E+03  0.00000000000E+00 0.  1.
         25    2    1    2    0    0 -0.65876258727E+02  0.31628143316E+02 -0.90284567281E+02  0.17069479574E+03  0.12508153057E+03 0.  0.
         23    2    1    2    0    0  0.65876258727E+02 -0.31628143316E+02 -0.64915343085E+02  0.13422297727E+03  0.91987960876E+02 0.  0.
          5    1    3    3  502    0 -0.13406480173E+02 -0.45542052176E+02 -0.12847411285E+02  0.49359301086E+02  0.41800000000E+01 0.  1.
         -5    1    3    3    0  502 -0.52469778554E+02  0.77170195491E+02 -0.77437155996E+02  0.12133549465E+03  0.41800000000E+01 0.  1.
        -11    1    4    4    0    0 -0.57727632603E+01 -0.43079794576E+02 -0.14308029907E+02  0.45759296501E+02  0.00000000000E+00 0. -1.
         11    1    4    4    0    0  0.71649021987E+02  0.11451651261E+02 -0.50607313178E+02  0.88463680770E+02  0.00000000000E+00 0.  1.
</event>
<event>
 8    1  0.6597859E-009  0.1088500E+03  0.7561462E-02  0.1262714E+00
          1   -1    0    0  501    0  0.00000000000E+00  0.00000000000E+00  0.14133077148E+04  0.14133077148E+04  0.00000000000E+00 0. -1.
         -1   -1    0    0    0  501 -0.00000000000E+00 -0.00000000000E+00 -0.14838049523E+02  0.14838049523E+02  0.00000000000E+00 0.  1.
         25    2    1    2    0    0  0.89011937293E+02  0.42485614447E+02  0.94373487859E+03  0.95708470369E+03  0.12508979392E+03 0.  0.
         23    2    1    2    0    0 -0.89011937293E+02 -0.42485614447E+02  0.45473478668E+03  0.47106106063E+03  0.73393761393E+02 0.  0.
          5    1    3    3  502    0  0.71319747503E+02  0.55389411293E+02  0.30883241341E+03  0.32179096513E+03  0.41800000000E+01 0. -1.
         -5    1    3    3    0  502  0.17692189790E+02 -0.12903796846E+02  0.63490246518E+03  0.63529373855E+03  0.41800000000E+01 0. -1.
        -11    1    4    4    0    0 -0.17606055378E+02 -0.26530662543E+02  0.46723931563E+02  0.56541798889E+02  0.00000000000E+00 0.  1.
         11    1    4    4    0    0 -0.71405881915E+02 -0.15954951903E+02  0.40801085511E+03  0.41451926174E+03  0.00000000000E+00 0. -1.
</event>
<event>
 8    1  0.6597859E-009  0.7200451E+02  0.7561462E-02  0.1353406E+00
          1   -1    0    0  501    0  0.00000000000E+00  0.00000000000E+00  0.12639215613E+03  0.12639215613E+03  0.00000000000E+00 0. -1.
         -1   -1    0    0    0  501 -0.00000000000E+00 -0.00000000000E+00 -0.98093778915E+02  0.98093778915E+02  0.00000000000E+00 0.  1.
         25    2    1    2    0    0 -0.23703200999E+02  0.24337959552E+01  0.18449178174E+02  0.12866710786E+03  0.12508831828E+03 0.  0.
         23    2    1    2    0    0  0.23703200999E+02 -0.24337959552E+01  0.98491990370E+01  0.95818827181E+02  0.92284753997E+02 0.  0.
          5    1    3    3  502    0 -0.21337927751E+02  0.32989045566E+02 -0.43903608919E+02  0.59064232528E+02  0.41800000000E+01 0. -1.
         -5    1    3    3    0  502 -0.23652732471E+01 -0.30555249610E+02  0.62352787093E+02  0.69602875333E+02  0.41800000000E+01 0. -1.
        -11    1    4    4    0    0  0.42638141833E+02 -0.20577473530E+02 -0.23935518760E+02  0.53050472327E+02  0.00000000000E+00 0.  1.
         11    1    4    4    0    0 -0.18934940834E+02  0.18143677575E+02  0.33784717797E+02  0.42768354854E+02  0.00000000000E+00 0. -1.
</event>
<event>
 8    1  0.6597859E-009  0.1197346E+03  0.7561462E-02  0.1243536E+00
         -1   -1    0    0    0  501 -0.00000000000E+00  0.00000000000E+00  0.30383608013E+03  0.30383608013E+03  0.00000000000E+00 0.  1.
          1   -1    0    0  501    0  0.00000000000E+00 -0.00000000000E+00 -0.65046114822E+02  0.65046114822E+02  0.00000000000E+00 0. -1.
         25    2    1    2    0    0  0.85647570457E+02 -0.19872735685E+02  0.14311954696E+03  0.20942915452E+03  0.12508770561E+03 0.  0.
         23    2    1    2    0    0 -0.85647570457E+02  0.19872735685E+02  0.95670418352E+02  0.15945304043E+03  0.92423001500E+02 0.  0.
          5    1    3    3  502    0  0.34828857463E+02  0.32934756973E+02  0.12482300435E+03  0.13377594082E+03  0.41800000000E+01 0. -1.
         -5    1    3    3    0  502  0.50818712994E+02 -0.52807492658E+02  0.18296542608E+02  0.75653213697E+02  0.41800000000E+01 0. -1.
        -11    1    4    4    0    0  0.91784863876E+00  0.30692338932E+02  0.55460183751E+02  0.63393170744E+02  0.00000000000E+00 0. -1.
         11    1    4    4    0    0 -0.86565419096E+02 -0.10819603247E+02  0.40210234601E+02  0.96059869688E+02  0.00000000000E+00 0.  1.
</event>
<event>
 8    1  0.6597859E-009  0.5952758E+02  0.7561462E-02  0.1399825E+00
         -1   -1    0    0    0  501 -0.00000000000E+00  0.00000000000E+00  0.87874944170E+02  0.87874944170E+02  0.00000000000E+00 0.  1.
          1   -1    0    0  501    0  0.00000000000E+00 -0.00000000000E+00 -0.16514650936E+03  0.16514650936E+03  0.00000000000E+00 0. -1.
         25    2    1    2    0    0 -0.36602771662E+02  0.19241187826E+02 -0.90940679412E+01  0.13205851098E+03  0.12508701791E+03 0.  0.
         23    2    1    2    0    0  0.36602771662E+02 -0.19241187826E+02 -0.68177497244E+02  0.12096294254E+03  0.90960849467E+02 0.  0.
          5    1    3    3  502    0 -0.23863693612E+02  0.20188138051E+02 -0.66234364507E+02  0.73358709316E+02  0.41800000000E+01 0.  1.
         -5    1    3    3    0  502 -0.12739078050E+02 -0.94695022484E+00  0.57140296566E+02  0.58699801669E+02  0.41800000000E+01 0.  1.
        -11    1    4    4    0    0  0.12980288220E+02 -0.40357688308E+02 -0.77151552324E+02  0.88031772184E+02  0.00000000000E+00 0. -1.
         11    1    4    4    0    0  0.23622483441E+02  0.21116500482E+02  0.89740550799E+01  0.32931170358E+02  0.00000000000E+00 0.  1.
</event>
<event>
 8    1  0.6597859E-009  0.1083558E+03  0.7561462E-02  0.1263645E+00
          2   -1    0    0  501    0  0.00000000000E+00  0.00000000000E+00  0.26636819350E+03  0.26636819350E+03  0.00000000000E+00 0. -1.
         -2   -1    0    0    0  501 -0.00000000000E+00 -0.00000000000E+00 -0.71819801278E+02  0.71819801278E+02  0.00000000000E+00 0.  1.
         25    2    1    2    0    0 -0.15818414628E+02 -0.27731539131E+02  0.96879208037E+01  0.12946255694E+03  0.12508971715E+03 0.  0.
         23    2    1    2    0    0  0.15818414628E+02  0.27731539131E+02  0.18486047142E+03  0.20872543783E+03  0.91507671821E+02 0.  0.
          5    1    3    3  502    0  0.28807272948E+02 -0.60268887724E+02  0.25877848973E+02  0.71758854991E+02  0.41800000000E+01 0. -1.
         -5    1    3    3    0  502 -0.44625687575E+02  0.32537348593E+02 -0.16189928170E+02  0.57703701954E+02  0.41800000000E+01 0. -1.
        -11    1    4    4    0    0 -0.87534696774E+01  0.56149298379E+02  0.87140560102E+02  0.10403289939E+03  0.00000000000E+00 0.  1.
         11    1    4    4    0    0  0.24571884305E+02 -0.28417759248E+02  0.97719911317E+02  0.10469253845E+03  0.00000000000E+00 0. -1.
</event>
<event>
 8    1  0.6597859E-009  0.3579137E+03  0.7561462E-02  0.1059413E+00
          2   -1    0    0  501    0  0.00000000000E+00  0.00000000000E+00  0.18642702779E+04  0.18642702779E+04  0.00000000000E+00 0. -1.
         -2   -1    0    0    0  501 -0.00000000000E+00 -0.00000000000E+00 -0.77344358324E+02  0.77344358324E+02  0.00000000000E+00 0.  1.
         25    2    1    2    0    0  0.70757005719E+02  0.34693576237E+03  0.69206564225E+03  0.78738564635E+03  0.12510126230E+03 0.  0.
         23    2    1    2    0    0 -0.70757005719E+02 -0.34693576237E+03  0.10948602773E+04  0.11542289898E+04  0.90302586442E+02 0.  0.
          5    1    3    3  502    0 -0.11155364581E+02  0.29258737857E+02  0.14910266722E+02  0.34932854931E+02  0.41800000000E+01 0.  1.
         -5    1    3    3    0  502  0.81912370299E+02  0.31767702451E+03  0.67715537552E+03  0.75245279142E+03  0.41800000000E+01 0.  1.
        -11    1    4    4    0    0 -0.52664712890E+02 -0.16249318772E+03  0.65529870817E+03  0.67719569178E+03  0.00000000000E+00 0. -1.
         11    1    4    4    0    0 -0.18092292829E+02 -0.18444257465E+03  0.43956156911E+03  0.47703329805E+03  0.00000000000E+00 0.  1.
</event>
<event>
 8    1  0.6597859E-009  0.9577311E+02  0.7561462E-02  0.1289444E+00
          1   -1    0    0  501    0  0.00000000000E+00  0.00000000000E+00  0.79637231112E+02  0.79637231112E+02  0.00000000000E+00 0. -1.
         -1   -1    0    0    0  501 -0.00000000000E+00 -0.00000000000E+00 -0.21120680335E+03  0.21120680335E+03  0.00000000000E+00 0.  1.
         25    2    1    2    0    0 -0.29810594967E+02 -0.62375135352E+02 -0.79133930587E+02  0.16336788805E+03  0.12509020263E+03 0.  0.
         23    2    1    2    0    0  0.29810594967E+02  0.62375135352E+02 -0.52435641646E+02  0.12747614641E+03  0.93388127219E+02 0.  0.
          5    1    3    3  502    0  0.27780432085E+02 -0.14957323679E+02  0.21221070573E+02  0.38252845316E+02  0.41800000000E+01 0.  1.
         -5    1    3    3    0  502 -0.57591027052E+02 -0.47417811672E+02 -0.10035500116E+03  0.12511504274E+03  0.41800000000E+01 0.  1.
        -11    1    4    4    0    0  0.32260226631E+01  0.57964622140E+02 -0.73221238450E+02  0.93443321871E+02  0.00000000000E+00 0.  1.
         11    1    4    4    0    0  0.26584572304E+02  0.44105132112E+01  0.20785596804E+02  0.34032824536E+02  0.00000000000E+00 0. -1.
</event>
<event>
 8    1  0.6597859E-009  0.1616052E+03  0.7561462E-02  0.1186896E+00
         -2   -1    0    0    0  501 -0.00000000000E+00  0.00000000000E+00  0.36411823604E+02  0.36411823604E+02  0.00000000000E+00 0. -1.
          2   -1    0    0  501    0  0.00000000000E+00 -0.00000000000E+00 -0.11358965192E+04  0.11358965192E+04  0.00000000000E+00 0.  1.
         25    2    1    2    0    0 -0.11949075770E+01 -0.13838098453E+03 -0.28186952283E+03  0.33800613422E+03  0.12508794582E+03 0.  0.
         23    2    1    2    0    0  0.11949075770E+01  0.13838098453E+03 -0.81761517277E+03  0.83430220858E+03  0.91732654064E+02 0.  0.
          5    1    3    3  502    0 -0.38725797628E+02 -0.83796691834E+02 -0.69839528995E+02  0.11583007025E+03  0.41800000000E+01 0. -1.
         -5    1    3    3    0  502  0.37530890051E+02 -0.54584292691E+02 -0.21202999383E+03  0.22217606397E+03  0.41800000000E+01 0. -1.
        -11    1    4    4    0    0 -0.12519350677E+02  0.14745482074E+03 -0.76482002885E+03  0.77900534968E+03  0.00000000000E+00 0.  1.
         11    1    4    4    0    0  0.13714258254E+02 -0.90738362127E+01 -0.52795143922E+02  0.55296858905E+02  0.00000000000E+00 0. -1.
</event>
<event>
 8    1  0.6597859E-009  0.1106249E+03  0.7561462E-02  0.1259417E+00
         -2   -1    0    0    0  501 -0.00000000000E+00  0.00000000000E+00  0.96942441867E+01  0.96942441867E+01  0.00000000000E+00 0.  1.
          2   -1    0    0  501    0  0.00000000000E+00 -0.00000000000E+00 -0.18641088542E+04  0.18641088542E+04  0.00000000000E+00 0. -1.
         25    2    1    2    0    0 -0.49772252591E+02  0.10863768788E+01 -0.14515070863E+04  0.14577376048E+04  0.12509054934E+03 0.  0.
         23    2    1    2    0    0  0.49772252591E+02 -0.10863768788E+01 -0.40290752370E+03  0.41606549358E+03  0.91090970705E+02 0.  0.
          5    1    3    3  502    0 -0.58322898181E+02 -0.46045344881E+02 -0.11514074012E+04  0.11538103007E+04  0.41800000000E+01 0.  1.
         -5    1    3    3    0  502  0.85506455907E+01  0.47131721760E+02 -0.30009968513E+03  0.30392730405E+03  0.41800000000E+01 0.  1.
        -11    1    4    4    0    0 -0.24296706448E+02 -0.39546847362E+01 -0.53638012160E+02  0.59016996061E+02  0.00000000000E+00 0. -1.
         11    1    4    4    0    0  0.74068959038E+02  0.28683078575E+01 -0.34926951154E+03  0.35704849751E+03  0.00000000000E+00 0.  1.
</event>
<event>
 7    1  0.6597859E-009  0.1112186E+03  0.7561462E-02  0.1258330E+00
         -1   -1    0    0    0  501 -0.00000000000E+00  0.00000000000E+00  0.35717272383E+02  0.35717272383E+02  0.00000000000E+00 0.  1.
          1   -1    0    0  501    0  0.00000000000E+00 -0.00000000000E+00 -0.98522754458E+03  0.98522754458E+03  0.00000000000E+00 0. -1.
         25    2    1    2    0    0  0.52303601765E+02 -0.76775377805E+02 -0.58647244425E+03  0.60681758402E+03  0.12509007562E+03 0.  0.
          5    1    3    3  502    0 -0.15473920098E+02 -0.19207303486E+02 -0.16576582804E+02  0.30010301696E+02  0.41800000000E+01 0.  1.
         -5    1    3    3    0  502  0.67777521863E+02 -0.57568074319E+02 -0.56989586144E+03  0.57680728232E+03  0.41800000000E+01 0.  1.
        -11    1    1    2    0    0  0.30005923469E+00  0.48828689844E+02 -0.27053660602E+01  0.48904498698E+02  0.00000000000E+00 0.  1.
         11    1    1    2    0    0 -0.52603660999E+02  0.27946687961E+02 -0.36033246189E+03  0.36522273425E+03  0.00000000000E+00 0. -1.
</event>
<event>
 7    1  0.6597859E-009  0.1610871E+03  0.7561462E-02  0.1187475E+00
          4   -1    0    0  501    0  0.00000000000E+00  0.00000000000E+00  0.25490791321E+03  0.25490791321E+03  0.00000000000E+00 0.  1.
         -4   -1    0    0    0  501 -0.00000000000E+00 -0.00000000000E+00 -0.12001284206E+03  0.12001284206E+03  0.00000000000E+00 0. -1.
         23    2    1    2    0    0  0.23806849972E+02 -0.13010767293E+03  0.95259722039E+02  0.18766571313E+03  0.93001250413E+02 0.  0.
          5    1    1    2  502    0  0.28553964780E+01  0.14921739462E+03  0.38405267604E+02  0.15416361804E+03  0.41800000000E+01 0.  1.
         -5    1    1    2    0  502 -0.26662246450E+02 -0.19109721688E+02  0.12300815133E+01  0.33091424105E+02  0.41800000000E+01 0.  1.
        -11    1    3    3    0    0 -0.12597507256E+02 -0.53807855913E+02  0.86536995272E+02  0.10267733001E+03  0.00000000000E+00 0.  1.
         11    1    3    3    0    0  0.36404357229E+02 -0.76299817020E+02  0.87227267666E+01  0.84988383116E+02  0.00000000000E+00 0. -1.
</event>
<event>
 8    1  0.6597859E-009  0.1112239E+03  0.7561462E-02  0.1258320E+00
         -1   -1    0    0    0  501 -0.00000000000E+00  0.00000000000E+00  0.13484748889E+02  0.13484748889E+02  0.00000000000E+00 0.  1.
          1   -1    0    0  501    0  0.00000000000E+00 -0.00000000000E+00 -0.10084857568E+04  0.10084857568E+04  0.00000000000E+00 0. -1.
         25    2    1    2    0    0  0.17129015067E+02 -0.40895661752E+02 -0.55970159932E+03  0.57522107623E+03  0.12509015928E+03 0.  0.
         23    2    1    2    0    0 -0.17129015067E+02  0.40895661752E+02 -0.43529940856E+03  0.44674942943E+03  0.90186580466E+02 0.  0.
          5    1    3    3  502    0 -0.10113759507E+02  0.38329451133E+02 -0.95232780647E+02  0.10323850960E+03  0.41800000000E+01 0.  1.
         -5    1    3    3    0  502  0.27242774574E+02 -0.79225112885E+02 -0.46446881867E+03  0.47198256662E+03  0.41800000000E+01 0.  1.
        -11    1    4    4    0    0  0.36345636879E+02  0.15713829265E+02 -0.13495464461E+03  0.14064382621E+03  0.00000000000E+00 0.  1.
         11    1    4    4    0    0 -0.53474651946E+02  0.25181832487E+02 -0.30034476395E+03  0.30610560322E+03  0.00000000000E+00 0. -1.
</event>
<event>
 8    1  0.6597859E-009  0.1434349E+03  0.7561462E-02  0.1208780E+00
          1   -1    0    0  501    0  0.00000000000E+00  0.00000000000E+00  0.14031798337E+03  0.14031798337E+03  0.00000000000E+00 0. -1.
         -1   -1    0    0    0  501 -0.00000000000E+00 -0.00000000000E+00 -0.15722650394E+03  0.15722650394E+03  0.00000000000E+00 0.  1.
         25    2    1    2    0    0 -0.69534311937E+02 -0.61407924660E+02 -0.47160314333E+02  0.16272235256E+03  0.12509402474E+03 0.  0.
         23    2    1    2    0    0  0.69534311937E+02  0.61407924660E+02  0.30251793763E+02  0.13482213476E+03  0.93036999345E+02 0.  0.
          5    1    3    3  502    0  0.21208515261E+02  0.23110431264E+02 -0.86143383521E+01  0.32795920143E+02  0.41800000000E+01 0.  1.
         -5    1    3    3    0  502 -0.90742827198E+02 -0.84518355924E+02 -0.38545975981E+02  0.12992643242E+03  0.41800000000E+01 0.  1.
        -11    1    4    4    0    0 -0.17633050189E+02  0.36429841341E+02  0.13087533748E+02  0.42536353143E+02  0.00000000000E+00 0.  1.
         11    1    4    4    0    0  0.87167362126E+02  0.24978083319E+02  0.17164260015E+02  0.92285781614E+02  0.00000000000E+00 0. -1.
</event>
<event>
 8    1  0.6597859E-009  0.1133142E+03  0.7561462E-02  0.1254553E+00
          2   -1    0    0  501    0  0.00000000000E+00  0.00000000000E+00  0.24046596344E+03  0.24046596344E+03  0.00000000000E+00 0. -1.
         -2   -1    0    0    0  501 -0.00000000000E+00 -0.00000000000E+00 -0.60940186920E+02  0.60940186920E+02  0.00000000000E+00 0.  1.
         25    2    1    2    0    0 -0.40185223573E+02 -0.10195783741E+02  0.14510375291E+03  0.19601357471E+03  0.12508963251E+03 0.  0.
         23    2    1    2    0    0  0.40185223573E+02  0.10195783741E+02  0.34422023608E+02  0.10539257565E+03  0.90575455245E+02 0.  0.
          5    1    3    3  502    0  0.40424584029E+02 -0.27438456651E+02  0.59435221026E+02  0.77052149845E+02  0.41800000000E+01 0.  1.
         -5    1    3    3    0  502 -0.80609807602E+02  0.17242672910E+02  0.85668531883E+02  0.11896142486E+03  0.41800000000E+01 0.  1.
        -11    1    4    4    0    0  0.62057316883E+02 -0.12750009444E+02  0.37372790663E+02  0.73555413135E+02  0.00000000000E+00 0. -1.
         11    1    4    4    0    0 -0.21872093310E+02  0.22945793185E+02 -0.29507670555E+01  0.31837162513E+02  0.00000000000E+00 0.  1.
</event>
<event>
 8    1  0.6597859E-009  0.1219734E+03  0.7561462E-02  0.1239877E+00
          2   -1    0    0  501    0  0.00000000000E+00  0.00000000000E+00  0.70426195428E+02  0.70426195428E+02  0.00000000000E+00 0. -1.
         -2   -1    0    0    0  501 -0.00000000000E+00 -0.00000000000E+00 -0.32031820203E+03  0.32031820203E+03  0.00000000000E+00 0.  1.
         25    2    1    2    0    0 -0.79462983253E+02 -0.30368329103E+01 -0.22004651873E+03  0.26532492172E+03  0.12511297143E+03 0.  0.
         23    2    1    2    0    0  0.79462983253E+02  0.30368329103E+01 -0.29845487875E+02  0.12541947574E+03  0.92280570472E+02 0.  0.
          5    1    3    3  502    0  0.48331304023E+01  0.45039373263E+02 -0.10707573342E+03  0.11633825416E+03  0.41800000000E+01 0. -1.
         -5    1    3    3    0  502 -0.84296113656E+02 -0.48076206173E+02 -0.11297078531E+03  0.14898666756E+03  0.41800000000E+01 0. -1.
        -11    1    4    4    0    0  0.21376088274E+02  0.30361464878E+02 -0.46106200883E+02  0.59199133940E+02  0.00000000000E+00 0.  1.
         11    1    4    4    0    0  0.58086894979E+02 -0.27324631967E+02  0.16260713008E+02  0.66220341800E+02  0.00000000000E+00 0. -1.
</event>
<event>
 8    1  0.6597859E-009  0.1332413E+03  0.7561462E-02  0.1222724E+00
          2   -1    0    0  501    0  0.00000000000E+00  0.00000000000E+00  0.53596244108E+03  0.53596244108E+03  0.00000000000E+00 0. -1.
         -2   -1    0    0    0  501 -0.00000000000E+00 -0.00000000000E+00 -0.55999784142E+02  0.55999784142E+02  0.00000000000E+00 0.  1.
         25    2    1    2    0    0  0.86131700617E+02  0.60813532626E+02  0.39836029094E+03  0.43064576905E+03  0.12509157206E+03 0.  0.
         23    2    1    2    0    0 -0.86131700617E+02 -0.60813532626E+02  0.81602365991E+02  0.16131645617E+03  0.90813530343E+02 0.  0.
          5    1    3    3  502    0  0.10809111362E+03  0.40078033537E+02  0.20789664269E+03  0.23775706942E+03  0.41800000000E+01 0.  1.
         -5    1    3    3    0  502 -0.21959412998E+02  0.20735499089E+02  0.19046364825E+03  0.19288869964E+03  0.41800000000E+01 0.  1.
        -11    1    4    4    0    0 -0.16275493217E+02 -0.46582243663E+02 -0.44794976265E+01  0.49546574080E+02  0.00000000000E+00 0.  1.
         11    1    4    4    0    0 -0.69856207400E+02 -0.14231288963E+02  0.86081863617E+02  0.11176988209E+03  0.00000000000E+00 0. -1.
</event>
<event>
 8    1  0.6597859E-009  0.1058847E+03  0.7561462E-02  0.1268386E+00
          1   -1    0    0  501    0  0.00000000000E+00  0.00000000000E+00  0.22196355181E+02  0.22196355181E+02  0.00000000000E+00 0. -1.
         -1   -1    0    0    0  501 -0.00000000000E+00 -0.00000000000E+00 -0.67096539986E+03  0.67096539986E+03  0.00000000000E+00 0.  1.
         25    2    1    2    0    0 -0.42775815872E+02  0.27135817409E+02 -0.27589122415E+03  0.30713238988E+03  0.12509282288E+03 0.  0.
         23    2    1    2    0    0  0.42775815872E+02 -0.27135817409E+02 -0.37287782053E+03  0.38602936517E+03  0.86108528728E+02 0.  0.
          5    1    3    3  502    0 -0.78161164853E+02  0.49029379712E+02 -0.20458819561E+03  0.22447015380E+03  0.41800000000E+01 0. -1.
         -5    1    3    3    0  502  0.35385348981E+02 -0.21893562304E+02 -0.71303028546E+02  0.82662236073E+02  0.41800000000E+01 0. -1.
        -11    1    4    4    0    0  0.31588927634E+00  0.16617035633E+02 -0.13209289701E+02  0.21229955103E+02  0.00000000000E+00 0. -1.
         11    1    4    4    0    0  0.42459926596E+02 -0.43752853042E+02 -0.35966853083E+03  0.36479941007E+03  0.00000000000E+00 0.  1.
</event>
<event>
 8    1  0.6597859E-009  0.2026530E+03  0.7561462E-02  0.1147520E+00
         -1   -1    0    0    0  501 -0.00000000000E+00  0.00000000000E+00  0.89152908019E+02  0.89152908019E+02  0.00000000000E+00 0.  1.
          1   -1    0    0  501    0  0.00000000000E+00 -0.00000000000E+00 -0.76737610860E+03  0.76737610860E+03  0.00000000000E+00 0. -1.
         25    2    1    2    0    0  0.17494601444E+03 -0.49520760643E+02 -0.97435607954E+02  0.24125029193E+03  0.12509832915E+03 0.  0.
         23    2    1    2    0    0 -0.17494601444E+03  0.49520760643E+02 -0.58078759262E+03  0.61527872469E+03  0.90527717335E+02 0.  0.
          5    1    3    3  502    0  0.15082586606E+03  0.14771148993E+02 -0.72792776178E+02  0.16817517468E+03  0.41800000000E+01 0.  1.
         -5    1    3    3    0  502  0.24120148374E+02 -0.64291909636E+02 -0.24642831776E+02  0.73075117244E+02  0.41800000000E+01 0.  1.
        -11    1    4    4    0    0 -0.69481075553E+02  0.27493020458E+01 -0.35474740118E+03  0.36149812886E+03  0.00000000000E+00 0. -1.
         11    1    4    4    0    0 -0.10546493888E+03  0.46771458598E+02 -0.22604019144E+03  0.25378059583E+03  0.00000000000E+00 0.  1.
</event>
<event>
 8    1  0.6597859E-009  0.1073346E+03  0.7561462E-02  0.1265587E+00
         -3   -1    0    0    0  501 -0.00000000000E+00  0.00000000000E+00  0.41911643667E+02  0.41911643667E+02  0.00000000000E+00 0.  1.
          3   -1    0    0  501    0  0.00000000000E+00 -0.00000000000E+00 -0.28672126608E+03  0.28672126608E+03  0.00000000000E+00 0. -1.
         25    2    1    2    0    0 -0.11685997619E+02  0.13887609623E+02 -0.12552396395E+03  0.17813679709E+03  0.12508806781E+03 0.  0.
         23    2    1    2    0    0  0.11685997619E+02 -0.13887609623E+02 -0.11928565846E+03  0.15049611266E+03  0.89947670174E+02 0.  0.
          5    1    3    3  502    0 -0.60899782142E+02  0.36390678874E+02 -0.82412657379E+02  0.10882271578E+03  0.41800000000E+01 0.  1.
         -5    1    3    3    0  502  0.49213784524E+02 -0.22503069250E+02 -0.43111306574E+02  0.69314081306E+02  0.41800000000E+01 0.  1.
        -11    1    4    4    0    0 -0.33742940366E+02 -0.25666405486E+02 -0.39576166373E+02  0.57996752839E+02  0.00000000000E+00 0. -1.
         11    1    4    4    0    0  0.45428937984E+02  0.11778795862E+02 -0.79709492087E+02  0.92499359820E+02  0.00000000000E+00 0.  1.
</event>
<event>
 7    1  0.6597859E-009  0.1514428E+03  0.7561462E-02  0.1198711E+00
         -1   -1    0    0    0  501 -0.00000000000E+00  0.00000000000E+00  0.39206922596E+03  0.39206922596E+03  0.00000000000E+00 0.  1.
          1   -1    0    0  501    0  0.00000000000E+00 -0.00000000000E+00 -0.69577556053E+02  0.69577556053E+02  0.00000000000E+00 0. -1.
         23    2    1    2    0    0 -0.17199138184E+02 -0.11980923859E+03  0.12275111228E+03  0.19634009805E+03  0.93976244500E+02 0.  0.
          5    1    1    2  502    0  0.18037298564E+02  0.14619728603E+03  0.16124592971E+03  0.21844155472E+03  0.41800000000E+01 0. -1.
         -5    1    1    2    0  502 -0.83816037978E+00 -0.26388047435E+02  0.38494627922E+02  0.46865129245E+02  0.41800000000E+01 0. -1.
        -11    1    3    3    0    0 -0.29218857396E+02 -0.49655668696E+02  0.38240445489E+01  0.57741236373E+02  0.00000000000E+00 0. -1.
         11    1    3    3    0    0  0.12019719212E+02 -0.70153569896E+02  0.11892706773E+03  0.13859886168E+03  0.00000000000E+00 0.  1.
</event>
<event>
 8    1  0.6597859E-009  0.2149743E+03  0.7561462E-02  0.1137686E+00
         -1   -1    0    0    0  501 -0.00000000000E+00  0.00000000000E+00  0.43657634883E+03  0.43657634883E+03  0.00000000000E+00 0.  1.
          1   -1    0    0  501    0  0.00000000000E+00 -0.00000000000E+00 -0.10948024645E+03  0.10948024645E+03  0.00000000000E+00 0. -1.
         25    2    1    2    0    0 -0.18355079818E+03 -0.47645247426E+02  0.17859549526E+03  0.28897019958E+03  0.12508581136E+03 0.  0.
         23    2    1    2    0    0  0.18355079818E+03  0.47645247426E+02  0.14850060712E+03  0.25708639570E+03  0.89888928260E+02 0.  0.
          5    1    3    3  502    0 -0.10191386038E+03  0.34518761157E+02  0.11168548150E+03  0.15514218957E+03  0.41800000000E+01 0.  1.
         -5    1    3    3    0  502 -0.81636937806E+02 -0.82164008583E+02  0.66910013765E+02  0.13382801001E+03  0.41800000000E+01 0.  1.
        -11    1    4    4    0    0  0.15764026351E+03  0.69679019621E+02  0.10481731766E+03  0.20172329696E+03  0.00000000000E+00 0.  1.
         11    1    4    4    0    0  0.25910534676E+02 -0.22033772195E+02  0.43683289465E+02  0.55363098747E+02  0.00000000000E+00 0. -1.
</event>
<event>
 8    1  0.6597859E-009  0.1177091E+03  0.7561462E-02  0.1246925E+00
         -1   -1    0    0    0  501 -0.00000000000E+00  0.00000000000E+00  0.15738222106E+03  0.15738222106E+03  0.00000000000E+00 0. -1.
          1   -1    0    0  501    0  0.00000000000E+00 -0.00000000000E+00 -0.16151518670E+03  0.16151518670E+03  0.00000000000E+00 0.  1.
         25    2    1    2    0    0 -0.22301672967E+02 -0.53998067168E+02  0.10020637148E+03  0.17059774599E+03  0.12509643551E+03 0.  0.
         23    2    1    2    0    0  0.22301672967E+02  0.53998067168E+02 -0.10433933713E+03  0.14829966177E+03  0.87709386804E+02 0.  0.
          5    1    3    3  502    0 -0.63845447973E+01  0.39854283910E+02  0.16631025870E+02  0.43854187711E+02  0.41800000000E+01 0.  1.
         -5    1    3    3    0  502 -0.15917128170E+02 -0.93852351079E+02  0.83575345612E+02  0.12674355828E+03  0.41800000000E+01 0.  1.
        -11    1    4    4    0    0 -0.27132943385E+02  0.11016531741E+01 -0.52975638997E+02  0.59530064535E+02  0.00000000000E+00 0.  1.
         11    1    4    4    0    0  0.49434616352E+02  0.52896413994E+02 -0.51363698130E+02  0.88769597233E+02  0.00000000000E+00 0. -1.
</event>
<event>
 8    1  0.6597859E-009  0.1093249E+03  0.7561462E-02  0.1261825E+00
         -1   -1    0    0    0  501 -0.00000000000E+00  0.00000000000E+00  0.13923825848E+02  0.13923825848E+02  0.00000000000E+00 0.  1.
          1   -1    0    0  501    0  0.00000000000E+00 -0.00000000000E+00 -0.10091855721E+04  0.10091855721E+04  0.00000000000E+00 0. -1.
         25    2    1    2    0    0  0.16680562340E+02 -0.13016741566E+02 -0.74567261490E+03  0.75638830776E+03  0.12509175347E+03 0.  0.
         23    2    1    2    0    0 -0.16680562340E+02  0.13016741566E+02 -0.24958913134E+03  0.26672109017E+03  0.91639122320E+02 0.  0.
          5    1    3    3  502    0 -0.16156573540E+02  0.51462347617E+02 -0.29373870566E+03  0.29867927228E+03  0.41800000000E+01 0.  1.
         -5    1    3    3    0  502  0.32837135881E+02 -0.64479089184E+02 -0.45193390924E+03  0.45770903548E+03  0.41800000000E+01 0.  1.
        -11    1    4    4    0    0  0.37060644851E+02  0.13995910146E+01 -0.74822897563E+02  0.83509976958E+02  0.00000000000E+00 0.  1.
         11    1    4    4    0    0 -0.53741207192E+02  0.11617150552E+02 -0.17476623378E+03  0.18321111322E+03  0.00000000000E+00 0. -1.
</event>
<event>
 8    1  0.6597859E-009  0.7930432E+02  0.7561462E-02  0.1331037E+00
         -2   -1    0    0    0  501 -0.00000000000E+00  0.00000000000E+00  0.13329282957E+03  0.13329282957E+03  0.00000000000E+00 0.  1.
          2   -1    0    0  501    0  0.00000000000E+00 -0.00000000000E+00 -0.14468243879E+03  0.14468243879E+03  0.00000000000E+00 0. -1.
         25    2    1    2    0    0  0.62363111452E+02 -0.26265954508E+02 -0.58414603251E+02  0.15375599300E+03  0.12509828725E+03 0.  0.
         23    2    1    2    0    0 -0.62363111452E+02  0.26265954508E+02  0.47024994039E+02  0.12421927536E+03  0.92951709348E+02 0.  0.
          5    1    3    3  502    0  0.72926429426E+02 -0.14291410155E+02  0.17173599476E+02  0.76386605056E+02  0.41800000000E+01 0.  1.
         -5    1    3    3    0  502 -0.10563317973E+02 -0.11974544353E+02 -0.75588202727E+02  0.77369387942E+02  0.41800000000E+01 0.  1.
        -11    1    4    4    0    0 -0.35896142186E+02  0.15455553295E+02 -0.25226849127E+02  0.46516675165E+02  0.00000000000E+00 0. -1.
         11    1    4    4    0    0 -0.26466969266E+02  0.10810401212E+02  0.72251843165E+02  0.77702600197E+02  0.00000000000E+00 0.  1.
</event>
<event>
 8    1  0.6597859E-009  0.1143286E+03  0.7561462E-02  0.1252758E+00
         -1   -1    0    0    0  501 -0.00000000000E+00  0.00000000000E+00  0.52348810256E+02  0.52348810256E+02  0.00000000000E+00 0.  1.
          1   -1    0    0  501    0  0.00000000000E+00 -0.00000000000E+00 -0.32888475060E+03  0.32888475060E+03  0.00000000000E+00 0. -1.
         25    2    1    2    0    0 -0.73398965276E+02 -0.10028739242E+02 -0.14894434391E+03  0.20813455753E+03  0.12509033832E+03 0.  0.
         23    2    1    2    0    0  0.73398965276E+02  0.10028739242E+02 -0.12759159644E+03  0.17309900333E+03  0.90529916368E+02 0.  0.
          5    1    3    3  502    0  0.34945493235E+02  0.41954045289E+01 -0.44779935473E+02  0.57109578334E+02  0.41800000000E+01 0.  1.
         -5    1    3    3    0  502 -0.10834445851E+03 -0.14224143771E+02 -0.10416440844E+03  0.15102497920E+03  0.41800000000E+01 0.  1.
        -11    1    4    4    0    0  0.21820145390E+02  0.21918467662E+02  0.40711463411E+01  0.31194746385E+02  0.00000000000E+00 0.  1.
         11    1    4    4    0    0  0.51578819886E+02 -0.11889728420E+02 -0.13166274278E+03  0.14190425694E+03  0.00000000000E+00 0. -1.
</event>
<event>
 8    1  0.6597859E-009  0.1469819E+03  0.7561462E-02  0.1204231E+00
         -2   -1    0    0    0  501 -0.00000000000E+00  0.00000000000E+00  0.16602458056E+03  0.16602458056E+03  0.00000000000E+00 0.  1.
          2   -1    0    0  501    0  0.00000000000E+00 -0.00000000000E+00 -0.18382986924E+03  0.18382986924E+03  0.00000000000E+00 0. -1.
         25    2    1    2    0    0  0.10324950490E+03 -0.60396161587E+01  0.79001961267E+02  0.18051676383E+03  0.12509218566E+03 0.  0.
         23    2    1    2    0    0 -0.10324950490E+03  0.60396161587E+01 -0.96807249946E+02  0.16933768598E+03  0.92772145732E+02 0.  0.
          5    1    3    3  502    0 -0.22022562287E+02  0.21405529968E+02  0.24192690547E+01  0.31088827988E+02  0.41800000000E+01 0.  1.
         -5    1    3    3    0  502  0.12527206719E+03 -0.27445146127E+02  0.76582692212E+02  0.14942793584E+03  0.41800000000E+01 0.  1.
        -11    1    4    4    0    0 -0.10134514590E+03  0.33799514843E+02 -0.92233455005E+02  0.14113913711E+03  0.00000000000E+00 0.  1.
         11    1    4    4    0    0 -0.19043590020E+01 -0.27759898684E+02 -0.45737949404E+01  0.28198548869E+02  0.00000000000E+00 0. -1.
</event>
<event>
 8    1  0.6597859E-009  0.1290940E+03  0.7561462E-02  0.1228806E+00
          1   -1    0    0  501    0  0.00000000000E+00  0.00000000000E+00  0.40417303417E+03  0.40417303417E+03  0.00000000000E+00 0. -1.
         -1   -1    0    0    0  501 -0.00000000000E+00 -0.00000000000E+00 -0.54540400473E+02  0.54540400473E+02  0.00000000000E+00 0.  1.
         25    2    1    2    0    0  0.80083461047E+02 -0.29219455403E+02  0.27481208309E+03  0.31374826137E+03  0.12509657547E+03 0.  0.
         23    2    1    2    0    0 -0.80083461047E+02  0.29219455403E+02  0.74820550615E+02  0.14496517328E+03  0.90275408402E+02 0.  0.
          5    1    3    3  502    0 -0.23742422139E+02  0.13468554667E+02  0.16755156377E+02  0.32300344256E+02  0.41800000000E+01 0. -1.
         -5    1    3    3    0  502  0.10382588319E+03 -0.42688010070E+02  0.25805692671E+03  0.28144791711E+03  0.41800000000E+01 0. -1.
        -11    1    4    4    0    0  0.13751320510E+02 -0.95140607401E+01 -0.30828009128E+01  0.17003524017E+02  0.00000000000E+00 0.  1.
         11    1    4    4    0    0 -0.93834781557E+02  0.38733516143E+02  0.77903351528E+02  0.12796164926E+03  0.00000000000E+00 0. -1.
</event>
<event>
 8    1  0.6597859E-009  0.2230332E+03  0.7561462E-02  0.1131642E+00
          2   -1    0    0  501    0  0.00000000000E+00  0.00000000000E+00  0.53497017822E+03  0.53497017822E+03  0.00000000000E+00 0.  1.
         -2   -1    0    0    0  501 -0.00000000000E+00 -0.00000000000E+00 -0.10193830216E+03  0.10193830216E+03  0.00000000000E+00 0. -1.
         25    2    1    2    0    0  0.17686360623E+03 -0.10472972380E+03  0.24880685961E+03  0.34612386545E+03  0.12509127303E+03 0.  0.
         23    2    1    2    0    0 -0.17686360623E+03  0.10472972380E+03  0.18422501645E+03  0.29078461493E+03  0.91475599672E+02 0.  0.
          5    1    3    3  502    0  0.16346897293E+03 -0.33006272696E+02  0.16045047002E+03  0.23145916460E+03  0.41800000000E+01 0. -1.
         -5    1    3    3    0  502  0.13394633301E+02 -0.71723451103E+02  0.88356389588E+02  0.11466470085E+03  0.41800000000E+01 0. -1.
        -11    1    4    4    0    0 -0.93434152431E+02  0.64542648395E+02  0.15793189629E+03  0.19452037983E+03  0.00000000000E+00 0.  1.
         11    1    4    4    0    0 -0.83429453803E+02  0.40187075404E+02  0.26293120159E+02  0.96264235098E+02  0.00000000000E+00 0. -1.
</event>
<event>
 8    1  0.6597859E-009  0.1956111E+03  0.7561462E-02  0.1153496E+00
         -1   -1    0    0    0  501 -0.00000000000E+00  0.00000000000E+00  0.30465951290E+03  0.30465951290E+03  0.00000000000E+00 0.  1.
          1   -1    0    0  501    0  0.00000000000E+00 -0.00000000000E+00 -0.14296547724E+03  0.14296547724E+03  0.00000000000E+00 0. -1.
         25    2    1    2    0    0  0.17864171400E+03  0.19798387844E+02  0.86842915141E+02  0.23557205109E+03  0.12509061197E+03 0.  0.
         23    2    1    2    0    0 -0.17864171400E+03 -0.19798387844E+02  0.74851120520E+02  0.21205293904E+03  0.84017382554E+02 0.  0.
          5    1    3    3  502    0 -0.12829541407E+02  0.51606551507E+01 -0.12699743059E+02  0.19235003718E+02  0.41800000000E+01 0. -1.
         -5    1    3    3    0  502  0.19147125541E+03  0.14637732693E+02  0.99542658200E+02  0.21633704738E+03  0.41800000000E+01 0. -1.
        -11    1    4    4    0    0 -0.10249203857E+03  0.98894981433E+01  0.26577144919E+01  0.10300234750E+03  0.00000000000E+00 0.  1.
         11    1    4    4    0    0 -0.76149675434E+02 -0.29687885987E+02  0.72193406028E+02  0.10905059155E+03  0.00000000000E+00 0. -1.
</event>
<event>
 8    1  0.6597859E-009  0.1408096E+03  0.7561462E-02  0.1212244E+00
          4   -1    0    0  501    0  0.00000000000E+00  0.00000000000E+00  0.31097943591E+03  0.31097943591E+03  0.00000000000E+00 0.  1.
         -4   -1    0    0    0  501 -0.00000000000E+00 -0.00000000000E+00 -0.10618358639E+03  0.10618358639E+03  0.00000000000E+00 0. -1.
         25    2    1    2    0    0  0.89932618710E+02  0.10635468406E+03  0.15174618199E+03  0.24098667476E+03  0.12509388049E+03 0.  0.
         23    2    1    2    0    0 -0.89932618710E+02 -0.10635468406E+03  0.53049667533E+02  0.17617634753E+03  0.93939573533E+02 0.  0.
          5    1    3    3  502    0  0.52879827930E+02  0.70927373963E+02  0.87243953593E+01  0.88997505884E+02  0.41800000000E+01 0.  1.
         -5    1    3    3    0  502  0.37052790780E+02  0.35427310094E+02  0.14302178663E+03  0.15198916888E+03  0.41800000000E+01 0.  1.
        -11    1    4    4    0    0 -0.88716808611E+02 -0.94196208558E+02  0.76079561981E+02  0.15010562144E+03  0.00000000000E+00 0.  1.
         11    1    4    4    0    0 -0.12158100989E+01 -0.12158475499E+02 -0.23029894448E+02  0.26070726092E+02  0.00000000000E+00 0. -1.
</event>
<event>
 8    1  0.6597859E-009  0.1404608E+03  0.7561462E-02  0.1212710E+00
         -1   -1    0    0    0  501 -0.00000000000E+00  0.00000000000E+00  0.55345181461E+02  0.55345181461E+02  0.00000000000E+00 0.  1.
          1   -1    0    0  501    0  0.00000000000E+00 -0.00000000000E+00 -0.42323973664E+03  0.42323973664E+03  0.00000000000E+00 0. -1.
         25    2    1    2    0    0  0.49059454425E+02  0.96767648928E+02 -0.18089908334E+03  0.24524025328E+03  0.12508994975E+03 0.  0.
         23    2    1    2    0    0 -0.49059454425E+02 -0.96767648928E+02 -0.18699547184E+03  0.23334466482E+03  0.87815819557E+02 0.  0.
          5    1    3    3  502    0  0.87121296064E+01  0.10405521365E+03 -0.67055265412E+02  0.12416629861E+03  0.41800000000E+01 0. -1.
         -5    1    3    3    0  502  0.40347324819E+02 -0.72875647240E+01 -0.11384381793E+03  0.12107395468E+03  0.41800000000E+01 0. -1.
        -11    1    4    4    0    0 -0.60790592244E+02 -0.10468330952E+03 -0.18149430003E+03  0.21816111555E+03  0.00000000000E+00 0. -1.
         11    1    4    4    0    0  0.11731137819E+02  0.79156605883E+01 -0.55011718110E+01  0.15183549268E+02  0.00000000000E+00 0.  1.
</event>
<event>
 8    1  0.6597859E-009  0.2043904E+03  0.7561462E-02  0.1146087E+00
         -2   -1    0    0    0  501 -0.00000000000E+00  0.00000000000E+00  0.89636663503E+02  0.89636663503E+02  0.00000000000E+00 0. -1.
          2   -1    0    0  501    0  0.00000000000E+00 -0.00000000000E+00 -0.61701101028E+03  0.61701101028E+03  0.00000000000E+00 0.  1.
         25    2    1    2    0    0 -0.16787135231E+03 -0.83607734309E+02 -0.13644967551E+03  0.26351065348E+03  0.12509319080E+03 0.  0.
         23    2    1    2    0    0  0.16787135231E+03  0.83607734309E+02 -0.39092467127E+03  0.44313702031E+03  0.91527460362E+02 0.  0.
          5    1    3    3  502    0 -0.10454860922E+03 -0.91913587063E+02 -0.35067397880E+02  0.14361655187E+03  0.41800000000E+01 0. -1.
         -5    1    3    3    0  502 -0.63322743088E+02  0.83058527540E+01 -0.10138227763E+03  0.11989410161E+03  0.41800000000E+01 0. -1.
        -11    1    4    4    0    0  0.10573648685E+03  0.57435662184E+01 -0.16277803880E+03  0.19419032705E+03  0.00000000000E+00 0. -1.
         11    1    4    4    0    0  0.62134865457E+02  0.77864168090E+02 -0.22814663246E+03  0.24894669325E+03  0.00000000000E+00 0.  1.
</event>
<event>
 8    1  0.6597859E-009  0.1688455E+03  0.7561462E-02  0.1179057E+00
          1   -1    0    0  501    0  0.00000000000E+00  0.00000000000E+00  0.80936042651E+02  0.80936042651E+02  0.00000000000E+00 0. -1.
         -1   -1    0    0    0  501 -0.00000000000E+00 -0.00000000000E+00 -0.39202838978E+03  0.39202838978E+03  0.00000000000E+00 0.  1.
         25    2    1    2    0    0 -0.10578741414E+03 -0.71374120717E+02 -0.23743038134E+03  0.29716196488E+03  0.12508719076E+03 0.  0.
         23    2    1    2    0    0  0.10578741414E+03  0.71374120717E+02 -0.73661965789E+02  0.17580246755E+03  0.95891502708E+02 0.  0.
          5    1    3    3  502    0  0.26904030883E+02 -0.27332342196E+02 -0.57911070949E+02  0.69584828419E+02  0.41800000000E+01 0. -1.
         -5    1    3    3    0  502 -0.13269144503E+03 -0.44041778521E+02 -0.17951931039E+03  0.22757713646E+03  0.41800000000E+01 0. -1.
        -11    1    4    4    0    0  0.66417600210E+02  0.93030739145E+02 -0.47296749595E+02  0.12370528916E+03  0.00000000000E+00 0.  1.
         11    1    4    4    0    0  0.39369813934E+02 -0.21656618428E+02 -0.26365216194E+02  0.52097178387E+02  0.00000000000E+00 0. -1.
</event>
<event>
 8    1  0.6597859E-009  0.1277184E+03  0.7561462E-02  0.1230881E+00
          2   -1    0    0  501    0  0.00000000000E+00  0.00000000000E+00  0.10358099667E+04  0.10358099667E+04  0.00000000000E+00 0. -1.
         -2   -1    0    0    0  501 -0.00000000000E+00 -0.00000000000E+00 -0.38291266182E+02  0.38291266182E+02  0.00000000000E+00 0.  1.
         25    2    1    2    0    0 -0.97241218237E+02 -0.61313291013E+01  0.88617148934E+03  0.90024581763E+03  0.12509666633E+03 0.  0.
         23    2    1    2    0    0  0.97241218237E+02  0.61313291013E+01  0.11134721116E+03  0.17385541523E+03  0.91291052416E+02 0.  0.
          5    1    3    3  502    0 -0.12177388592E+03 -0.16359643738E+02  0.57954237764E+03  0.59243848382E+03  0.41800000000E+01 0. -1.
         -5    1    3    3    0  502  0.24532667686E+02  0.10228314637E+02  0.30662911170E+03  0.30780733381E+03  0.41800000000E+01 0. -1.
        -11    1    4    4    0    0  0.91102651757E+02 -0.67192945737E+01  0.12453425033E+03  0.15444617698E+03  0.00000000000E+00 0. -1.
         11    1    4    4    0    0  0.61385664796E+01  0.12850623675E+02 -0.13187039176E+02  0.19409238251E+02  0.00000000000E+00 0.  1.
</event>
<event>
 8    1  0.6597859E-009  0.1125798E+03  0.7561462E-02  0.1255866E+00
         -1   -1    0    0    0  501 -0.00000000000E+00  0.00000000000E+00  0.94306685962E+02  0.94306685962E+02  0.00000000000E+00 0.  1.
          1   -1    0    0  501    0  0.00000000000E+00 -0.00000000000E+00 -0.25350693759E+03  0.25350693759E+03  0.00000000000E+00 0. -1.
         25    2    1    2    0    0 -0.31644015142E+02 -0.48576260759E+02 -0.19003577891E+03  0.23478371026E+03  0.12509514993E+03 0.  0.
         23    2    1    2    0    0  0.31644015142E+02  0.48576260759E+02  0.30835527282E+02  0.11302991328E+03  0.91999645384E+02 0.  0.
          5    1    3    3  502    0  0.19482711686E+02  0.27824945967E+02 -0.10138084782E+03  0.10700164661E+03  0.41800000000E+01 0.  1.
         -5    1    3    3    0  502 -0.51126726828E+02 -0.76401206726E+02 -0.88654931085E+02  0.12778206365E+03  0.41800000000E+01 0.  1.
        -11    1    4    4    0    0  0.21183985740E+02  0.71040007502E+02  0.42707227478E+02  0.85553206816E+02  0.00000000000E+00 0.  1.
         11    1    4    4    0    0  0.10460029402E+02 -0.22463746743E+02 -0.11871700196E+02  0.27476706469E+02  0.00000000000E+00 0. -1.
</event>
<event>
 8    1  0.6597859E-009  0.1087668E+03  0.7561462E-02  0.1262871E+00
          3   -1    0    0  501    0  0.00000000000E+00  0.00000000000E+00  0.61599968965E+02  0.61599968965E+02  0.00000000000E+00 0. -1.
         -3   -1    0    0    0  501 -0.00000000000E+00 -0.00000000000E+00 -0.25068342984E+03  0.25068342984E+03  0.00000000000E+00 0.  1.
         25    2    1    2    0    0  0.55211458624E+01 -0.62606953942E+02 -0.10499045935E+03  0.17499141441E+03  0.12509550284E+03 0.  0.
         23    2    1    2    0    0 -0.55211458624E+01  0.62606953942E+02 -0.84093001524E+02  0.13729198439E+03  0.88472268760E+02 0.  0.
          5    1    3    3  502    0  0.57655901273E+02 -0.45947062361E+02 -0.93095884560E+02  0.11882614028E+03  0.41800000000E+01 0.  1.
         -5    1    3    3    0  502 -0.52134755410E+02 -0.16659891581E+02 -0.11894574790E+02  0.56165274135E+02  0.41800000000E+01 0.  1.
        -11    1    4    4    0    0 -0.30176406095E+02  0.11941826270E+02 -0.72966536523E+02  0.79858237844E+02  0.00000000000E+00 0.  1.
         11    1    4    4    0    0  0.24655260232E+02  0.50665127672E+02 -0.11126465002E+02  0.57433746548E+02  0.00000000000E+00 0. -1.
</event>
<event>
 8    1  0.6597859E-009  0.9712870E+02  0.7561462E-02  0.1286452E+00
          3   -1    0    0  501    0  0.00000000000E+00  0.00000000000E+00  0.18247115532E+03  0.18247115532E+03  0.00000000000E+00 0. -1.
         -3   -1    0    0    0  501 -0.00000000000E+00 -0.00000000000E+00 -0.11059693957E+03  0.11059693957E+03  0.00000000000E+00 0.  1.
         25    2    1    2    0    0  0.40230780471E+02  0.78875821410E+02  0.91287114872E+02  0.17838424445E+03  0.12509072877E+03 0.  0.
         23    2    1    2    0    0 -0.40230780471E+02 -0.78875821410E+02 -0.19412899123E+02  0.11468385045E+03  0.70253925165E+02 0.  0.
          5    1    3    3  502    0  0.96054950211E+01  0.23210164087E+02  0.10928937094E+03  0.11221682696E+03  0.41800000000E+01 0.  1.
         -5    1    3    3    0  502  0.30625285450E+02  0.55665657323E+02 -0.18002256068E+02  0.66167417493E+02  0.41800000000E+01 0.  1.
        -11    1    4    4    0    0  0.11302603861E+02 -0.37095385575E+02  0.12929668403E+02  0.40877778927E+02  0.00000000000E+00 0. -1.
         11    1    4    4    0    0 -0.51533384332E+02 -0.41780435834E+02 -0.32342567527E+02  0.73806071521E+02  0.00000000000E+00 0.  1.
</event>
<event>
 8    1  0.6597859E-009  0.7269814E+02  0.7561462E-02  0.1351151E+00
          1   -1    0    0  501    0  0.00000000000E+00  0.00000000000E+00  0.61950172183E+02  0.61950172183E+02  0.00000000000E+00 0.  1.
         -1   -1    0    0    0  501 -0.00000000000E+00 -0.00000000000E+00 -0.23766980109E+03  0.23766980109E+03  0.00000000000E+00 0. -1.
         25    2    1    2    0    0  0.46534946793E+02 -0.25597240675E+02 -0.95496780905E+02  0.16610533576E+03  0.12510246761E+03 0.  0.
         23    2    1    2    0    0 -0.46534946793E+02  0.25597240675E+02 -0.80222847997E+02  0.13351463751E+03  0.92572852855E+02 0.  0.
          5    1    3    3  502    0  0.47134331187E+02  0.15526493348E+02 -0.11123209923E+03  0.12187193882E+03  0.41800000000E+01 0. -1.
         -5    1    3    3    0  502 -0.59938439380E+00 -0.41123734023E+02  0.15735318329E+02  0.44233396936E+02  0.41800000000E+01 0. -1.
        -11    1    4    4    0    0 -0.30209995108E+02  0.10397289973E+02  0.15298832276E+02  0.35423180436E+02  0.00000000000E+00 0.  1.
         11    1    4    4    0    0 -0.16324951685E+02  0.15199950702E+02 -0.95521680273E+02  0.98091457075E+02  0.00000000000E+00 0. -1.
</event>
<event>
 8    1  0.6597859E-009  0.1036799E+03  0.7561462E-02  0.1272743E+00
          2   -1    0    0  501    0  0.00000000000E+00  0.00000000000E+00  0.27555659367E+03  0.27555659367E+03  0.00000000000E+00 0. -1.
         -2   -1    0    0    0  501 -0.00000000000E+00 -0.00000000000E+00 -0.78237522569E+02  0.78237522569E+02  0.00000000000E+00 0.  1.
         25    2    1    2    0    0  0.29164520446E+02  0.25256713439E+01 -0.74833162121E+01  0.12868666445E+03  0.12508920544E+03 0.  0.
         23    2    1    2    0    0 -0.29164520446E+02 -0.25256713439E+01  0.20480238732E+03  0.22510745179E+03  0.88726539055E+02 0.  0.
          5    1    3    3  502    0 -0.42683019817E+02 -0.52660568735E+01 -0.30313726338E+02  0.52782250239E+02  0.41800000000E+01 0. -1.
         -5    1    3    3    0  502  0.71847540264E+02  0.77917282174E+01  0.22830410126E+02  0.75904414213E+02  0.41800000000E+01 0. -1.
        -11    1    4    4    0    0 -0.44214726313E+01  0.41244677963E+02  0.71837742132E+02  0.82953806875E+02  0.00000000000E+00 0.  1.
         11    1    4    4    0    0 -0.24743047815E+02 -0.43770349307E+02  0.13296464518E+03  0.14215364491E+03  0.00000000000E+00 0. -1.
</event>
<event>
 8    1  0.6597859E-009  0.1332163E+03  0.7561462E-02  0.1222760E+00
          1   -1    0    0  501    0  0.00000000000E+00  0.00000000000E+00  0.50125602442E+03  0.50125602442E+03  0.00000000000E+00 0. -1.
         -1   -1    0    0    0  501 -0.00000000000E+00 -0.00000000000E+00 -0.35744677264E+02  0.35744677264E+02  0.00000000000E+00 0.  1.
         25    2    1    2    0    0  0.55885731058E+02  0.52700951762E+02  0.23245551653E+03  0.27492456516E+03  0.12508934452E+03 0.  0.
         23    2    1    2    0    0 -0.55885731058E+02 -0.52700951762E+02  0.23305583063E+03  0.26207613652E+03  0.92023235614E+02 0.  0.
          5    1    3    3  502    0  0.96185099405E+02  0.38341526470E+02  0.15803221088E+03  0.18897962344E+03  0.41800000000E+01 0. -1.
         -5    1    3    3    0  502 -0.40299368347E+02  0.14359425292E+02  0.74423305649E+02  0.85944941722E+02  0.41800000000E+01 0. -1.
        -11    1    4    4    0    0  0.25807527337E+02 -0.10419830880E+02  0.57458597390E+02  0.63844277401E+02  0.00000000000E+00 0.  1.
         11    1    4    4    0    0 -0.81693258395E+02 -0.42281120883E+02  0.17559723324E+03  0.19823185912E+03  0.00000000000E+00 0. -1.
</event>
<event>
 8    1  0.6597859E-009  0.3788852E+03  0.7561462E-02  0.1051347E+00
          1   -1    0    0  501    0  0.00000000000E+00  0.00000000000E+00  0.13425479822E+03  0.13425479822E+03  0.00000000000E+00 0. -1.
         -1   -1    0    0    0  501 -0.00000000000E+00 -0.00000000000E+00 -0.11126327622E+04  0.11126327622E+04  0.00000000000E+00 0.  1.
         25    2    1    2    0    0  0.16564373099E+03  0.32991954371E+03 -0.44043326226E+03  0.58814416454E+03  0.12508936338E+03 0.  0.
         23    2    1    2    0    0 -0.16564373099E+03 -0.32991954371E+03 -0.53794470168E+03  0.65874339584E+03  0.90959378648E+02 0.  0.
          5    1    3    3  502    0  0.17707393746E+03  0.26399406917E+03 -0.32484301413E+03  0.45452008109E+03  0.41800000000E+01 0. -1.
         -5    1    3    3    0  502 -0.11430206469E+02  0.65925474540E+02 -0.11559024813E+03  0.13362408344E+03  0.41800000000E+01 0. -1.
        -11    1    4    4    0    0 -0.53023509525E+02 -0.16346141475E+03 -0.18435082534E+03  0.25202450968E+03  0.00000000000E+00 0.  1.
         11    1    4    4    0    0 -0.11262022147E+03 -0.16645812896E+03 -0.35359387634E+03  0.40671888616E+03  0.00000000000E+00 0. -1.
</event>
<event>
 8    1  0.6597859E-009  0.1207321E+03  0.7561462E-02  0.1241894E+00
          1   -1    0    0  501    0  0.00000000000E+00  0.00000000000E+00  0.55801183913E+03  0.55801183913E+03  0.00000000000E+00 0. -1.
         -1   -1    0    0    0  501 -0.00000000000E+00 -0.00000000000E+00 -0.30666485273E+02  0.30666485273E+02  0.00000000000E+00 0.  1.
         25    2    1    2    0    0 -0.44538304308E+02 -0.51020366994E+02  0.23140490419E+03  0.27163051880E+03  0.12509264832E+03 0.  0.
         23    2    1    2    0    0  0.44538304308E+02  0.51020366994E+02  0.29594044967E+03  0.31704780560E+03  0.91388308264E+02 0.  0.
          5    1    3    3  502    0 -0.22111567102E+02 -0.91840213759E+02  0.16893035024E+03  0.19359359983E+03  0.41800000000E+01 0.  1.
         -5    1    3    3    0  502 -0.22426737206E+02  0.40819846765E+02  0.62474553951E+02  0.78036918974E+02  0.41800000000E+01 0.  1.
        -11    1    4    4    0    0  0.56367462301E+01  0.59964306873E+02  0.97268963989E+02  0.11440604163E+03  0.00000000000E+00 0.  1.
         11    1    4    4    0    0  0.38901558078E+02 -0.89439398791E+01  0.19867148568E+03  0.20264176397E+03  0.00000000000E+00 0. -1.
</event>
<event>
 8    1  0.6597859E-009  0.1208813E+03  0.7561462E-02  0.1241650E+00
         -2   -1    0    0    0  501 -0.00000000000E+00  0.00000000000E+00  0.17366905654E+03  0.17366905654E+03  0.00000000000E+00 0.  1.
          2   -1    0    0  501    0  0.00000000000E+00 -0.00000000000E+00 -0.12560339443E+03  0.12560339443E+03  0.00000000000E+00 0. -1.
         25    2    1    2    0    0 -0.66495047594E+02 -0.54423668348E+02  0.87050943237E+02  0.17495618415E+03  0.12509305585E+03 0.  0.
         23    2    1    2    0    0  0.66495047594E+02  0.54423668348E+02 -0.38985281128E+02  0.12431626683E+03  0.80939205718E+02 0.  0.
          5    1    3    3  502    0  0.32686217776E+02 -0.12639317794E+02  0.49704415663E+02  0.60960171614E+02  0.41800000000E+01 0.  1.
         -5    1    3    3    0  502 -0.99181265369E+02 -0.41784350554E+02  0.37346527574E+02  0.11399601253E+03  0.41800000000E+01 0.  1.
        -11    1    4    4    0    0  0.66867862242E+02  0.28253828101E+02 -0.57207975722E+02  0.92424792612E+02  0.00000000000E+00 0. -1.
         11    1    4    4    0    0 -0.37281464870E+00  0.26169840247E+02  0.18222694594E+02  0.31891474215E+02  0.00000000000E+00 0.  1.
</event>
<event>
 8    1  0.6597859E-009  0.4966441E+02  0.7561462E-02  0.1447160E+00
         -1   -1    0    0    0  501 -0.00000000000E+00  0.00000000000E+00  0.52432182650E+02  0.52432182650E+02  0.00000000000E+00 0.  1.
          1   -1    0    0  501    0  0.00000000000E+00 -0.00000000000E+00 -0.58894208111E+03  0.58894208111E+03  0.00000000000E+00 0. -1.
         25    2    1    2    0    0 -0.89299403490E+01  0.11440920093E+02 -0.53415699072E+03  0.54879980203E+03  0.12508754329E+03 0.  0.
         23    2    1    2    0    0  0.89299403490E+01 -0.11440920093E+02 -0.23529077406E+01  0.92574461731E+02  0.91399432727E+02 0.  0.
          5    1    3    3  502    0  0.47674579824E+01 -0.19346367343E+02 -0.50075788690E+03  0.50117157169E+03  0.41800000000E+01 0.  1.
         -5    1    3    3    0  502 -0.13697398331E+02  0.30787287437E+02 -0.33399103825E+02  0.47628230337E+02  0.41800000000E+01 0.  1.
        -11    1    4    4    0    0  0.21161998163E+02 -0.20754374370E+02  0.38694374757E+02  0.48742474902E+02  0.00000000000E+00 0.  1.
         11    1    4    4    0    0 -0.12232057814E+02  0.93134542773E+01 -0.41047282498E+02  0.43831986829E+02  0.00000000000E+00 0. -1.
</event>
<event>
 8    1  0.6597859E-009  0.1973798E+03  0.7561462E-02  0.1151969E+00
          2   -1    0    0  501    0  0.00000000000E+00  0.00000000000E+00  0.53357599530E+03  0.53357599530E+03  0.00000000000E+00 0. -1.
         -2   -1    0    0    0  501 -0.00000000000E+00 -0.00000000000E+00 -0.10542005607E+03  0.10542005607E+03  0.00000000000E+00 0.  1.
         25    2    1    2    0    0 -0.17048631652E+03  0.96910739182E+02  0.32309241463E+03  0.39811147547E+03  0.12508702180E+03 0.  0.
         23    2    1    2    0    0  0.17048631652E+03 -0.96910739182E+02  0.10506352461E+03  0.24088457590E+03  0.92356695552E+02 0.  0.
          5    1    3    3  502    0 -0.15981420081E+03  0.82162569140E+02  0.18203624917E+03  0.25582403124E+03  0.41800000000E+01 0. -1.
         -5    1    3    3    0  502 -0.10672115714E+02  0.14748170041E+02  0.14105616545E+03  0.14228744423E+03  0.41800000000E+01 0. -1.
        -11    1    4    4    0    0  0.12570607562E+03 -0.66578062525E+02  0.25251547947E+02  0.14447247672E+03  0.00000000000E+00 0.  1.
         11    1    4    4    0    0  0.44780240903E+02 -0.30332676656E+02  0.79811976666E+02  0.96412099178E+02  0.00000000000E+00 0. -1.
</event>
<event>
 8    1  0.6597859E-009  0.1327460E+03  0.7561462E-02  0.1223437E+00
         -1   -1    0    0    0  501 -0.00000000000E+00  0.00000000000E+00  0.48268259190E+02  0.48268259190E+02  0.00000000000E+00 0.  1.
          1   -1    0    0  501    0  0.00000000000E+00 -0.00000000000E+00 -0.46553791358E+03  0.46553791358E+03  0.00000000000E+00 0. -1.
         25    2    1    2    0    0  0.57692987099E+02 -0.83973053103E+02 -0.25071346931E+03  0.29813522822E+03  0.12508963268E+03 0.  0.
         23    2    1    2    0    0 -0.57692987099E+02  0.83973053103E+02 -0.16655618508E+03  0.21567094455E+03  0.91613531352E+02 0.  0.
          5    1    3    3  502    0  0.88502689287E+02 -0.73283403675E+02 -0.23515734398E+03  0.26176254906E+03  0.41800000000E+01 0.  1.
         -5    1    3    3    0  502 -0.30809702188E+02 -0.10689649428E+02 -0.15556125335E+02  0.36372679160E+02  0.41800000000E+01 0.  1.
        -11    1    4    4    0    0 -0.90918905885E+01  0.64722442782E+02 -0.14514456259E+03  0.15918103255E+03  0.00000000000E+00 0.  1.
         11    1    4    4    0    0 -0.48601096510E+02  0.19250610321E+02 -0.21411622483E+02  0.56489911994E+02  0.00000000000E+00 0. -1.
</event>
<event>
 8    1  0.6597859E-009  0.1182327E+03  0.7561462E-02  0.1246041E+00
          2   -1    0    0  501    0  0.00000000000E+00  0.00000000000E+00  0.10289184757E+04  0.10289184757E+04  0.00000000000E+00 0. -1.
         -2   -1    0    0    0  501 -0.00000000000E+00 -0.00000000000E+00 -0.16761893658E+02  0.16761893658E+02  0.00000000000E+00 0.  1.
         25    2    1    2    0    0  0.54582042928E+02  0.46793789017E+02  0.63293270616E+03  0.64916883651E+03  0.12509000624E+03 0.  0.
         23    2    1    2    0    0 -0.54582042928E+02 -0.46793789017E+02  0.37922387589E+03  0.39651153286E+03  0.90784302314E+02 0.  0.
          5    1    3    3  502    0 -0.11764343285E+02 -0.33254162536E+02  0.98696622910E+02  0.10489392200E+03  0.41800000000E+01 0.  1.
         -5    1    3    3    0  502  0.66346386213E+02  0.80047951554E+02  0.53423608325E+03  0.54427491451E+03  0.41800000000E+01 0.  1.
        -11    1    4    4    0    0 -0.66700302732E+02 -0.23652479570E+02  0.35096314650E+03  0.35802723412E+03  0.00000000000E+00 0. -1.
         11    1    4    4    0    0  0.12118259804E+02 -0.23141309447E+02  0.28260729391E+02  0.38484298738E+02  0.00000000000E+00 0.  1.
</event>
<event>
 8    1  0.6597859E-009  0.1172390E+03  0.7561462E-02  0.1247723E+00
         -1   -1    0    0    0  501 -0.00000000000E+00  0.00000000000E+00  0.17071534227E+03  0.17071534227E+03  0.00000000000E+00 0.  1.
          1   -1    0    0  501    0  0.00000000000E+00 -0.00000000000E+00 -0.11850135242E+03  0.11850135242E+03  0.00000000000E+00 0. -1.
         25    2    1    2    0    0 -0.72537574071E+01 -0.51420884510E+02  0.10665438737E+03  0.17239300228E+03  0.12508982585E+03 0.  0.
         23    2    1    2    0    0  0.72537574071E+01  0.51420884510E+02 -0.54440397527E+02  0.11682369240E+03  0.89371661413E+02 0.  0.
          5    1    3    3  502    0  0.30054316551E+01  0.41499352122E+02  0.35006570445E+02  0.54535870951E+02  0.41800000000E+01 0. -1.
         -5    1    3    3    0  502 -0.10259189062E+02 -0.92920236632E+02  0.71647816924E+02  0.11785713133E+03  0.41800000000E+01 0. -1.
        -11    1    4    4    0    0 -0.16558172672E+02 -0.18730261048E+02 -0.18835131608E+00  0.25000624740E+02  0.00000000000E+00 0.  1.
         11    1    4    4    0    0  0.23811930079E+02  0.70151145558E+02 -0.54252046211E+02  0.91823067665E+02  0.00000000000E+00 0. -1.
</event>
<event>
 8    1  0.6597859E-009  0.8662522E+02  0.7561462E-02  0.1311236E+00
         -1   -1    0    0    0  501 -0.00000000000E+00  0.00000000000E+00  0.26297491271E+03  0.26297491271E+03  0.00000000000E+00 0.  1.
          1   -1    0    0  501    0  0.00000000000E+00 -0.00000000000E+00 -0.87141750394E+02  0.87141750394E+02  0.00000000000E+00 0. -1.
         25    2    1    2    0    0  0.21773849273E+02 -0.85420544300E+01 -0.26399035532E+02  0.12996819969E+03  0.12509099347E+03 0.  0.
         23    2    1    2    0    0 -0.21773849273E+02  0.85420544300E+01  0.20223219785E+03  0.22014846341E+03  0.83787928070E+02 0.  0.
          5    1    3    3  502    0  0.49776890809E+02  0.13402937445E+02 -0.61130272979E+02  0.80073467924E+02  0.41800000000E+01 0.  1.
         -5    1    3    3    0  502 -0.28003041536E+02 -0.21944991875E+02  0.34731237447E+02  0.49894731769E+02  0.41800000000E+01 0.  1.
        -11    1    4    4    0    0 -0.49096971958E+02  0.23640554086E+02  0.14591232150E+03  0.15575555855E+03  0.00000000000E+00 0.  1.
         11    1    4    4    0    0  0.27323122684E+02 -0.15098499656E+02  0.56319876350E+02  0.64392904866E+02  0.00000000000E+00 0. -1.
</event>
<event>
 8    1  0.6597859E-009  0.1161013E+03  0.7561462E-02  0.1249671E+00
          1   -1    0    0  501    0  0.00000000000E+00  0.00000000000E+00  0.28941954854E+02  0.28941954854E+02  0.00000000000E+00 0. -1.
         -1   -1    0    0    0  501 -0.00000000000E+00 -0.00000000000E+00 -0.50371258348E+03  0.50371258348E+03  0.00000000000E+00 0.  1.
         25    2    1    2    0    0 -0.25597601947E+02 -0.36904170311E+02 -0.20153748683E+03  0.24142377892E+03  0.12510366670E+03 0.  0.
         23    2    1    2    0    0  0.25597601947E+02  0.36904170311E+02 -0.27323314180E+03  0.29123075941E+03  0.90232202885E+02 0.  0.
          5    1    3    3  502    0 -0.75674817386E+02 -0.11747096803E+02 -0.11379620211E+03  0.13722871523E+03  0.41800000000E+01 0.  1.
         -5    1    3    3    0  502  0.50077215439E+02 -0.25157073509E+02 -0.87741284714E+02  0.10419506369E+03  0.41800000000E+01 0.  1.
        -11    1    4    4    0    0  0.81743770830E+01 -0.29524409087E+02 -0.10884641181E+03  0.11307542853E+03  0.00000000000E+00 0.  1.
         11    1    4    4    0    0  0.17423224864E+02  0.66428579399E+02 -0.16438672999E+03  0.17815533088E+03  0.00000000000E+00 0. -1.
</event>
<event>
 8    1  0.6597859E-009  0.9416697E+02  0.7561462E-02  0.1293063E+00
         -1   -1    0    0    0  501 -0.00000000000E+00  0.00000000000E+00  0.39520072710E+02  0.39520072710E+02  0.00000000000E+00 0.  1.
          1   -1    0    0  501    0  0.00000000000E+00 -0.00000000000E+00 -0.75236677609E+03  0.75236677609E+03  0.00000000000E+00 0. -1.
         25    2    1    2    0    0 -0.41127365355E+01 -0.24037703267E+02 -0.68041874025E+03  0.69225115601E+03  0.12508906882E+03 0.  0.
         23    2    1    2    0    0  0.41127365355E+01  0.24037703267E+02 -0.32427963127E+02  0.99635692784E+02  0.90999850020E+02 0.  0.
          5    1    3    3  502    0 -0.56939984763E+02  0.16721991486E+02 -0.36598037203E+03  0.37078415820E+03  0.41800000000E+01 0. -1.
         -5    1    3    3    0  502  0.52827248227E+02 -0.40759694754E+02 -0.31443836822E+03  0.32146699781E+03  0.41800000000E+01 0. -1.
        -11    1    4    4    0    0 -0.26494636769E+02  0.12238414654E+02 -0.53291765589E+02  0.60759829249E+02  0.00000000000E+00 0. -1.
         11    1    4    4    0    0  0.30607373304E+02  0.11799288613E+02  0.20863802462E+02  0.38875863535E+02  0.00000000000E+00 0.  1.
</event>
<event>
 8    1  0.6597859E-009  0.9543205E+02  0.7561462E-02  0.1290206E+00
          1   -1    0    0  501    0  0.00000000000E+00  0.00000000000E+00  0.19195125187E+03  0.19195125187E+03  0.00000000000E+00 0. -1.
         -1   -1    0    0    0  501 -0.00000000000E+00 -0.00000000000E+00 -0.10244800966E+03  0.10244800966E+03  0.00000000000E+00 0.  1.
         25    2    1    2    0    0 -0.33457680179E+02  0.53050334320E+02  0.11347709511E+03  0.18016272383E+03  0.12509117318E+03 0.  0.
         23    2    1    2    0    0  0.33457680179E+02 -0.53050334320E+02 -0.23973852901E+02  0.11423653770E+03  0.92420163324E+02 0.  0.
          5    1    3    3  502    0  0.97944178517E+01  0.28188993969E+02 -0.20960331454E+02  0.36706374061E+02  0.41800000000E+01 0. -1.
         -5    1    3    3    0  502 -0.43252098030E+02  0.24861340352E+02  0.13443742656E+03  0.14345634977E+03  0.41800000000E+01 0. -1.
        -11    1    4    4    0    0  0.64892018019E+02 -0.42230115752E+02 -0.95941792003E+01  0.78015414845E+02  0.00000000000E+00 0. -1.
         11    1    4    4    0    0 -0.31434337840E+02 -0.10820218569E+02 -0.14379673701E+02  0.36221122857E+02  0.00000000000E+00 0.  1.
</event>
<event>
 8    1  0.6597859E-009  0.1115079E+03  0.7561462E-02  0.1257803E+00
          1   -1    0    0  501    0  0.00000000000E+00  0.00000000000E+00  0.47710326008E+02  0.47710326008E+02  0.00000000000E+00 0. -1.
         -1   -1    0    0    0  501 -0.00000000000E+00 -0.00000000000E+00 -0.40121106449E+03  0.40121106449E+03  0.00000000000E+00 0.  1.
         25    2    1    2    0    0 -0.31496625343E+02  0.69164127984E+02 -0.25793808977E+03  0.29657231584E+03  0.12508943345E+03 0.  0.
         23    2    1    2    0    0  0.31496625343E+02 -0.69164127984E+02 -0.95562648716E+02  0.15234907466E+03  0.91116994645E+02 0.  0.
          5    1    3    3  502    0 -0.21654623714E+02 -0.33956857417E+02 -0.51018253184E+02  0.65133136358E+02  0.41800000000E+01 0. -1.
         -5    1    3    3    0  502 -0.98420016290E+01  0.10312098540E+03 -0.20691983658E+03  0.23143917948E+03  0.41800000000E+01 0. -1.
        -11    1    4    4    0    0  0.12048124796E+02 -0.50424673412E+02 -0.11008687699E+03  0.12168371084E+03  0.00000000000E+00 0.  1.
         11    1    4    4    0    0  0.19448500548E+02 -0.18739454572E+02  0.14524228272E+02  0.30665363818E+02  0.00000000000E+00 0. -1.
</event>
<event>
 8    1  0.6597859E-009  0.5547588E+02  0.7561462E-02  0.1417862E+00
         -1   -1    0    0    0  501 -0.00000000000E+00  0.00000000000E+00  0.13203803997E+02  0.13203803997E+02  0.00000000000E+00 0.  1.
          1   -1    0    0  501    0  0.00000000000E+00 -0.00000000000E+00 -0.16340629986E+04  0.16340629986E+04  0.00000000000E+00 0. -1.
         25    2    1    2    0    0 -0.60599230387E+01 -0.28798246389E+02 -0.13887066681E+04  0.13946398487E+04  0.12509210900E+03 0.  0.
         23    2    1    2    0    0  0.60599230387E+01  0.28798246389E+02 -0.23215252642E+03  0.25262695388E+03  0.95181514156E+02 0.  0.
          5    1    3    3  502    0  0.14198266454E+02  0.33706580051E+01 -0.12664435654E+04  0.12665345352E+04  0.41800000000E+01 0. -1.
         -5    1    3    3    0  502 -0.20258189493E+02 -0.32168904395E+02 -0.12226310274E+03  0.12810531349E+03  0.41800000000E+01 0. -1.
        -11    1    4    4    0    0 -0.14943807427E+02 -0.66235225235E+01  0.50430855387E+00  0.16353677206E+02  0.00000000000E+00 0.  1.
         11    1    4    4    0    0  0.21003730466E+02  0.35421768913E+02 -0.23265683498E+03  0.23627327667E+03  0.00000000000E+00 0. -1.
</event>
<event>
 8    1  0.6597859E-009  0.1399201E+03  0.7561462E-02  0.1213437E+00
          2   -1    0    0  501    0  0.00000000000E+00  0.00000000000E+00  0.30793327132E+03  0.30793327132E+03  0.00000000000E+00 0. -1.
         -2   -1    0    0    0  501 -0.00000000000E+00 -0.00000000000E+00 -0.70598182863E+02  0.70598182863E+02  0.00000000000E+00 0.  1.
         25    2    1    2    0    0 -0.75684274108E+02 -0.60542826811E+02  0.10016041968E+03  0.18728128971E+03  0.12509447861E+03 0.  0.
         23    2    1    2    0    0  0.75684274108E+02  0.60542826811E+02  0.13717466877E+03  0.19125016447E+03  0.91466892548E+02 0.  0.
          5    1    3    3  502    0 -0.10824653370E+02  0.34250821783E+02  0.50412467489E+02  0.62041769733E+02  0.41800000000E+01 0.  1.
         -5    1    3    3    0  502 -0.64859620738E+02 -0.94793648594E+02  0.49747952194E+02  0.12523951997E+03  0.41800000000E+01 0.  1.
        -11    1    4    4    0    0  0.49872658458E+02  0.81463043053E+02  0.12139729806E+03  0.15446945789E+03  0.00000000000E+00 0. -1.
         11    1    4    4    0    0  0.25811615649E+02 -0.20920216242E+02  0.15777370715E+02  0.36780706582E+02  0.00000000000E+00 0.  1.
</event>
<event>
 8    1  0.6597859E-009  0.1206906E+03  0.7561462E-02  0.1241962E+00
         -2   -1    0    0    0  501 -0.00000000000E+00  0.00000000000E+00  0.50288345592E+02  0.50288345592E+02  0.00000000000E+00 0.  1.
          2   -1    0    0  501    0  0.00000000000E+00 -0.00000000000E+00 -0.31278499104E+03  0.31278499104E+03  0.00000000000E+00 0. -1.
         25    2    1    2    0    0 -0.61349945079E+02  0.12476951460E+01 -0.16767455550E+03  0.21800421759E+03  0.12508281185E+03 0.  0.
         23    2    1    2    0    0  0.61349945079E+02 -0.12476951460E+01 -0.94822089951E+02  0.14506911905E+03  0.91040914177E+02 0.  0.
          5    1    3    3  502    0 -0.78285888416E+02 -0.42171013087E+02 -0.85431983422E+02  0.12338221453E+03  0.41800000000E+01 0. -1.
         -5    1    3    3    0  502  0.16935943337E+02  0.43418708233E+02 -0.82242572076E+02  0.94622003060E+02  0.41800000000E+01 0. -1.
        -11    1    4    4    0    0 -0.83008635650E+01 -0.29321345884E+02 -0.47081201821E+02  0.56082842521E+02  0.00000000000E+00 0. -1.
         11    1    4    4    0    0  0.69650808644E+02  0.28073650738E+02 -0.47740888130E+02  0.88986276526E+02  0.00000000000E+00 0.  1.
</event>
<event>
 8    1  0.6597859E-009  0.1294758E+03  0.7561462E-02  0.1228236E+00
          1   -1    0    0  501    0  0.00000000000E+00  0.00000000000E+00  0.56123583526E+03  0.56123583526E+03  0.00000000000E+00 0. -1.
         -1   -1    0    0    0  501 -0.00000000000E+00 -0.00000000000E+00 -0.41319414519E+02  0.41319414519E+02  0.00000000000E+00 0.  1.
         25    2    1    2    0    0  0.97244305197E+02  0.14259045090E+02  0.38192792079E+03  0.41373443939E+03  0.12508986530E+03 0.  0.
         23    2    1    2    0    0 -0.97244305197E+02 -0.14259045090E+02  0.13798849995E+03  0.18882081039E+03  0.83382834303E+02 0.  0.
          5    1    3    3  502    0  0.20557088238E+02  0.63705605712E+02  0.14320897056E+03  0.15813690184E+03  0.41800000000E+01 0. -1.
         -5    1    3    3    0  502  0.76687216959E+02 -0.49446560622E+02  0.23871895024E+03  0.25559753755E+03  0.41800000000E+01 0. -1.
        -11    1    4    4    0    0 -0.65831279454E+02  0.49622361797E+00  0.24664960174E+02  0.70301947717E+02  0.00000000000E+00 0.  1.
         11    1    4    4    0    0 -0.31413025743E+02 -0.14755268708E+02  0.11332353978E+03  0.11851886267E+03  0.00000000000E+00 0. -1.
</event>
<event>
 8    1  0.6597859E-009  0.1458781E+03  0.7561462E-02  0.1205631E+00
         -1   -1    0    0    0  501 -0.00000000000E+00  0.00000000000E+00  0.19266804922E+03  0.19266804922E+03  0.00000000000E+00 0.  1.
          1   -1    0    0  501    0  0.00000000000E+00 -0.00000000000E+00 -0.15679997074E+03  0.15679997074E+03  0.00000000000E+00 0. -1.
         25    2    1    2    0    0 -0.11963088941E+03 -0.31130001926E+02 -0.37174145824E+02  0.17974997452E+03  0.12509000560E+03 0.  0.
         23    2    1    2    0    0  0.11963088941E+03  0.31130001926E+02  0.73042224306E+02  0.16971804544E+03  0.90489898314E+02 0.  0.
          5    1    3    3  502    0 -0.99375133244E+02  0.22969895533E+02 -0.58942262190E+02  0.11787576460E+03  0.41800000000E+01 0. -1.
         -5    1    3    3    0  502 -0.20255756162E+02 -0.54099897458E+02  0.21768116365E+02  0.61874209917E+02  0.41800000000E+01 0. -1.
        -11    1    4    4    0    0  0.24835292010E+02 -0.12033124579E+02  0.58324087496E+02  0.64523538330E+02  0.00000000000E+00 0.  1.
         11    1    4    4    0    0  0.94795597396E+02  0.43163126505E+02  0.14718136810E+02  0.10519450711E+03  0.00000000000E+00 0. -1.
</event>
<event>
 7    1  0.6597859E-009  0.1008583E+03  0.7561462E-02  0.1278501E+00
          1   -1    0    0  501    0  0.00000000000E+00  0.00000000000E+00  0.35819424060E+02  0.35819424060E+02  0.00000000000E+00 0. -1.
         -1   -1    0    0    0  501 -0.00000000000E+00 -0.00000000000E+00 -0.35633804002E+03  0.35633804002E+03  0.00000000000E+00 0.  1.
         23    2    1    2    0    0  0.25807484977E+02 -0.21235417584E+02 -0.16096644500E+03  0.18673437950E+03  0.88558245418E+02 0.  0.
          5    1    1    2  502    0  0.35319415194E+02  0.37296499423E+02 -0.26246275529E+02  0.57834499548E+02  0.41800000000E+01 0.  1.
         -5    1    1    2    0  502 -0.61126900171E+02 -0.16061081839E+02 -0.13330589542E+03  0.14758858502E+03  0.41800000000E+01 0.  1.
        -11    1    3    3    0    0 -0.16474844135E+02  0.21258228781E+02 -0.89509466625E+02  0.93462705908E+02  0.00000000000E+00 0.  1.
         11    1    3    3    0    0  0.42282329112E+02 -0.42493646366E+02 -0.71456978377E+02  0.93271673596E+02  0.00000000000E+00 0. -1.
</event>
<event>
 8    1  0.6597859E-009  0.2310411E+03  0.7561462E-02  0.1125909E+00
         -1   -1    0    0    0  501 -0.00000000000E+00  0.00000000000E+00  0.29268734722E+03  0.29268734722E+03  0.00000000000E+00 0.  1.
          1   -1    0    0  501    0  0.00000000000E+00 -0.00000000000E+00 -0.21949661986E+03  0.21949661986E+03  0.00000000000E+00 0. -1.
         25    2    1    2    0    0 -0.13664866213E+03 -0.16225044687E+03 -0.47810196666E+02  0.25085983934E+03  0.12508708853E+03 0.  0.
         23    2    1    2    0    0  0.13664866213E+03  0.16225044687E+03  0.12100092402E+03  0.26132412774E+03  0.93010815251E+02 0.  0.
          5    1    3    3  502    0 -0.12577225300E+03 -0.17542428427E+03 -0.18508241924E+02  0.21668494769E+03  0.41800000000E+01 0. -1.
         -5    1    3    3    0  502 -0.10876409127E+02  0.13173837401E+02 -0.29301954741E+02  0.34174891646E+02  0.41800000000E+01 0. -1.
        -11    1    4    4    0    0  0.54308159693E+02  0.12869830290E+03  0.53066748873E+02  0.14942793987E+03  0.00000000000E+00 0.  1.
         11    1    4    4    0    0  0.82340502435E+02  0.33552143972E+02  0.67934175151E+02  0.11189618787E+03  0.00000000000E+00 0. -1.
</event>
<event>
 8    1  0.6597859E-009  0.1006117E+03  0.7561462E-02  0.1279015E+00
          1   -1    0    0  501    0  0.00000000000E+00  0.00000000000E+00  0.23867067369E+03  0.23867067369E+03  0.00000000000E+00 0. -1.
         -1   -1    0    0    0  501 -0.00000000000E+00 -0.00000000000E+00 -0.49982242495E+02  0.49982242495E+02  0.00000000000E+00 0.  1.
         25    2    1    2    0    0  0.93300594364E+01 -0.85765983888E+01  0.96653337225E+02  0.15858467652E+03  0.12508646601E+03 0.  0.
         23    2    1    2    0    0 -0.93300594364E+01  0.85765983888E+01  0.92035093969E+02  0.13006823967E+03  0.91031205635E+02 0.  0.
          5    1    3    3  502    0 -0.55004387301E+02  0.10632244592E+01  0.21795317697E+02  0.59322182546E+02  0.41800000000E+01 0. -1.
         -5    1    3    3    0  502  0.64334446737E+02 -0.96398228480E+01  0.74858019528E+02  0.99262493970E+02  0.41800000000E+01 0. -1.
        -11    1    4    4    0    0  0.10874822404E+00 -0.35645259611E+02  0.11057528234E+02  0.37321110508E+02  0.00000000000E+00 0.  1.
         11    1    4    4    0    0 -0.94388076604E+01  0.44221857999E+02  0.80977565736E+02  0.92747129160E+02  0.00000000000E+00 0. -1.
</event>
<event>
 8    1  0.6597859E-009  0.7606731E+02  0.7561462E-02  0.1340597E+00
          1   -1    0    0  501    0  0.00000000000E+00  0.00000000000E+00  0.44832852341E+03  0.44832852341E+03  0.00000000000E+00 0. -1.
         -1   -1    0    0    0  501 -0.00000000000E+00 -0.00000000000E+00 -0.34213008852E+02  0.34213008852E+02  0.00000000000E+00 0.  1.
         25    2    1    2    0    0  0.48136462681E+02 -0.17944062544E+02  0.17591149445E+03  0.22188010616E+03  0.12508724638E+03 0.  0.
         23    2    1    2    0    0 -0.48136462681E+02  0.17944062544E+02  0.23820402011E+03  0.26066142611E+03  0.92542506147E+02 0.  0.
          5    1    3    3  502    0  0.25457250637E+02 -0.50855080420E+01 -0.14240873082E+02  0.29903325370E+02  0.41800000000E+01 0. -1.
         -5    1    3    3    0  502  0.22679212044E+02 -0.12858554502E+02  0.19015236753E+03  0.19197678079E+03  0.41800000000E+01 0. -1.
        -11    1    4    4    0    0 -0.72793376099E+01  0.48104890455E+02  0.16150315205E+03  0.16867227800E+03  0.00000000000E+00 0. -1.
         11    1    4    4    0    0 -0.40857125071E+02 -0.30160827912E+02  0.76700868056E+02  0.91989148110E+02  0.00000000000E+00 0.  1.
</event>
<event>
 8    1  0.6597859E-009  0.2262965E+03  0.7561462E-02  0.1129274E+00
          1   -1    0    0  501    0  0.00000000000E+00  0.00000000000E+00  0.11461890346E+03  0.11461890346E+03  0.00000000000E+00 0. -1.
         -1   -1    0    0    0  501 -0.00000000000E+00 -0.00000000000E+00 -0.46796745185E+03  0.46796745185E+03  0.00000000000E+00 0.  1.
         25    2    1    2    0    0 -0.18518190027E+03 -0.85035644385E+02 -0.21309732288E+03  0.32028298694E+03  0.12508927093E+03 0.  0.
         23    2    1    2    0    0  0.18518190027E+03  0.85035644385E+02 -0.14025122551E+03  0.26230336838E+03  0.87231036930E+02 0.  0.
          5    1    3    3  502    0 -0.20377567346E+03 -0.74036499632E+02 -0.19753593437E+03  0.29333231349E+03  0.41800000000E+01 0. -1.
         -5    1    3    3    0  502  0.18593773192E+02 -0.10999144753E+02 -0.15561388510E+02  0.26950673446E+02  0.41800000000E+01 0. -1.
        -11    1    4    4    0    0  0.11921497930E+03  0.87256369485E+02 -0.62764704484E+02  0.16051571086E+03  0.00000000000E+00 0.  1.
         11    1    4    4    0    0  0.65966920972E+02 -0.22207251003E+01 -0.77486521027E+02  0.10178765752E+03  0.00000000000E+00 0. -1.
</event>
<event>
 8    1  0.6597859E-009  0.3959012E+03  0.7561462E-02  0.1045208E+00
         -1   -1    0    0    0  501 -0.00000000000E+00  0.00000000000E+00  0.26340211197E+03  0.26340211197E+03  0.00000000000E+00 0. -1.
          1   -1    0    0  501    0  0.00000000000E+00 -0.00000000000E+00 -0.71043261222E+03  0.71043261222E+03  0.00000000000E+00 0.  1.
         25    2    1    2    0    0  0.33138566689E+03  0.20476801966E+03 -0.39799046467E+03  0.57077732310E+03  0.12507573903E+03 0.  0.
         23    2    1    2    0    0 -0.33138566689E+03 -0.20476801966E+03 -0.49040035579E+02  0.40305740109E+03  0.91125964396E+02 0.  0.
          5    1    3    3  502    0  0.91518785144E+02  0.92559671293E+02 -0.20579769337E+03  0.24354289926E+03  0.41800000000E+01 0.  1.
         -5    1    3    3    0  502  0.23986688175E+03  0.11220834837E+03 -0.19219277130E+03  0.32723442384E+03  0.41800000000E+01 0.  1.
        -11    1    4    4    0    0 -0.18142195614E+03 -0.15528989748E+03 -0.39843739284E+01  0.23884043557E+03  0.00000000000E+00 0.  1.
         11    1    4    4    0    0 -0.14996371075E+03 -0.49478122180E+02 -0.45055661650E+02  0.16421696552E+03  0.00000000000E+00 0. -1.
</event>
<event>
 8    1  0.6597859E-009  0.1347890E+03  0.7561462E-02  0.1220518E+00
          1   -1    0    0  501    0  0.00000000000E+00  0.00000000000E+00  0.80932755729E+03  0.80932755729E+03  0.00000000000E+00 0. -1.
         -1   -1    0    0    0  501 -0.00000000000E+00 -0.00000000000E+00 -0.36128893246E+02  0.36128893246E+02  0.00000000000E+00 0.  1.
         25    2    1    2    0    0  0.12741310757E+03  0.11574691977E+02  0.43904404849E+03  0.47410495210E+03  0.12509098932E+03 0.  0.
         23    2    1    2    0    0 -0.12741310757E+03 -0.11574691977E+02  0.33415461555E+03  0.37135149844E+03  0.99370794625E+02 0.  0.
          5    1    3    3  502    0  0.34800280932E+02  0.72098977004E+01  0.32547691366E+03  0.32743814058E+03  0.41800000000E+01 0. -1.
         -5    1    3    3    0  502  0.92612826639E+02  0.43647942770E+01  0.11356713483E+03  0.14666681152E+03  0.41800000000E+01 0. -1.
        -11    1    4    4    0    0 -0.12660543955E+03 -0.23722981757E+02  0.33523376282E+03  0.35912865789E+03  0.00000000000E+00 0. -1.
         11    1    4    4    0    0 -0.80766802255E+00  0.12148289779E+02 -0.10791472683E+01  0.12222840546E+02  0.00000000000E+00 0.  1.
</event>
<event>
 8    1  0.6597859E-009  0.1337928E+03  0.7561462E-02  0.1221934E+00
         -2   -1    0    0    0  501 -0.00000000000E+00  0.00000000000E+00  0.32511757427E+02  0.32511757427E+02  0.00000000000E+00 0.  1.
          2   -1    0    0  501    0  0.00000000000E+00 -0.00000000000E+00 -0.71882625402E+03  0.71882625402E+03  0.00000000000E+00 0. -1.
         25    2    1    2    0    0  0.97962922288E+02 -0.38940643644E+02 -0.32449201111E+03  0.36339501415E+03  0.12509101952E+03 0.  0.
         23    2    1    2    0    0 -0.97962922288E+02  0.38940643644E+02 -0.36182248548E+03  0.38794299729E+03  0.92038852012E+02 0.  0.
          5    1    3    3  502    0 -0.98601893195E+01 -0.14249123536E+02  0.26610576051E+01  0.18022610315E+02  0.41800000000E+01 0.  1.
         -5    1    3    3    0  502  0.10782311161E+03 -0.24691520108E+02 -0.32715306872E+03  0.34537240384E+03  0.41800000000E+01 0.  1.
        -11    1    4    4    0    0 -0.11469594559E+03  0.25238199800E+02 -0.28819906218E+03  0.31120865365E+03  0.00000000000E+00 0. -1.
         11    1    4    4    0    0  0.16733023304E+02  0.13702443844E+02 -0.73623423303E+02  0.76734343648E+02  0.00000000000E+00 0.  1.
</event>
<event>
 8    1  0.6597859E-009  0.1764534E+03  0.7561462E-02  0.1171280E+00
         -1   -1    0    0    0  501 -0.00000000000E+00  0.00000000000E+00  0.85693816019E+02  0.85693816019E+02  0.00000000000E+00 0.  1.
          1   -1    0    0  501    0  0.00000000000E+00 -0.00000000000E+00 -0.37248595189E+03  0.37248595189E+03  0.00000000000E+00 0. -1.
         25    2    1    2    0    0 -0.16767414473E+02 -0.13809069291E+03 -0.18173670279E+03  0.26082098288E+03  0.12509664389E+03 0.  0.
         23    2    1    2    0    0  0.16767414473E+02  0.13809069291E+03 -0.10505543308E+03  0.19735878503E+03  0.92540047282E+02 0.  0.
          5    1    3    3  502    0  0.14967735845E+02  0.20015055913E+02 -0.31029273500E+02  0.40061500140E+02  0.41800000000E+01 0. -1.
         -5    1    3    3    0  502 -0.31735150317E+02 -0.15810574882E+03 -0.15070742929E+03  0.22075948274E+03  0.41800000000E+01 0. -1.
        -11    1    4    4    0    0 -0.11789981783E+02  0.13717574042E+03 -0.94061602524E+02  0.16674463259E+03  0.00000000000E+00 0. -1.
         11    1    4    4    0    0  0.28557396256E+02  0.91495249543E+00 -0.10993830553E+02  0.30614152433E+02  0.00000000000E+00 0.  1.
</event>
<event>
 8    1  0.6597859E-009  0.1200885E+03  0.7561462E-02  0.1242951E+00
          2   -1    0    0  501    0  0.00000000000E+00  0.00000000000E+00  0.91162668258E+02  0.91162668258E+02  0.00000000000E+00 0. -1.
         -2   -1    0    0    0  501 -0.00000000000E+00 -0.00000000000E+00 -0.26484162181E+03  0.26484162181E+03  0.00000000000E+00 0.  1.
         25    2    1    2    0    0  0.84424972218E+02 -0.11629053699E+02 -0.79552225042E+01  0.15156993764E+03  0.12508936648E+03 0.  0.
         23    2    1    2    0    0 -0.84424972218E+02  0.11629053699E+02 -0.16572373104E+03  0.20443435242E+03  0.84060921936E+02 0.  0.
          5    1    3    3  502    0 -0.35921611274E+01 -0.52295334531E+02 -0.13739026808E+02  0.54350150808E+02  0.41800000000E+01 0. -1.
         -5    1    3    3    0  502  0.88017133345E+02  0.40666280832E+02  0.57838043039E+01  0.97219786830E+02  0.41800000000E+01 0. -1.
        -11    1    4    4    0    0 -0.45968573746E+02 -0.90946529524E+01 -0.17686814470E+02  0.50086384284E+02  0.00000000000E+00 0. -1.
         11    1    4    4    0    0 -0.38456398472E+02  0.20723706651E+02 -0.14803691657E+03  0.15434796814E+03  0.00000000000E+00 0.  1.
</event>
<event>
 8    1  0.6597859E-009  0.1012422E+03  0.7561462E-02  0.1277705E+00
         -2   -1    0    0    0  501 -0.00000000000E+00  0.00000000000E+00  0.23785936601E+02  0.23785936601E+02  0.00000000000E+00 0.  1.
          2   -1    0    0  501    0  0.00000000000E+00 -0.00000000000E+00 -0.51341581224E+03  0.51341581224E+03  0.00000000000E+00 0. -1.
         25    2    1    2    0    0  0.75579204159E+01 -0.15910659740E+02 -0.23789808287E+03  0.26935323560E+03  0.12508155916E+03 0.  0.
         23    2    1    2    0    0 -0.75579204159E+01  0.15910659740E+02 -0.25173179277E+03  0.26784851325E+03  0.89797880264E+02 0.  0.
          5    1    3    3  502    0 -0.52191188882E+02  0.17722725179E+02 -0.13224497403E+03  0.14333255297E+03  0.41800000000E+01 0. -1.
         -5    1    3    3    0  502  0.59749109298E+02 -0.33633384920E+02 -0.10565310884E+03  0.12602068263E+03  0.41800000000E+01 0. -1.
        -11    1    4    4    0    0  0.23929657008E+02  0.34472566308E+02 -0.20092149743E+03  0.20525699608E+03  0.00000000000E+00 0.  1.
         11    1    4    4    0    0 -0.31487577424E+02 -0.18561906568E+02 -0.50810295347E+02  0.62591517163E+02  0.00000000000E+00 0. -1.
</event>
<event>
 8    1  0.6597859E-009  0.1090232E+03  0.7561462E-02  0.1262390E+00
         -2   -1    0    0    0  501 -0.00000000000E+00  0.00000000000E+00  0.81135552186E+02  0.81135552186E+02  0.00000000000E+00 0.  1.
          2   -1    0    0  501    0  0.00000000000E+00 -0.00000000000E+00 -0.27006279772E+03  0.27006279772E+03  0.00000000000E+00 0. -1.
         25    2    1    2    0    0  0.61584956830E+02 -0.37189514782E+02 -0.18109427689E+02  0.14545413477E+03  0.12511269733E+03 0.  0.
         23    2    1    2    0    0 -0.61584956830E+02  0.37189514782E+02 -0.17081781785E+03  0.20574421514E+03  0.89309508172E+02 0.  0.
          5    1    3    3  502    0  0.85649888098E+01 -0.48410053751E+02  0.41725063118E+02  0.64616914424E+02  0.41800000000E+01 0.  1.
         -5    1    3    3    0  502  0.53019968020E+02  0.11220538969E+02 -0.59834490807E+02  0.80837220349E+02  0.41800000000E+01 0.  1.
        -11    1    4    4    0    0 -0.48769849080E+02  0.66439383576E+02 -0.11589415227E+03  0.14221161837E+03  0.00000000000E+00 0. -1.
         11    1    4    4    0    0 -0.12815107750E+02 -0.29249868794E+02 -0.54923665584E+02  0.63532596769E+02  0.00000000000E+00 0.  1.
</event>
<event>
 8    1  0.6597859E-009  0.2421692E+03  0.7561462E-02  0.1118356E+00
         -1   -1    0    0    0  501 -0.00000000000E+00  0.00000000000E+00  0.12131312377E+04  0.12131312377E+04  0.00000000000E+00 0.  1.
          1   -1    0    0  501    0  0.00000000000E+00 -0.00000000000E+00 -0.54152078251E+02  0.54152078251E+02  0.00000000000E+00 0. -1.
         25    2    1    2    0    0  0.22253992940E+03  0.50383577491E+02  0.70503243602E+03  0.75151927596E+03  0.12509181123E+03 0.  0.
         23    2    1    2    0    0 -0.22253992940E+03 -0.50383577491E+02  0.45394672338E+03  0.51576403995E+03  0.88782837152E+02 0.  0.
          5    1    3    3  502    0  0.15892823680E+03 -0.34730408337E+01  0.31742934783E+03  0.35503395574E+03  0.41800000000E+01 0.  1.
         -5    1    3    3    0  502  0.63611692604E+02  0.53856618325E+02  0.38760308820E+03  0.39648532022E+03  0.41800000000E+01 0.  1.
        -11    1    4    4    0    0 -0.28230802764E+02  0.20650896188E+02  0.98068367436E+02  0.10411936626E+03  0.00000000000E+00 0.  1.
         11    1    4    4    0    0 -0.19430912664E+03 -0.71034473679E+02  0.35587835595E+03  0.41164467369E+03  0.00000000000E+00 0. -1.
</event>
<event>
 8    1  0.6597859E-009  0.1155826E+03  0.7561462E-02  0.1250568E+00
         -1   -1    0    0    0  501 -0.00000000000E+00  0.00000000000E+00  0.29019320575E+03  0.29019320575E+03  0.00000000000E+00 0.  1.
          1   -1    0    0  501    0  0.00000000000E+00 -0.00000000000E+00 -0.62710624994E+02  0.62710624994E+02  0.00000000000E+00 0. -1.
         25    2    1    2    0    0  0.58304311804E+02 -0.37227966704E+02  0.18257928970E+03  0.23188031176E+03  0.12509183697E+03 0.  0.
         23    2    1    2    0    0 -0.58304311804E+02  0.37227966704E+02  0.44903291056E+02  0.12102351898E+03  0.88572412856E+02 0.  0.
          5    1    3    3  502    0 -0.55262109973E+01  0.41127319454E+02  0.49652860628E+02  0.64845002753E+02  0.41800000000E+01 0. -1.
         -5    1    3    3    0  502  0.63830522802E+02 -0.78355286158E+02  0.13292642907E+03  0.16703530901E+03  0.41800000000E+01 0. -1.
        -11    1    4    4    0    0 -0.67698811039E+02  0.23476276811E+02  0.63725090469E+02  0.95891353856E+02  0.00000000000E+00 0.  1.
         11    1    4    4    0    0  0.93944992349E+01  0.13751689892E+02 -0.18821799413E+02  0.25132165125E+02  0.00000000000E+00 0. -1.
</event>
<event>
 8    1  0.6597859E-009  0.2582856E+03  0.7561462E-02  0.1108178E+00
         -3   -1    0    0    0  501 -0.00000000000E+00  0.00000000000E+00  0.49217987686E+03  0.49217987686E+03  0.00000000000E+00 0.  1.
          3   -1    0    0  501    0  0.00000000000E+00 -0.00000000000E+00 -0.16868623998E+03  0.16868623998E+03  0.00000000000E+00 0. -1.
         25    2    1    2    0    0  0.24047462490E+03  0.41461094642E+02  0.28856909916E+03  0.39808177883E+03  0.12509960055E+03 0.  0.
         23    2    1    2    0    0 -0.24047462490E+03 -0.41461094642E+02  0.34924537725E+02  0.26278433801E+03  0.91042942506E+02 0.  0.
          5    1    3    3  502    0  0.11003252310E+03  0.65201378479E+02  0.80043253819E+02  0.15093962627E+03  0.41800000000E+01 0.  1.
         -5    1    3    3    0  502  0.13044210180E+03 -0.23740283837E+02  0.20852584534E+03  0.24714215256E+03  0.41800000000E+01 0.  1.
        -11    1    4    4    0    0 -0.16101238910E+03 -0.64139524584E+02  0.63762434820E+00  0.17331841974E+03  0.00000000000E+00 0. -1.
         11    1    4    4    0    0 -0.79462235800E+02  0.22678429942E+02  0.34286913377E+02  0.89465918270E+02  0.00000000000E+00 0.  1.
</event>
<event>
 8    1  0.6597859E-009  0.1412595E+03  0.7561462E-02  0.1211644E+00
         -2   -1    0    0    0  501 -0.00000000000E+00  0.00000000000E+00  0.77103312631E+03  0.77103312631E+03  0.00000000000E+00 0.  1.
          2   -1    0    0  501    0  0.00000000000E+00 -0.00000000000E+00 -0.43216092058E+02  0.43216092058E+02  0.00000000000E+00 0. -1.
         25    2    1    2    0    0  0.29318931761E+02  0.11224909309E+03  0.17883827241E+03  0.24716658317E+03  0.12509489797E+03 0.  0.
         23    2    1    2    0    0 -0.29318931761E+02 -0.11224909309E+03  0.54897876184E+03  0.56708263519E+03  0.82131452748E+02 0.  0.
          5    1    3    3  502    0  0.20155777706E+02  0.13074455984E+03  0.10088908281E+03  0.16642257880E+03  0.41800000000E+01 0. -1.
         -5    1    3    3    0  502  0.91631540546E+01 -0.18495466754E+02  0.77949189603E+02  0.80744004374E+02  0.41800000000E+01 0. -1.
        -11    1    4    4    0    0 -0.45550248053E+02 -0.95356005888E+02  0.51550518263E+03  0.52622541394E+03  0.00000000000E+00 0.  1.
         11    1    4    4    0    0  0.16231316292E+02 -0.16893087201E+02  0.33473579211E+02  0.40857221258E+02  0.00000000000E+00 0. -1.
</event>
<event>
 8    1  0.6597859E-009  0.6924596E+02  0.7561462E-02  0.1362676E+00
          3   -1    0    0  501    0  0.00000000000E+00  0.00000000000E+00  0.19948496664E+02  0.19948496664E+02  0.00000000000E+00 0. -1.
         -3   -1    0    0    0  501 -0.00000000000E+00 -0.00000000000E+00 -0.70047914275E+03  0.70047914275E+03  0.00000000000E+00 0.  1.
         25    2    1    2    0    0 -0.43614009709E+02  0.15495489603E+02 -0.41435849314E+03  0.43530167187E+03  0.12510912299E+03 0.  0.
         23    2    1    2    0    0  0.43614009709E+02 -0.15495489603E+02 -0.26617215294E+03  0.28512596754E+03  0.91142253226E+02 0.  0.
          5    1    3    3  502    0 -0.35283394676E+02  0.18484970536E+02 -0.28114626460E+02  0.48933799123E+02  0.41800000000E+01 0. -1.
         -5    1    3    3    0  502 -0.83306150329E+01 -0.29894809331E+01 -0.38624386668E+03  0.38636787275E+03  0.41800000000E+01 0. -1.
        -11    1    4    4    0    0 -0.41512923815E+01 -0.36311969307E+02 -0.18567029885E+03  0.18923332745E+03  0.00000000000E+00 0. -1.
         11    1    4    4    0    0  0.47765302091E+02  0.20816479704E+02 -0.80501854097E+02  0.95892640094E+02  0.00000000000E+00 0.  1.
</event>
<event>
 8    1  0.6597859E-009  0.9600031E+02  0.7561462E-02  0.1288939E+00
         -2   -1    0    0    0  501 -0.00000000000E+00  0.00000000000E+00  0.70042184543E+02  0.70042184543E+02  0.00000000000E+00 0.  1.
          2   -1    0    0  501    0  0.00000000000E+00 -0.00000000000E+00 -0.23486574585E+03  0.23486574585E+03  0.00000000000E+00 0. -1.
         25    2    1    2    0    0  0.31717065079E+02  0.37737603898E+02 -0.37217013049E+02  0.13950815984E+03  0.12508925468E+03 0.  0.
         23    2    1    2    0    0 -0.31717065079E+02 -0.37737603898E+02 -0.12760654826E+03  0.16539977056E+03  0.92970715694E+02 0.  0.
          5    1    3    3  502    0 -0.23576460261E+02  0.53143596009E+01 -0.65036699361E+02  0.69507816540E+02  0.41800000000E+01 0. -1.
         -5    1    3    3    0  502  0.55293525340E+02  0.32423244297E+02  0.27819686312E+02  0.70000343297E+02  0.41800000000E+01 0. -1.
        -11    1    4    4    0    0 -0.15887568568E+01  0.29508965984E+02 -0.23010024936E+02  0.37453497425E+02  0.00000000000E+00 0.  1.
         11    1    4    4    0    0 -0.30128308222E+02 -0.67246569882E+02 -0.10459652332E+03  0.12794627313E+03  0.00000000000E+00 0. -1.
</event>
<event>
 8    1  0.6597859E-009  0.2156540E+03  0.7561462E-02  0.1137165E+00
          2   -1    0    0  501    0  0.00000000000E+00  0.00000000000E+00  0.65230329550E+03  0.65230329550E+03  0.00000000000E+00 0. -1.
         -2   -1    0    0    0  501 -0.00000000000E+00 -0.00000000000E+00 -0.76456421103E+02  0.76456421103E+02  0.00000000000E+00 0.  1.
         25    2    1    2    0    0  0.17257972949E+03 -0.90279921743E+02  0.31185036539E+03  0.38837615493E+03  0.12510459635E+03 0.  0.
         23    2    1    2    0    0 -0.17257972949E+03  0.90279921743E+02  0.26399650901E+03  0.34038356167E+03  0.90733593471E+02 0.  0.
          5    1    3    3  502    0  0.18415844848E+03 -0.81798480756E+02  0.31415469911E+03  0.37325054987E+03  0.41800000000E+01 0.  1.
         -5    1    3    3    0  502 -0.11578718993E+02 -0.84814409861E+01 -0.23043337251E+01  0.15125605066E+02  0.41800000000E+01 0.  1.
        -11    1    4    4    0    0 -0.42153539747E+02 -0.17470166978E+02  0.52921544960E+02  0.69877160563E+02  0.00000000000E+00 0. -1.
         11    1    4    4    0    0 -0.13042618974E+03  0.10775008872E+03  0.21107496405E+03  0.27050640111E+03  0.00000000000E+00 0.  1.
</event>
<event>
 8    1  0.6597859E-009  0.9073528E+02  0.7561462E-02  0.1301081E+00
         -1   -1    0    0    0  501 -0.00000000000E+00  0.00000000000E+00  0.92682140887E+02  0.92682140887E+02  0.00000000000E+00 0.  1.
          1   -1    0    0  501    0  0.00000000000E+00 -0.00000000000E+00 -0.20763482542E+03  0.20763482542E+03  0.00000000000E+00 0. -1.
         25    2    1    2    0    0 -0.68737401409E+02 -0.22112014423E+02 -0.11670842271E+03  0.18569425162E+03  0.12509087744E+03 0.  0.
         23    2    1    2    0    0  0.68737401409E+02  0.22112014423E+02  0.17557381743E+01  0.11462271469E+03  0.89002879578E+02 0.  0.
          5    1    3    3  502    0 -0.30735458291E+02  0.32315654218E+01  0.22934248083E+02  0.38711284486E+02  0.41800000000E+01 0. -1.
         -5    1    3    3    0  502 -0.38001943118E+02 -0.25343579845E+02 -0.13964267079E+03  0.14698296713E+03  0.41800000000E+01 0. -1.
        -11    1    4    4    0    0  0.18540968185E+02 -0.27938142774E+02  0.22955058007E+02  0.40635477246E+02  0.00000000000E+00 0.  1.
         11    1    4    4    0    0  0.50196433223E+02  0.50050157197E+02 -0.21199319833E+02  0.73987237448E+02  0.00000000000E+00 0. -1.
</event>
<event>
 8    1  0.6597859E-009  0.1281040E+03  0.7561462E-02  0.1230296E+00
         -2   -1    0    0    0  501 -0.00000000000E+00  0.00000000000E+00  0.22274193272E+02  0.22274193272E+02  0.00000000000E+00 0.  1.
          2   -1    0    0  501    0  0.00000000000E+00 -0.00000000000E+00 -0.83168057253E+03  0.83168057253E+03  0.00000000000E+00 0. -1.
         25    2    1    2    0    0  0.49279700603E+02  0.61147859531E+02 -0.50559287505E+03  0.52672586972E+03  0.12509371253E+03 0.  0.
         23    2    1    2    0    0 -0.49279700603E+02 -0.61147859531E+02 -0.30381350420E+03  0.32722889608E+03  0.92782301521E+02 0.  0.
          5    1    3    3  502    0  0.80604259974E+02  0.77652467028E+02 -0.37768454771E+03  0.39394167378E+03  0.41800000000E+01 0.  1.
         -5    1    3    3    0  502 -0.31324559372E+02 -0.16504607497E+02 -0.12790832734E+03  0.13278419594E+03  0.41800000000E+01 0.  1.
        -11    1    4    4    0    0 -0.34500225599E+02 -0.78508152501E+02 -0.28514739222E+03  0.29776304483E+03  0.00000000000E+00 0. -1.
         11    1    4    4    0    0 -0.14779475003E+02  0.17360292970E+02 -0.18666111988E+02  0.29465851254E+02  0.00000000000E+00 0.  1.
</event>
<event>
 8    1  0.6597859E-009  0.1136092E+03  0.7561462E-02  0.1254028E+00
         -2   -1    0    0    0  501 -0.00000000000E+00  0.00000000000E+00  0.34926410021E+02  0.34926410021E+02  0.00000000000E+00 0.  1.
          2   -1    0    0  501    0  0.00000000000E+00 -0.00000000000E+00 -0.50987893451E+03  0.50987893451E+03  0.00000000000E+00 0. -1.
         25    2    1    2    0    0  0.71923472428E+02  0.29394874110E+02 -0.23193708458E+03  0.27473391585E+03  0.12508744464E+03 0.  0.
         23    2    1    2    0    0 -0.71923472428E+02 -0.29394874110E+02 -0.24301543991E+03  0.27007142868E+03  0.88572162918E+02 0.  0.
          5    1    3    3  502    0  0.42379377303E+02 -0.36129947040E+02 -0.37171166570E+02  0.67086158914E+02  0.41800000000E+01 0. -1.
         -5    1    3    3    0  502  0.29544095125E+02  0.65524821150E+02 -0.19476591801E+03  0.20764775694E+03  0.41800000000E+01 0. -1.
        -11    1    4    4    0    0 -0.36238737230E+02  0.17663703923E+02 -0.17682995042E+03  0.18136726242E+03  0.00000000000E+00 0. -1.
         11    1    4    4    0    0 -0.35684735198E+02 -0.47058578033E+02 -0.66185489493E+02  0.88704166261E+02  0.00000000000E+00 0.  1.
</event>
<event>
 8    1  0.6597859E-009  0.1360100E+03  0.7561462E-02  0.1218801E+00
          1   -1    0    0  501    0  0.00000000000E+00  0.00000000000E+00  0.75359115427E+02  0.75359115427E+02  0.00000000000E+00 0. -1.
         -1   -1    0    0    0  501 -0.00000000000E+00 -0.00000000000E+00 -0.33716710082E+03  0.33716710082E+03  0.00000000000E+00 0.  1.
         25    2    1    2    0    0  0.10992270305E+03  0.13767727684E+02 -0.18803761393E+03  0.25154939325E+03  0.12508557880E+03 0.  0.
         23    2    1    2    0    0 -0.10992270305E+03 -0.13767727684E+02 -0.73770371467E+02  0.16097682299E+03  0.90547881609E+02 0.  0.
          5    1    3    3  502    0  0.12927961150E+03  0.10267782628E+02 -0.19132355546E+03  0.23117270726E+03  0.41800000000E+01 0. -1.
         -5    1    3    3    0  502 -0.19356908455E+02  0.34999450560E+01  0.32859415284E+01  0.20376685993E+02  0.41800000000E+01 0. -1.
        -11    1    4    4    0    0 -0.97880838008E+02  0.70200304599E+01 -0.89043507887E+02  0.13250919052E+03  0.00000000000E+00 0.  1.
         11    1    4    4    0    0 -0.12041865041E+02 -0.20787758144E+02  0.15273136420E+02  0.28467632469E+02  0.00000000000E+00 0. -1.
</event>
<event>
 8    1  0.6597859E-009  0.1289341E+03  0.7561462E-02  0.1229046E+00
          1   -1    0    0  501    0  0.00000000000E+00  0.00000000000E+00  0.38591046497E+02  0.38591046497E+02  0.00000000000E+00 0. -1.
         -1   -1    0    0    0  501 -0.00000000000E+00 -0.00000000000E+00 -0.60834205062E+03  0.60834205062E+03  0.00000000000E+00 0.  1.
         25    2    1    2    0    0 -0.10114608019E+03  0.34157770246E+01 -0.22901234807E+03  0.27988454395E+03  0.12508599163E+03 0.  0.
         23    2    1    2    0    0  0.10114608019E+03 -0.34157770246E+01 -0.34073865605E+03  0.36704855317E+03  0.91540218406E+02 0.  0.
          5    1    3    3  502    0 -0.11027482698E+03  0.31316447221E+02 -0.22127171440E+03  0.24923864333E+03  0.41800000000E+01 0.  1.
         -5    1    3    3    0  502  0.91287467904E+01 -0.27900670197E+02 -0.77406336681E+01  0.30645900623E+02  0.41800000000E+01 0.  1.
        -11    1    4    4    0    0  0.80659314303E+02 -0.24309231219E+02 -0.32070772427E+03  0.33158755724E+03  0.00000000000E+00 0.  1.
         11    1    4    4    0    0  0.20486765885E+02  0.20893454195E+02 -0.20030931780E+02  0.35460995934E+02  0.00000000000E+00 0. -1.
</event>
<event>
 8    1  0.6597859E-009  0.2102940E+03  0.7561462E-02  0.1141333E+00
          2   -1    0    0  501    0  0.00000000000E+00  0.00000000000E+00  0.12109104978E+04  0.12109104978E+04  0.00000000000E+00 0.  1.
         -2   -1    0    0    0  501 -0.00000000000E+00 -0.00000000000E+00 -0.38752327206E+02  0.38752327206E+02  0.00000000000E+00 0. -1.
         25    2    1    2    0    0  0.15537610018E+03 -0.10003840605E+03  0.69542476451E+03  0.73035115052E+03  0.12509110594E+03 0.  0.
         23    2    1    2    0    0 -0.15537610018E+03  0.10003840605E+03  0.47673340608E+03  0.51931167448E+03  0.90887070520E+02 0.  0.
          5    1    3    3  502    0  0.16825663721E+03 -0.64455757938E+02  0.50602122118E+03  0.53715899823E+03  0.41800000000E+01 0.  1.
         -5    1    3    3    0  502 -0.12880537035E+02 -0.35582648112E+02  0.18940354333E+03  0.19319215229E+03  0.41800000000E+01 0.  1.
        -11    1    4    4    0    0 -0.43536987849E+02  0.76464801378E+02  0.16018994892E+03  0.18276530003E+03  0.00000000000E+00 0.  1.
         11    1    4    4    0    0 -0.11183911233E+03  0.23573604671E+02  0.31654345716E+03  0.33654637445E+03  0.00000000000E+00 0. -1.
</event>
<event>
 8    1  0.6597859E-009  0.2636765E+03  0.7561462E-02  0.1104954E+00
          1   -1    0    0  501    0  0.00000000000E+00  0.00000000000E+00  0.80931968650E+03  0.80931968650E+03  0.00000000000E+00 0. -1.
         -1   -1    0    0    0  501 -0.00000000000E+00 -0.00000000000E+00 -0.16159409071E+03  0.16159409071E+03  0.00000000000E+00 0.  1.
         25    2    1    2    0    0 -0.51609983440E+02 -0.25451388332E+03  0.23967488347E+02  0.28924468991E+03  0.12508854045E+03 0.  0.
         23    2    1    2    0    0  0.51609983440E+02  0.25451388332E+03  0.62375810744E+03  0.68166908730E+03  0.90319769638E+02 0.  0.
          5    1    3    3  502    0 -0.11307271931E+02 -0.36388743264E+02 -0.42898681041E+02  0.57530550752E+02  0.41800000000E+01 0. -1.
         -5    1    3    3    0  502 -0.40302711509E+02 -0.21812514006E+03  0.66866169387E+02  0.23171413916E+03  0.41800000000E+01 0. -1.
        -11    1    4    4    0    0  0.15787945132E+02  0.20728564916E+03  0.54344466401E+03  0.58184938120E+03  0.00000000000E+00 0.  1.
         11    1    4    4    0    0  0.35822038308E+02  0.47228234160E+02  0.80313443431E+02  0.99819706102E+02  0.00000000000E+00 0. -1.
</event>
<event>
 8    1  0.6597859E-009  0.1042809E+03  0.7561462E-02  0.1271543E+00
         -2   -1    0    0    0  501 -0.00000000000E+00  0.00000000000E+00  0.15112062693E+02  0.15112062693E+02  0.00000000000E+00 0.  1.
          2   -1    0    0  501    0  0.00000000000E+00 -0.00000000000E+00 -0.13063609647E+04  0.13063609647E+04  0.00000000000E+00 0. -1.
         25    2    1    2    0    0 -0.27304623061E+02 -0.54385819470E+02 -0.10094845136E+04  0.10190226592E+04  0.12507932228E+03 0.  0.
         23    2    1    2    0    0  0.27304623061E+02  0.54385819470E+02 -0.28176438839E+03  0.30245036823E+03  0.91551596798E+02 0.  0.
          5    1    3    3  502    0 -0.18369407854E+02  0.26611123846E+02 -0.86539031968E+02  0.92477367562E+02  0.41800000000E+01 0. -1.
         -5    1    3    3    0  502 -0.89352152071E+01 -0.80996943316E+02 -0.92294548168E+03  0.92654529164E+03  0.41800000000E+01 0. -1.
        -11    1    4    4    0    0  0.30971415263E+02 -0.79039811113E+01 -0.32852000367E+02  0.45836180130E+02  0.00000000000E+00 0.  1.
         11    1    4    4    0    0 -0.36667922021E+01  0.62289800582E+02 -0.24891238802E+03  0.25661418810E+03  0.00000000000E+00 0. -1.
</event>
<event>
 8    1  0.6597859E-009  0.2337868E+03  0.7561462E-02  0.1124002E+00
         -2   -1    0    0    0  501 -0.00000000000E+00  0.00000000000E+00  0.18256090851E+03  0.18256090851E+03  0.00000000000E+00 0.  1.
          2   -1    0    0  501    0  0.00000000000E+00 -0.00000000000E+00 -0.59934368610E+03  0.59934368610E+03  0.00000000000E+00 0. -1.
         25    2    1    2    0    0  0.20442444041E+03  0.72174874676E+02 -0.47713396922E+03  0.53879743344E+03  0.12508910951E+03 0.  0.
         23    2    1    2    0    0 -0.20442444041E+03 -0.72174874676E+02  0.60351191639E+02  0.24310716117E+03  0.91979677682E+02 0.  0.
          5    1    3    3  502    0  0.71128370764E+01  0.49580120725E+02 -0.75128340664E+02  0.90390933136E+02  0.41800000000E+01 0.  1.
         -5    1    3    3    0  502  0.19731160334E+03  0.22594753951E+02 -0.40200562856E+03  0.44840650030E+03  0.41800000000E+01 0.  1.
        -11    1    4    4    0    0 -0.13443402164E+03 -0.61625163465E+02  0.81988834944E+02  0.16909268465E+03  0.00000000000E+00 0.  1.
         11    1    4    4    0    0 -0.69990418773E+02 -0.10549711211E+02 -0.21637643305E+02  0.74014476520E+02  0.00000000000E+00 0. -1.
</event>
<event>
 8    1  0.6597859E-009  0.1280176E+03  0.7561462E-02  0.1230427E+00
          3   -1    0    0  501    0  0.00000000000E+00  0.00000000000E+00  0.28054058815E+03  0.28054058815E+03  0.00000000000E+00 0. -1.
         -3   -1    0    0    0  501 -0.00000000000E+00 -0.00000000000E+00 -0.74707068754E+02  0.74707068754E+02  0.00000000000E+00 0.  1.
         25    2    1    2    0    0  0.78531034102E+02  0.37134389469E+02  0.61761796963E+02  0.16434091832E+03  0.12508929479E+03 0.  0.
         23    2    1    2    0    0 -0.78531034102E+02 -0.37134389469E+02  0.14407172244E+03  0.19090673859E+03  0.90236552654E+02 0.  0.
          5    1    3    3  502    0 -0.33454711185E+02  0.10135377744E+02  0.40708932857E+01  0.35439923174E+02  0.41800000000E+01 0.  1.
         -5    1    3    3    0  502  0.11198574529E+03  0.26999011726E+02  0.57690903678E+02  0.12890099514E+03  0.41800000000E+01 0.  1.
        -11    1    4    4    0    0 -0.38285702360E+02 -0.50302383464E+02  0.31488152489E+02  0.70623144468E+02  0.00000000000E+00 0.  1.
         11    1    4    4    0    0 -0.40245331743E+02  0.13167993995E+02  0.11258356995E+03  0.12028359412E+03  0.00000000000E+00 0. -1.
</event>
<event>
 8    1  0.6597859E-009  0.2316578E+03  0.7561462E-02  0.1125478E+00
          2   -1    0    0  501    0  0.00000000000E+00  0.00000000000E+00  0.14043425018E+03  0.14043425018E+03  0.00000000000E+00 0. -1.
         -2   -1    0    0    0  501 -0.00000000000E+00 -0.00000000000E+00 -0.56389242824E+03  0.56389242824E+03  0.00000000000E+00 0.  1.
         25    2    1    2    0    0  0.18180498583E+03 -0.11917350494E+03 -0.39331586395E+03  0.46647632379E+03  0.12508962656E+03 0.  0.
         23    2    1    2    0    0 -0.18180498583E+03  0.11917350494E+03 -0.30142314115E+02  0.23785035464E+03  0.91699808903E+02 0.  0.
          5    1    3    3  502    0  0.58962425178E+02 -0.87734542232E+02 -0.94532375338E+02  0.14187233652E+03  0.41800000000E+01 0.  1.
         -5    1    3    3    0  502  0.12284256065E+03 -0.31438962703E+02 -0.29878348861E+03  0.32460398726E+03  0.41800000000E+01 0.  1.
        -11    1    4    4    0    0 -0.17948838867E+03  0.88908212284E+02 -0.43033977486E+02  0.20487233854E+03  0.00000000000E+00 0.  1.
         11    1    4    4    0    0 -0.23165971538E+01  0.30265292651E+02  0.12891663371E+02  0.32978016103E+02  0.00000000000E+00 0. -1.
</event>
<event>
 8    1  0.6597859E-009  0.9914677E+02  0.7561462E-02  0.1282100E+00
         -4   -1    0    0    0  501 -0.00000000000E+00  0.00000000000E+00  0.16004985111E+03  0.16004985111E+03  0.00000000000E+00 0.  1.
          4   -1    0    0  501    0  0.00000000000E+00 -0.00000000000E+00 -0.11157932900E+03  0.11157932900E+03  0.00000000000E+00 0. -1.
         25    2    1    2    0    0  0.60813863437E+02  0.14239878746E+02 -0.19286593578E+02  0.14114004657E+03  0.12508972748E+03 0.  0.
         23    2    1    2    0    0 -0.60813863437E+02 -0.14239878746E+02  0.67757115691E+02  0.13048913355E+03  0.92386617617E+02 0.  0.
          5    1    3    3  502    0 -0.22821452340E+02  0.20413052299E+02 -0.43858027547E+02  0.53651750869E+02  0.41800000000E+01 0.  1.
         -5    1    3    3    0  502  0.83635315777E+02 -0.61731735530E+01  0.24571433968E+02  0.87488295698E+02  0.41800000000E+01 0.  1.
        -11    1    4    4    0    0 -0.63278820534E+02  0.55122389391E+01  0.83639110152E+02  0.10502425745E+03  0.00000000000E+00 0.  1.
         11    1    4    4    0    0  0.24649570968E+01 -0.19752117685E+02 -0.15881994461E+02  0.25464876096E+02  0.00000000000E+00 0. -1.
</event>
<event>
 8    1  0.6597859E-009  0.1178542E+03  0.7561462E-02  0.1246679E+00
         -2   -1    0    0    0  501 -0.00000000000E+00  0.00000000000E+00  0.64580423893E+02  0.64580423893E+02  0.00000000000E+00 0.  1.
          2   -1    0    0  501    0  0.00000000000E+00 -0.00000000000E+00 -0.27182849460E+03  0.27182849460E+03  0.00000000000E+00 0. -1.
         25    2    1    2    0    0 -0.55328638138E+02 -0.23398430754E+02 -0.17249532472E+03  0.22138351889E+03  0.12508909075E+03 0.  0.
         23    2    1    2    0    0  0.55328638138E+02  0.23398430754E+02 -0.34752745983E+02  0.11502539960E+03  0.91729735857E+02 0.  0.
          5    1    3    3  502    0 -0.94274585479E+02 -0.26814441716E+02 -0.13635602846E+03  0.16797961379E+03  0.41800000000E+01 0. -1.
         -5    1    3    3    0  502  0.38945947342E+02  0.34160109624E+01 -0.36139296256E+02  0.53403905093E+02  0.41800000000E+01 0. -1.
        -11    1    4    4    0    0 -0.91975891533E+01 -0.18978551688E+02 -0.31310999716E+02  0.37751288371E+02  0.00000000000E+00 0. -1.
         11    1    4    4    0    0  0.64526227291E+02  0.42376982442E+02 -0.34417462669E+01  0.77274111232E+02  0.00000000000E+00 0.  1.
</event>
<event>
 8    1  0.6597859E-009  0.8092486E+02  0.7561462E-02  0.1326447E+00
          1   -1    0    0  501    0  0.00000000000E+00  0.00000000000E+00  0.67677548709E+02  0.67677548709E+02  0.00000000000E+00 0. -1.
         -1   -1    0    0    0  501 -0.00000000000E+00 -0.00000000000E+00 -0.19024214650E+03  0.19024214650E+03  0.00000000000E+00 0.  1.
         25    2    1    2    0    0 -0.13682776284E+02  0.28970357930E+02 -0.53858767134E+02  0.13991323282E+03  0.12509374851E+03 0.  0.
         23    2    1    2    0    0  0.13682776284E+02 -0.28970357930E+02 -0.68705830658E+02  0.11800646239E+03  0.90435247521E+02 0.  0.
          5    1    3    3  502    0  0.42886625795E+02  0.15432610861E+02 -0.66027828118E+02  0.80340367413E+02  0.41800000000E+01 0. -1.
         -5    1    3    3    0  502 -0.56569402079E+02  0.13537747069E+02  0.12169060984E+02  0.59572865405E+02  0.41800000000E+01 0. -1.
        -11    1    4    4    0    0  0.47220854010E+01  0.13528881011E+02  0.16812542303E+02  0.22090502272E+02  0.00000000000E+00 0. -1.
         11    1    4    4    0    0  0.89606908830E+01 -0.42499238942E+02 -0.85518372960E+02  0.95915960119E+02  0.00000000000E+00 0.  1.
</event>
<event>
 8    1  0.6597859E-009  0.1227728E+03  0.7561462E-02  0.1238592E+00
         -2   -1    0    0    0  501 -0.00000000000E+00  0.00000000000E+00  0.36496467289E+02  0.36496467289E+02  0.00000000000E+00 0.  1.
          2   -1    0    0  501    0  0.00000000000E+00 -0.00000000000E+00 -0.48368262762E+03  0.48368262762E+03  0.00000000000E+00 0. -1.
         25    2    1    2    0    0 -0.50788161284E+02 -0.44820774458E+02 -0.17804038418E+03  0.22789242875E+03  0.12509293157E+03 0.  0.
         23    2    1    2    0    0  0.50788161284E+02  0.44820774458E+02 -0.26914577614E+03  0.29228666616E+03  0.91671736369E+02 0.  0.
          5    1    3    3  502    0 -0.14159672381E+02  0.43823343856E+02 -0.56805748900E+02  0.73248531021E+02  0.41800000000E+01 0.  1.
         -5    1    3    3    0  502 -0.36628488903E+02 -0.88644118314E+02 -0.12123463528E+03  0.15464389772E+03  0.41800000000E+01 0.  1.
        -11    1    4    4    0    0 -0.13102302189E+02  0.36607080649E+02 -0.47042456897E+02  0.61030659731E+02  0.00000000000E+00 0.  1.
         11    1    4    4    0    0  0.63890463473E+02  0.82136938096E+01 -0.22210331925E+03  0.23125600643E+03  0.00000000000E+00 0. -1.
</event>
<event>
 8    1  0.6597859E-009  0.1710951E+03  0.7561462E-02  0.1176711E+00
          1   -1    0    0  501    0  0.00000000000E+00  0.00000000000E+00  0.61744427911E+03  0.61744427911E+03  0.00000000000E+00 0. -1.
         -1   -1    0    0    0  501 -0.00000000000E+00 -0.00000000000E+00 -0.14094433411E+03  0.14094433411E+03  0.00000000000E+00 0.  1.
         25    2    1    2    0    0 -0.15722324996E+03  0.44521878256E+02 -0.39456753089E+02  0.20953697974E+03  0.12509021760E+03 0.  0.
         23    2    1    2    0    0  0.15722324996E+03 -0.44521878256E+02  0.51595669809E+03  0.54885163349E+03  0.91243922000E+02 0.  0.
          5    1    3    3  502    0 -0.12068151772E+02  0.25905643489E+02 -0.55189472614E+02  0.62290392030E+02  0.41800000000E+01 0.  1.
         -5    1    3    3    0  502 -0.14515509819E+03  0.18616234767E+02  0.15732719525E+02  0.14724658771E+03  0.41800000000E+01 0.  1.
        -11    1    4    4    0    0  0.26345813741E+02  0.52826015495E+01  0.19977181342E+02  0.33482765047E+02  0.00000000000E+00 0.  1.
         11    1    4    4    0    0  0.13087743622E+03 -0.49804479806E+02  0.49597951675E+03  0.51536886844E+03  0.00000000000E+00 0. -1.
</event>
<event>
 8    1  0.6597859E-009  0.1238393E+03  0.7561462E-02  0.1236894E+00
         -1   -1    0    0    0  501 -0.00000000000E+00  0.00000000000E+00  0.35993369000E+02  0.35993369000E+02  0.00000000000E+00 0.  1.
          1   -1    0    0  501    0  0.00000000000E+00 -0.00000000000E+00 -0.48380803059E+03  0.48380803059E+03  0.00000000000E+00 0. -1.
         25    2    1    2    0    0  0.62776186159E+02 -0.40129770016E+02 -0.27324369143E+03  0.30961748304E+03  0.12509845285E+03 0.  0.
         23    2    1    2    0    0 -0.62776186159E+02  0.40129770016E+02 -0.17457097015E+03  0.21018391655E+03  0.90282928420E+02 0.  0.
          5    1    3    3  502    0  0.44523550536E+02 -0.83336312015E+02 -0.21378233625E+03  0.23376836215E+03  0.41800000000E+01 0. -1.
         -5    1    3    3    0  502  0.18252635623E+02  0.43206542000E+02 -0.59461355188E+02  0.75849120888E+02  0.41800000000E+01 0. -1.
        -11    1    4    4    0    0 -0.52783244294E+02  0.62323947141E+02 -0.87151633754E+02  0.11943932573E+03  0.00000000000E+00 0.  1.
         11    1    4    4    0    0 -0.99929418652E+01 -0.22194177125E+02 -0.87419336400E+02  0.90744590814E+02  0.00000000000E+00 0. -1.
</event>
<event>
 8    1  0.6597859E-009  0.9584244E+02  0.7561462E-02  0.1289290E+00
         -1   -1    0    0    0  501 -0.00000000000E+00  0.00000000000E+00  0.82598289548E+03  0.82598289548E+03  0.00000000000E+00 0.  1.
          1   -1    0    0  501    0  0.00000000000E+00 -0.00000000000E+00 -0.25919588125E+02  0.25919588125E+02  0.00000000000E+00 0. -1.
         25    2    1    2    0    0  0.14530376087E+02  0.48117774293E+02  0.67820836129E+03  0.69147694326E+03  0.12508928692E+03 0.  0.
         23    2    1    2    0    0 -0.14530376087E+02 -0.48117774293E+02  0.12185494606E+03  0.16042554034E+03  0.91440002637E+02 0.  0.
          5    1    3    3  502    0  0.68503934747E+01 -0.39831640729E+02  0.31793265340E+03  0.32051853612E+03  0.41800000000E+01 0.  1.
         -5    1    3    3    0  502  0.76799826124E+01  0.87949415022E+02  0.36027570789E+03  0.37095840714E+03  0.41800000000E+01 0.  1.
        -11    1    4    4    0    0 -0.27165273772E+02 -0.36548298844E+02  0.13260096988E+03  0.14020252302E+03  0.00000000000E+00 0.  1.
         11    1    4    4    0    0  0.12634897685E+02 -0.11569475449E+02 -0.10746023821E+02  0.20223017323E+02  0.00000000000E+00 0. -1.
</event>
<event>
 8    1  0.6597859E-009  0.1626931E+03  0.7561462E-02  0.1185689E+00
          1   -1    0    0  501    0  0.00000000000E+00  0.00000000000E+00  0.61851506187E+02  0.61851506187E+02  0.00000000000E+00 0. -1.
         -1   -1    0    0    0  501 -0.00000000000E+00 -0.00000000000E+00 -0.55468549603E+03  0.55468549603E+03  0.00000000000E+00 0.  1.
         25    2    1    2    0    0 -0.10661125457E+03  0.99910876087E+02 -0.20112037841E+03  0.27828986550E+03  0.12509076652E+03 0.  0.
         23    2    1    2    0    0  0.10661125457E+03 -0.99910876087E+02 -0.29171361143E+03  0.33824713671E+03  0.89253300451E+02 0.  0.
          5    1    3    3  502    0 -0.96589867398E+02  0.61833455350E+02 -0.55681313072E+02  0.12755728011E+03  0.41800000000E+01 0.  1.
         -5    1    3    3    0  502 -0.10021387168E+02  0.38077420737E+02 -0.14543906534E+03  0.15073258539E+03  0.41800000000E+01 0.  1.
        -11    1    4    4    0    0  0.44162769496E+02  0.93856975424E+01 -0.84106906925E+02  0.95458961446E+02  0.00000000000E+00 0. -1.
         11    1    4    4    0    0  0.62448485070E+02 -0.10929657363E+03 -0.20760670450E+03  0.24278817527E+03  0.00000000000E+00 0.  1.
</event>
<event>
 8    1  0.6597859E-009  0.2387348E+03  0.7561462E-02  0.1120639E+00
         -1   -1    0    0    0  501 -0.00000000000E+00  0.00000000000E+00  0.13612728704E+03  0.13612728704E+03  0.00000000000E+00 0.  1.
          1   -1    0    0  501    0  0.00000000000E+00 -0.00000000000E+00 -0.48606777342E+03  0.48606777342E+03  0.00000000000E+00 0. -1.
         25    2    1    2    0    0  0.10371935740E+03  0.20826052823E+03 -0.19128630904E+03  0.32614089578E+03  0.12508908487E+03 0.  0.
         23    2    1    2    0    0 -0.10371935740E+03 -0.20826052823E+03 -0.15865417734E+03  0.29605416468E+03  0.91360646448E+02 0.  0.
          5    1    3    3  502    0  0.24635235878E+02  0.74667548059E+02 -0.14344950868E+03  0.16363792812E+03  0.41800000000E+01 0. -1.
         -5    1    3    3    0  502  0.79084121524E+02  0.13359298017E+03 -0.47836800366E+02  0.16250296766E+03  0.41800000000E+01 0. -1.
        -11    1    4    4    0    0 -0.50591882732E+02 -0.17154473313E+03 -0.84762351573E+02  0.19791864568E+03  0.00000000000E+00 0.  1.
         11    1    4    4    0    0 -0.53127474670E+02 -0.36715795099E+02 -0.73891825768E+02  0.98135519002E+02  0.00000000000E+00 0. -1.
</event>
<event>
 8    1  0.6597859E-009  0.1081568E+03  0.7561462E-02  0.1264022E+00
         -1   -1    0    0    0  501 -0.00000000000E+00  0.00000000000E+00  0.27533873269E+02  0.27533873269E+02  0.00000000000E+00 0.  1.
          1   -1    0    0  501    0  0.00000000000E+00 -0.00000000000E+00 -0.49932751189E+03  0.49932751189E+03  0.00000000000E+00 0. -1.
         25    2    1    2    0    0  0.44336374909E+02  0.33641857062E+01 -0.27617612858E+03  0.30642678621E+03  0.12508832649E+03 0.  0.
         23    2    1    2    0    0 -0.44336374909E+02 -0.33641857062E+01 -0.19561751004E+03  0.22043459894E+03  0.91368322156E+02 0.  0.
          5    1    3    3  502    0 -0.37536284379E+02 -0.20385858828E+02 -0.58020064699E+02  0.72168942024E+02  0.41800000000E+01 0. -1.
         -5    1    3    3    0  502  0.81872659288E+02  0.23750044535E+02 -0.21815606388E+03  0.23425784419E+03  0.41800000000E+01 0. -1.
        -11    1    4    4    0    0  0.20458945477E+02  0.85311475127E+01 -0.11679435367E+02  0.25055102044E+02  0.00000000000E+00 0.  1.
         11    1    4    4    0    0 -0.64795320386E+02 -0.11895333219E+02 -0.18393807467E+03  0.19537949690E+03  0.00000000000E+00 0. -1.
</event>
<event>
 8    1  0.6597859E-009  0.1099530E+03  0.7561462E-02  0.1260657E+00
         -2   -1    0    0    0  501 -0.00000000000E+00  0.00000000000E+00  0.25726820936E+02  0.25726820936E+02  0.00000000000E+00 0.  1.
          2   -1    0    0  501    0  0.00000000000E+00 -0.00000000000E+00 -0.52522895611E+03  0.52522895611E+03  0.00000000000E+00 0. -1.
         25    2    1    2    0    0 -0.35377339252E+02 -0.20199626940E+02 -0.31732733435E+03  0.34351864933E+03  0.12509534063E+03 0.  0.
         23    2    1    2    0    0  0.35377339252E+02  0.20199626940E+02 -0.18217480082E+03  0.20743712771E+03  0.90459509398E+02 0.  0.
          5    1    3    3  502    0 -0.56249736047E+02  0.35990037806E+02 -0.21140313279E+03  0.22173874848E+03  0.41800000000E+01 0.  1.
         -5    1    3    3    0  502  0.20872396795E+02 -0.56189664746E+02 -0.10592420157E+03  0.12177990084E+03  0.41800000000E+01 0.  1.
        -11    1    4    4    0    0  0.59486847794E+02 -0.28505893103E+01 -0.78537794901E+02  0.98564680022E+02  0.00000000000E+00 0.  1.
         11    1    4    4    0    0 -0.24109508541E+02  0.23050216251E+02 -0.10363700592E+03  0.10887244769E+03  0.00000000000E+00 0. -1.
</event>
<event>
 8    1  0.6597859E-009  0.9716913E+02  0.7561462E-02  0.1286364E+00
         -2   -1    0    0    0  501 -0.00000000000E+00  0.00000000000E+00  0.28568873493E+02  0.28568873493E+02  0.00000000000E+00 0.  1.
          2   -1    0    0  501    0  0.00000000000E+00 -0.00000000000E+00 -0.45985648856E+03  0.45985648856E+03  0.00000000000E+00 0. -1.
         25    2    1    2    0    0  0.19526104521E+02  0.50107213225E+01 -0.30595940923E+03  0.33115773061E+03  0.12509159189E+03 0.  0.
         23    2    1    2    0    0 -0.19526104521E+02 -0.50107213225E+01 -0.12532820584E+03  0.15726763145E+03  0.92841653557E+02 0.  0.
          5    1    3    3  502    0  0.26008952937E+02  0.62260421991E+02 -0.14083558709E+03  0.15622087175E+03  0.41800000000E+01 0.  1.
         -5    1    3    3    0  502 -0.64828484161E+01 -0.57249700668E+02 -0.16512382214E+03  0.17493685886E+03  0.41800000000E+01 0.  1.
        -11    1    4    4    0    0 -0.17550896367E+02  0.29539789282E+02 -0.11662746654E+03  0.12158371217E+03  0.00000000000E+00 0. -1.
         11    1    4    4    0    0 -0.19752081544E+01 -0.34550510604E+02 -0.87007393008E+01  0.35683919273E+02  0.00000000000E+00 0.  1.
</event>
<event>
 8    1  0.6597859E-009  0.1639273E+03  0.7561462E-02  0.1184333E+00
          1   -1    0    0  501    0  0.00000000000E+00  0.00000000000E+00  0.33591537503E+02  0.33591537503E+02  0.00000000000E+00 0. -1.
         -1   -1    0    0    0  501 -0.00000000000E+00 -0.00000000000E+00 -0.93469075294E+03  0.93469075294E+03  0.00000000000E+00 0.  1.
         25    2    1    2    0    0 -0.19845898522E+02 -0.12268678834E+03 -0.30550457960E+03  0.35274162900E+03  0.12509077084E+03 0.  0.
         23    2    1    2    0    0  0.19845898522E+02  0.12268678834E+03 -0.59559463584E+03  0.61554066145E+03  0.93335030595E+02 0.  0.
          5    1    3    3  502    0  0.51640667565E+02 -0.48948568294E+02 -0.98042709386E+02  0.12121289597E+03  0.41800000000E+01 0. -1.
         -5    1    3    3    0  502 -0.71486566087E+02 -0.73738220042E+02 -0.20746187022E+03  0.23152873303E+03  0.41800000000E+01 0. -1.
        -11    1    4    4    0    0 -0.36225072097E+02  0.40966964985E+02 -0.17092869715E+03  0.17946355502E+03  0.00000000000E+00 0.  1.
         11    1    4    4    0    0  0.56070970619E+02  0.81719823352E+02 -0.42466593868E+03  0.43607710643E+03  0.00000000000E+00 0. -1.
</event>
<event>
 8    1  0.6597859E-009  0.1104356E+03  0.7561462E-02  0.1259765E+00
          4   -1    0    0  501    0  0.00000000000E+00  0.00000000000E+00  0.38859061276E+03  0.38859061276E+03  0.00000000000E+00 0.  1.
         -4   -1    0    0    0  501 -0.00000000000E+00 -0.00000000000E+00 -0.35916964327E+02  0.35916964327E+02  0.00000000000E+00 0. -1.
         25    2    1    2    0    0 -0.17259784739E+02 -0.35189696709E+02  0.24261145409E+03  0.27576519651E+03  0.12509960442E+03 0.  0.
         23    2    1    2    0    0  0.17259784739E+02  0.35189696709E+02  0.11006219435E+03  0.14874238058E+03  0.92056473063E+02 0.  0.
          5    1    3    3  502    0 -0.65566022787E+02 -0.30138874812E+02  0.19353076343E+03  0.20658868292E+03  0.41800000000E+01 0. -1.
         -5    1    3    3    0  502  0.48306238048E+02 -0.50508218966E+01  0.49080690663E+02  0.69176513588E+02  0.41800000000E+01 0. -1.
        -11    1    4    4    0    0 -0.11990180471E+02  0.60183217860E+02  0.62871550534E+02  0.87855654378E+02  0.00000000000E+00 0. -1.
         11    1    4    4    0    0  0.29249965210E+02 -0.24993521151E+02  0.47190643813E+02  0.60886726203E+02  0.00000000000E+00 0.  1.
</event>
<event>
 8    1  0.6597859E-009  0.6108230E+02  0.7561462E-02  0.1393345E+00
         -1   -1    0    0    0  501 -0.00000000000E+00  0.00000000000E+00  0.16632735935E+02  0.16632735935E+02  0.00000000000E+00 0.  1.
          1   -1    0    0  501    0  0.00000000000E+00 -0.00000000000E+00 -0.83024504143E+03  0.83024504143E+03  0.00000000000E+00 0. -1.
         25    2    1    2    0    0 -0.74713529481E+01 -0.23246843521E+02 -0.57881921187E+03  0.59268695805E+03  0.12509961374E+03 0.  0.
         23    2    1    2    0    0  0.74713529481E+01  0.23246843521E+02 -0.23479309362E+03  0.25419081931E+03  0.94281169720E+02 0.  0.
          5    1    3    3  502    0 -0.72050015952E+01 -0.30700113493E+02 -0.29758623743E+02  0.43559810646E+02  0.41800000000E+01 0. -1.
         -5    1    3    3    0  502 -0.26635135293E+00  0.74532699719E+01 -0.54906058813E+03  0.54912714740E+03  0.41800000000E+01 0. -1.
        -11    1    4    4    0    0 -0.35389475100E+02  0.77459132460E+01 -0.39279220865E+02  0.53434738809E+02  0.00000000000E+00 0.  1.
         11    1    4    4    0    0  0.42860828048E+02  0.15500930275E+02 -0.19551387275E+03  0.20075608051E+03  0.00000000000E+00 0. -1.
</event>
<event>
 8    1  0.6597859E-009  0.9344276E+02  0.7561462E-02  0.1294722E+00
          1   -1    0    0  501    0  0.00000000000E+00  0.00000000000E+00  0.36703438747E+03  0.36703438747E+03  0.00000000000E+00 0. -1.
         -1   -1    0    0    0  501 -0.00000000000E+00 -0.00000000000E+00 -0.56916032290E+02  0.56916032290E+02  0.00000000000E+00 0.  1.
         25    2    1    2    0    0 -0.74609698633E+02  0.24186459909E+02  0.89755935256E+02  0.17279129226E+03  0.12509640600E+03 0.  0.
         23    2    1    2    0    0  0.74609698633E+02 -0.24186459909E+02  0.22036241992E+03  0.25115912750E+03  0.91486169661E+02 0.  0.
          5    1    3    3  502    0 -0.17607604216E+02  0.29571841870E+02 -0.26164143068E+02  0.43434506332E+02  0.41800000000E+01 0. -1.
         -5    1    3    3    0  502 -0.57002094416E+02 -0.53853819614E+01  0.11592007832E+03  0.12935678593E+03  0.41800000000E+01 0. -1.
        -11    1    4    4    0    0  0.39721056740E+02 -0.40116203917E+02  0.19983863773E+03  0.20765970552E+03  0.00000000000E+00 0. -1.
         11    1    4    4    0    0  0.34888641892E+02  0.15929744008E+02  0.20523782189E+02  0.43499421980E+02  0.00000000000E+00 0.  1.
</event>
<event>
 8    1  0.6597859E-009  0.1508688E+03  0.7561462E-02  0.1199409E+00
         -1   -1    0    0    0  501 -0.00000000000E+00  0.00000000000E+00  0.18553278244E+03  0.18553278244E+03  0.00000000000E+00 0.  1.
          1   -1    0    0  501    0  0.00000000000E+00 -0.00000000000E+00 -0.13728404215E+03  0.13728404215E+03  0.00000000000E+00 0. -1.
         25    2    1    2    0    0 -0.10334946627E+03 -0.54295672061E+02  0.25870994826E+02  0.17305496428E+03  0.12509828179E+03 0.  0.
         23    2    1    2    0    0  0.10334946627E+03  0.54295672061E+02  0.22377745469E+02  0.14976186031E+03  0.91097305824E+02 0.  0.
          5    1    3    3  502    0 -0.30614625027E+01  0.32502174167E+02  0.23310408096E+02  0.40331270794E+02  0.41800000000E+01 0.  1.
         -5    1    3    3    0  502 -0.10028800377E+03 -0.86797846228E+02  0.25605867295E+01  0.13272369349E+03  0.41800000000E+01 0.  1.
        -11    1    4    4    0    0  0.10789326953E+03  0.30811692324E+02  0.40984697021E+02  0.11945737057E+03  0.00000000000E+00 0.  1.
         11    1    4    4    0    0 -0.45438032598E+01  0.23483979737E+02 -0.18606951552E+02  0.30304489740E+02  0.00000000000E+00 0. -1.
</event>
<event>
 8    1  0.6597859E-009  0.1065219E+03  0.7561462E-02  0.1267150E+00
         -1   -1    0    0    0  501 -0.00000000000E+00  0.00000000000E+00  0.13133615037E+02  0.13133615037E+02  0.00000000000E+00 0.  1.
          1   -1    0    0  501    0  0.00000000000E+00 -0.00000000000E+00 -0.11193887531E+04  0.11193887531E+04  0.00000000000E+00 0. -1.
         25    2    1    2    0    0  0.48485642536E+02  0.12890291592E+02 -0.71180350743E+03  0.72445331626E+03  0.12510538396E+03 0.  0.
         23    2    1    2    0    0 -0.48485642536E+02 -0.12890291592E+02 -0.39445163060E+03  0.40806905184E+03  0.91712840121E+02 0.  0.
          5    1    3    3  502    0  0.38778918832E+02 -0.39421393444E+02 -0.57406021084E+03  0.57673256270E+03  0.41800000000E+01 0. -1.
         -5    1    3    3    0  502  0.97067237044E+01  0.52311685036E+02 -0.13774329659E+03  0.14772075356E+03  0.41800000000E+01 0. -1.
        -11    1    4    4    0    0 -0.46982163342E+02  0.33564875834E+02 -0.23423288495E+03  0.24124462472E+03  0.00000000000E+00 0. -1.
         11    1    4    4    0    0 -0.15034791939E+01 -0.46455167425E+02 -0.16021874565E+03  0.16682442713E+03  0.00000000000E+00 0.  1.
</event>
<event>
 8    1  0.6597859E-009  0.1997693E+03  0.7561462E-02  0.1149934E+00
         -2   -1    0    0    0  501 -0.00000000000E+00  0.00000000000E+00  0.47386841041E+03  0.47386841041E+03  0.00000000000E+00 0.  1.
          2   -1    0    0  501    0  0.00000000000E+00 -0.00000000000E+00 -0.92531286088E+02  0.92531286088E+02  0.00000000000E+00 0. -1.
         25    2    1    2    0    0 -0.16227579409E+03  0.57233874730E+02  0.26126793522E+03  0.33692379390E+03  0.12509020406E+03 0.  0.
         23    2    1    2    0    0  0.16227579409E+03 -0.57233874730E+02  0.12006918910E+03  0.22947590260E+03  0.92916252286E+02 0.  0.
          5    1    3    3  502    0 -0.14649863508E+03  0.89255047616E+02  0.18339126893E+03  0.25115362535E+03  0.41800000000E+01 0.  1.
         -5    1    3    3    0  502 -0.15777159011E+02 -0.32021172885E+02  0.77876666297E+02  0.85770168549E+02  0.41800000000E+01 0.  1.
        -11    1    4    4    0    0  0.11355986011E+03  0.41478972431E+01  0.92093305826E+02  0.14626764460E+03  0.00000000000E+00 0.  1.
         11    1    4    4    0    0  0.48715933987E+02 -0.61381771973E+02  0.27975883273E+02  0.83208258002E+02  0.00000000000E+00 0. -1.
</event>
<event>
 8    1  0.6597859E-009  0.1143651E+03  0.7561462E-02  0.1252693E+00
         -1   -1    0    0    0  501 -0.00000000000E+00  0.00000000000E+00  0.74106043393E+02  0.74106043393E+02  0.00000000000E+00 0.  1.
          1   -1    0    0  501    0  0.00000000000E+00 -0.00000000000E+00 -0.34128402636E+03  0.34128402636E+03  0.00000000000E+00 0. -1.
         25    2    1    2    0    0  0.10175904546E+03 -0.43986225751E+02 -0.12834225252E+03  0.21073216144E+03  0.12508644489E+03 0.  0.
         23    2    1    2    0    0 -0.10175904546E+03  0.43986225751E+02 -0.13883573044E+03  0.20465790831E+03  0.10158645577E+03 0.  0.
          5    1    3    3  502    0  0.63890281588E+02 -0.65257393446E+01 -0.14172311968E+03  0.15565175362E+03  0.41800000000E+01 0. -1.
         -5    1    3    3    0  502  0.37868763875E+02 -0.37460486407E+02  0.13380867158E+02  0.55080407815E+02  0.41800000000E+01 0. -1.
        -11    1    4    4    0    0 -0.79455207276E+02  0.32396740698E+02 -0.26883693209E+02  0.89918917541E+02  0.00000000000E+00 0.  1.
         11    1    4    4    0    0 -0.22303838187E+02  0.11589485053E+02 -0.11195203723E+03  0.11473899077E+03  0.00000000000E+00 0. -1.
</event>
<event>
 8    1  0.6597859E-009  0.1000746E+03  0.7561462E-02  0.1280139E+00
          1   -1    0    0  501    0  0.00000000000E+00  0.00000000000E+00  0.59899286301E+03  0.59899286301E+03  0.00000000000E+00 0. -1.
         -1   -1    0    0    0  501 -0.00000000000E+00 -0.00000000000E+00 -0.31950464237E+02  0.31950464237E+02  0.00000000000E+00 0.  1.
         25    2    1    2    0    0  0.15778365291E+01 -0.47980885920E+01  0.50444265097E+03  0.51974945663E+03  0.12510634808E+03 0.  0.
         23    2    1    2    0    0 -0.15778365291E+01  0.47980885920E+01  0.62599747808E+02  0.11119387062E+03  0.91759670966E+02 0.  0.
          5    1    3    3  502    0 -0.32959208561E+02  0.50145082500E+02  0.23722152160E+03  0.24472915936E+03  0.41800000000E+01 0.  1.
         -5    1    3    3    0  502  0.34537045090E+02 -0.54943171091E+02  0.26722112936E+03  0.27502029727E+03  0.41800000000E+01 0.  1.
        -11    1    4    4    0    0  0.36347947088E+02  0.68365806980E+01  0.63179378386E+02  0.73208919855E+02  0.00000000000E+00 0. -1.
         11    1    4    4    0    0 -0.37925783617E+02 -0.20384921060E+01 -0.57963057820E+00  0.37984950765E+02  0.00000000000E+00 0.  1.
</event>
<event>
 8    1  0.6597859E-009  0.1131638E+03  0.7561462E-02  0.1254821E+00
          2   -1    0    0  501    0  0.00000000000E+00  0.00000000000E+00  0.86799844281E+03  0.86799844281E+03  0.00000000000E+00 0. -1.
         -2   -1    0    0    0  501 -0.00000000000E+00 -0.00000000000E+00 -0.22846953707E+02  0.22846953707E+02  0.00000000000E+00 0.  1.
         25    2    1    2    0    0 -0.44310048004E+02 -0.53296431762E+02  0.63901162533E+03  0.65481833705E+03  0.12508919711E+03 0.  0.
         23    2    1    2    0    0  0.44310048004E+02  0.53296431762E+02  0.20613986378E+03  0.23602705947E+03  0.91712809210E+02 0.  0.
          5    1    3    3  502    0 -0.51029350533E+02  0.19710140848E+02  0.13887239069E+03  0.14931676920E+03  0.41800000000E+01 0.  1.
         -5    1    3    3    0  502  0.67193025298E+01 -0.73006572610E+02  0.50013923464E+03  0.50550156785E+03  0.41800000000E+01 0.  1.
        -11    1    4    4    0    0 -0.10968946564E+02 -0.93990450232E+01  0.96211493183E+00  0.14477068115E+02  0.00000000000E+00 0.  1.
         11    1    4    4    0    0  0.55278994568E+02  0.62695476785E+02  0.20517774884E+03  0.22154999136E+03  0.00000000000E+00 0. -1.
</event>
<event>
 8    1  0.6597859E-009  0.9373898E+02  0.7561462E-02  0.1294042E+00
          3   -1    0    0  501    0  0.00000000000E+00  0.00000000000E+00  0.25287026126E+02  0.25287026126E+02  0.00000000000E+00 0. -1.
         -3   -1    0    0    0  501 -0.00000000000E+00 -0.00000000000E+00 -0.75390547857E+03  0.75390547857E+03  0.00000000000E+00 0.  1.
         25    2    1    2    0    0  0.65625105909E+02  0.28634642667E+01 -0.56395211163E+03  0.58138120341E+03  0.12508903036E+03 0.  0.
         23    2    1    2    0    0 -0.65625105909E+02 -0.28634642667E+01 -0.16466634082E+03  0.19781130129E+03  0.87746527941E+02 0.  0.
          5    1    3    3  502    0 -0.16236228083E+02  0.91967725979E+00 -0.66173893744E+01  0.18047801826E+02  0.41800000000E+01 0. -1.
         -5    1    3    3    0  502  0.81861333992E+02  0.19437870069E+01 -0.55733472225E+03  0.56333340158E+03  0.41800000000E+01 0. -1.
        -11    1    4    4    0    0 -0.68848387340E+02  0.15067353552E+02 -0.16517857313E+03  0.17958587529E+03  0.00000000000E+00 0.  1.
         11    1    4    4    0    0  0.32232814313E+01 -0.17930817818E+02  0.51223231324E+00  0.18225425997E+02  0.00000000000E+00 0. -1.
</event>
<event>
 8    1  0.6597859E-009  0.1394982E+03  0.7561462E-02  0.1214006E+00
          3   -1    0    0  501    0  0.00000000000E+00  0.00000000000E+00  0.73900828998E+02  0.73900828998E+02  0.00000000000E+00 0. -1.
         -3   -1    0    0    0  501 -0.00000000000E+00 -0.00000000000E+00 -0.28270062868E+03  0.28270062868E+03  0.00000000000E+00 0.  1.
         25    2    1    2    0    0  0.57488915420E+02 -0.71397768063E+02 -0.11921418708E+03  0.19560692939E+03  0.12508969480E+03 0.  0.
         23    2    1    2    0    0 -0.57488915420E+02  0.71397768063E+02 -0.89585612607E+02  0.16099452829E+03  0.97421966071E+02 0.  0.
          5    1    3    3  502    0 -0.24788245147E+02 -0.66462674265E+02 -0.68736580313E+02  0.98863208733E+02  0.41800000000E+01 0.  1.
         -5    1    3    3    0  502  0.82277160567E+02 -0.49350937983E+01 -0.50477606764E+02  0.96743720656E+02  0.41800000000E+01 0.  1.
        -11    1    4    4    0    0  0.16674832527E+02  0.42778417193E+02 -0.61364191218E+02  0.76639460992E+02  0.00000000000E+00 0.  1.
         11    1    4    4    0    0 -0.74163747947E+02  0.28619350870E+02 -0.28221421389E+02  0.84355067299E+02  0.00000000000E+00 0. -1.
</event>
<event>
 8    1  0.6597859E-009  0.1024397E+03  0.7561462E-02  0.1275248E+00
         -3   -1    0    0    0  501 -0.00000000000E+00  0.00000000000E+00  0.42960999338E+02  0.42960999338E+02  0.00000000000E+00 0.  1.
          3   -1    0    0  501    0  0.00000000000E+00 -0.00000000000E+00 -0.29872614283E+03  0.29872614283E+03  0.00000000000E+00 0. -1.
         25    2    1    2    0    0  0.30117370249E+02  0.13128013186E+02 -0.14717686323E+03  0.19593312306E+03  0.12509739773E+03 0.  0.
         23    2    1    2    0    0 -0.30117370249E+02 -0.13128013186E+02 -0.10858828026E+03  0.14575401911E+03  0.91506386421E+02 0.  0.
          5    1    3    3  502    0  0.63781950623E+02  0.37293908578E+02 -0.47582498269E+02  0.87980335211E+02  0.41800000000E+01 0.  1.
         -5    1    3    3    0  502 -0.33664580374E+02 -0.24165895392E+02 -0.99594364962E+02  0.10795278785E+03  0.41800000000E+01 0.  1.
        -11    1    4    4    0    0  0.13325333447E+02  0.26985214346E+02 -0.67042680114E+02  0.73488007604E+02  0.00000000000E+00 0. -1.
         11    1    4    4    0    0 -0.43442703696E+02 -0.40113227532E+02 -0.41545600147E+02  0.72266011506E+02  0.00000000000E+00 0.  1.
</event>
<event>
 8    1  0.6597859E-009  0.1046503E+03  0.7561462E-02  0.1270810E+00
         -2   -1    0    0    0  501 -0.00000000000E+00  0.00000000000E+00  0.14684248202E+03  0.14684248202E+03  0.00000000000E+00 0.  1.
          2   -1    0    0  501    0  0.00000000000E+00 -0.00000000000E+00 -0.12452641222E+03  0.12452641222E+03  0.00000000000E+00 0. -1.
         25    2    1    2    0    0  0.74510716336E+02  0.17129664704E+02 -0.14492799326E+02  0.14731711385E+03  0.12508804315E+03 0.  0.
         23    2    1    2    0    0 -0.74510716336E+02 -0.17129664704E+02  0.36808869119E+02  0.12405178039E+03  0.90491320631E+02 0.  0.
          5    1    3    3  502    0  0.27664437532E+02  0.39543319171E+02 -0.60713390959E+02  0.77669707330E+02  0.41800000000E+01 0. -1.
         -5    1    3    3    0  502  0.46846278804E+02 -0.22413654466E+02  0.46220591634E+02  0.69647406523E+02  0.41800000000E+01 0. -1.
        -11    1    4    4    0    0 -0.33166744838E+02 -0.47164202563E+02  0.43888755771E+02  0.72461837195E+02  0.00000000000E+00 0.  1.
         11    1    4    4    0    0 -0.41343971498E+02  0.30034537858E+02 -0.70798866517E+01  0.51589943193E+02  0.00000000000E+00 0. -1.
</event>
<event>
 8    1  0.6597859E-009  0.1202408E+03  0.7561462E-02  0.1242700E+00
         -2   -1    0    0    0  501 -0.00000000000E+00  0.00000000000E+00  0.55056474407E+02  0.55056474407E+02  0.00000000000E+00 0. -1.
          2   -1    0    0  501    0  0.00000000000E+00 -0.00000000000E+00 -0.27111311152E+03  0.27111311152E+03  0.00000000000E+00 0.  1.
         25    2    1    2    0    0 -0.46447611341E+02  0.28704930506E+02 -0.97607993938E+02  0.16777925291E+03  0.12506479757E+03 0.  0.
         23    2    1    2    0    0  0.46447611341E+02 -0.28704930506E+02 -0.11844864317E+03  0.15839033301E+03  0.89866917651E+02 0.  0.
          5    1    3    3  502    0 -0.13482455493E+02 -0.49287886603E+02 -0.30492374536E+02  0.59651736578E+02  0.41800000000E+01 0. -1.
         -5    1    3    3    0  502 -0.32965155848E+02  0.77992817109E+02 -0.67115619402E+02  0.10812751633E+03  0.41800000000E+01 0. -1.
        -11    1    4    4    0    0  0.46368512112E+02 -0.58496008171E+02 -0.92672557638E+02  0.11899590256E+03  0.00000000000E+00 0.  1.
         11    1    4    4    0    0  0.79099228490E-01  0.29791077665E+02 -0.25776085536E+02  0.39394430452E+02  0.00000000000E+00 0. -1.
</event>
<event>
 8    1  0.6597859E-009  0.1592415E+03  0.7561462E-02  0.1189556E+00
         -2   -1    0    0    0  501 -0.00000000000E+00  0.00000000000E+00  0.19739065919E+02  0.19739065919E+02  0.00000000000E+00 0.  1.
          2   -1    0    0  501    0  0.00000000000E+00 -0.00000000000E+00 -0.14161379915E+04  0.14161379915E+04  0.00000000000E+00 0. -1.
         25    2    1    2    0    0  0.55412931767E+02  0.11023060711E+03 -0.80165489978E+03  0.82068344515E+03  0.12509739820E+03 0.  0.
         23    2    1    2    0    0 -0.55412931767E+02 -0.11023060711E+03 -0.59474402579E+03  0.61519361226E+03  0.97577377546E+02 0.  0.
          5    1    3    3  502    0  0.59809998264E+01 -0.21945319465E+02 -0.41312091869E+02  0.47344806895E+02  0.41800000000E+01 0. -1.
         -5    1    3    3    0  502  0.49431931941E+02  0.13217592658E+03 -0.76034280792E+03  0.77333863825E+03  0.41800000000E+01 0. -1.
        -11    1    4    4    0    0 -0.58679925806E+02 -0.17282584467E+02 -0.17867924092E+03  0.18886051084E+03  0.00000000000E+00 0.  1.
         11    1    4    4    0    0  0.32669940390E+01 -0.92948022648E+02 -0.41606478487E+03  0.42633310143E+03  0.00000000000E+00 0. -1.
</event>
<event>
 8    1  0.6597859E-009  0.1121225E+03  0.7561462E-02  0.1256689E+00
         -2   -1    0    0    0  501 -0.00000000000E+00  0.00000000000E+00  0.37917838835E+02  0.37917838835E+02  0.00000000000E+00 0.  1.
          2   -1    0    0  501    0  0.00000000000E+00 -0.00000000000E+00 -0.40458657522E+03  0.40458657522E+03  0.00000000000E+00 0. -1.
         25    2    1    2    0    0  0.33970441339E+02 -0.19067233588E+02 -0.12569666389E+03  0.18156255082E+03  0.12509099994E+03 0.  0.
         23    2    1    2    0    0 -0.33970441339E+02  0.19067233588E+02 -0.24097207250E+03  0.26094186324E+03  0.92225625426E+02 0.  0.
          5    1    3    3  502    0  0.73349300226E+02 -0.41205299355E+02 -0.93993016334E+02  0.12621472203E+03  0.41800000000E+01 0. -1.
         -5    1    3    3    0  502 -0.39378858886E+02  0.22138065768E+02 -0.31703647560E+02  0.55347828790E+02  0.41800000000E+01 0. -1.
        -11    1    4    4    0    0  0.33340403120E+01  0.47575289298E+02 -0.78782765055E+02  0.92093691675E+02  0.00000000000E+00 0.  1.
         11    1    4    4    0    0 -0.37304481651E+02 -0.28508055710E+02 -0.16218930744E+03  0.16884817156E+03  0.00000000000E+00 0. -1.
</event>
<event>
 8    1  0.6597859E-009  0.1001295E+03  0.7561462E-02  0.1280024E+00
         -1   -1    0    0    0  501 -0.00000000000E+00  0.00000000000E+00  0.73713821085E+02  0.73713821085E+02  0.00000000000E+00 0.  1.
          1   -1    0    0  501    0  0.00000000000E+00 -0.00000000000E+00 -0.20564445190E+03  0.20564445190E+03  0.00000000000E+00 0. -1.
         25    2    1    2    0    0 -0.41184651663E+01  0.32724133695E+02 -0.14846774305E+03  0.19691800189E+03  0.12508476350E+03 0.  0.
         23    2    1    2    0    0  0.41184651663E+01 -0.32724133695E+02  0.16537112236E+02  0.82440271098E+02  0.73723073295E+02 0.  0.
          5    1    3    3  502    0 -0.26657034220E+02  0.70527546794E+02 -0.54676990953E+02  0.93229705941E+02  0.41800000000E+01 0. -1.
         -5    1    3    3    0  502  0.22538569053E+02 -0.37803413099E+02 -0.93790752097E+02  0.10368829594E+03  0.41800000000E+01 0. -1.
        -11    1    4    4    0    0 -0.25256788612E+02  0.11252781301E+02  0.86387663108E+01  0.28968236767E+02  0.00000000000E+00 0.  1.
         11    1    4    4    0    0  0.29375253779E+02 -0.43976914996E+02  0.78983459254E+01  0.53472034331E+02  0.00000000000E+00 0. -1.
</event>
<event>
 8    1  0.6597859E-009  0.1016080E+03  0.7561462E-02  0.1276950E+00
          1   -1    0    0  501    0  0.00000000000E+00  0.00000000000E+00  0.10470997199E+03  0.10470997199E+03  0.00000000000E+00 0. -1.
         -1   -1    0    0    0  501 -0.00000000000E+00 -0.00000000000E+00 -0.13577151747E+03  0.13577151747E+03  0.00000000000E+00 0.  1.
         25    2    1    2    0    0 -0.32602357159E+02 -0.38958918671E+02  0.11766680805E+01  0.13501633985E+03  0.12508923392E+03 0.  0.
         23    2    1    2    0    0  0.32602357159E+02  0.38958918671E+02 -0.32238213561E+02  0.10546514961E+03  0.86619191480E+02 0.  0.
          5    1    3    3  502    0 -0.51040620345E+02 -0.59165326591E+02  0.39572647542E+02  0.87687784949E+02  0.41800000000E+01 0.  1.
         -5    1    3    3    0  502  0.18438263186E+02  0.20206407919E+02 -0.38395979462E+02  0.47328554903E+02  0.41800000000E+01 0.  1.
        -11    1    4    4    0    0 -0.28082777720E+02  0.81844105699E+01 -0.22123223643E+02  0.36675114249E+02  0.00000000000E+00 0.  1.
         11    1    4    4    0    0  0.60685134878E+02  0.30774508101E+02 -0.10114989918E+02  0.68790035362E+02  0.00000000000E+00 0. -1.
</event>
<event>
 8    1  0.6597859E-009  0.2239519E+03  0.7561462E-02  0.1130971E+00
          1   -1    0    0  501    0  0.00000000000E+00  0.00000000000E+00  0.26622391205E+03  0.26622391205E+03  0.00000000000E+00 0. -1.
         -1   -1    0    0    0  501 -0.00000000000E+00 -0.00000000000E+00 -0.19991089750E+03  0.19991089750E+03  0.00000000000E+00 0.  1.
         25    2    1    2    0    0  0.19759650833E+03 -0.51518405733E+02  0.45609856400E+02  0.24377340871E+03  0.12508672815E+03 0.  0.
         23    2    1    2    0    0 -0.19759650833E+03  0.51518405733E+02  0.20703158149E+02  0.22236140084E+03  0.85542069145E+02 0.  0.
          5    1    3    3  502    0  0.12772407611E+03 -0.80283902760E+02 -0.78425644786E+01  0.15112221173E+03  0.41800000000E+01 0.  1.
         -5    1    3    3    0  502  0.69872432219E+02  0.28765497026E+02  0.53452420878E+02  0.92651196976E+02  0.41800000000E+01 0.  1.
        -11    1    4    4    0    0 -0.50988642328E+02  0.54548649516E+02  0.99478511934E+01  0.75328325043E+02  0.00000000000E+00 0. -1.
         11    1    4    4    0    0 -0.14660786600E+03 -0.30302437829E+01  0.10755306956E+02  0.14703307580E+03  0.00000000000E+00 0.  1.
</event>
<event>
 8    1  0.6597859E-009  0.2615885E+03  0.7561462E-02  0.1106193E+00
          2   -1    0    0  501    0  0.00000000000E+00  0.00000000000E+00  0.29497449194E+03  0.29497449194E+03  0.00000000000E+00 0. -1.
         -2   -1    0    0    0  501 -0.00000000000E+00 -0.00000000000E+00 -0.31743603129E+03  0.31743603129E+03  0.00000000000E+00 0.  1.
         25    2    1    2    0    0  0.23855199954E+03  0.64909062942E+02 -0.15474750627E+03  0.31735490540E+03  0.12508837813E+03 0.  0.
         23    2    1    2    0    0 -0.23855199954E+03 -0.64909062942E+02  0.13228596692E+03  0.29505561784E+03  0.91858574108E+02 0.  0.
          5    1    3    3  502    0  0.17969146080E+03  0.95233065557E+02 -0.14611675344E+03  0.25045146415E+03  0.41800000000E+01 0.  1.
         -5    1    3    3    0  502  0.58860538744E+02 -0.30324002615E+02 -0.86307528287E+01  0.66903441244E+02  0.41800000000E+01 0.  1.
        -11    1    4    4    0    0 -0.41992703433E+02  0.98386512698E+01 -0.57434266514E+01  0.43510609627E+02  0.00000000000E+00 0.  1.
         11    1    4    4    0    0 -0.19655929611E+03 -0.74747714212E+02  0.13802939357E+03  0.25154500821E+03  0.00000000000E+00 0. -1.
</event>
<event>
 8    1  0.6597859E-009  0.1283403E+03  0.7561462E-02  0.1229939E+00
          2   -1    0    0  501    0  0.00000000000E+00  0.00000000000E+00  0.86680778018E+02  0.86680778018E+02  0.00000000000E+00 0.  1.
         -2   -1    0    0    0  501 -0.00000000000E+00 -0.00000000000E+00 -0.25099621763E+03  0.25099621763E+03  0.00000000000E+00 0. -1.
         25    2    1    2    0    0 -0.95842165488E+02  0.11562515526E+02 -0.11898831061E+03  0.19780065759E+03  0.12508984623E+03 0.  0.
         23    2    1    2    0    0  0.95842165488E+02 -0.11562515526E+02 -0.45327129000E+02  0.13987633806E+03  0.90506512881E+02 0.  0.
          5    1    3    3  502    0 -0.63231959641E+02  0.55033008624E+02 -0.22355543307E+02  0.86857098011E+02  0.41800000000E+01 0. -1.
         -5    1    3    3    0  502 -0.32610205848E+02 -0.43470493099E+02 -0.96632767302E+02  0.11094355958E+03  0.41800000000E+01 0. -1.
        -11    1    4    4    0    0  0.93361119651E+02  0.12377968999E+02 -0.60019651659E+02  0.11167753294E+03  0.00000000000E+00 0. -1.
         11    1    4    4    0    0  0.24810458373E+01 -0.23940484524E+02  0.14692522659E+02  0.28198805113E+02  0.00000000000E+00 0.  1.
</event>
<event>
 8    1  0.6597859E-009  0.1506196E+03  0.7561462E-02  0.1199714E+00
         -1   -1    0    0    0  501 -0.00000000000E+00  0.00000000000E+00  0.42947152040E+02  0.42947152040E+02  0.00000000000E+00 0.  1.
          1   -1    0    0  501    0  0.00000000000E+00 -0.00000000000E+00 -0.76864292162E+03  0.76864292162E+03  0.00000000000E+00 0. -1.
         25    2    1    2    0    0 -0.12966673025E+03 -0.58778519881E+02 -0.44701034862E+03  0.48552217490E+03  0.12508059488E+03 0.  0.
         23    2    1    2    0    0  0.12966673025E+03  0.58778519881E+02 -0.27868542097E+03  0.32606789877E+03  0.91576937125E+02 0.  0.
          5    1    3    3  502    0 -0.90492920692E+02 -0.16992795103E+02 -0.40234877335E+03  0.41277079790E+03  0.41800000000E+01 0. -1.
         -5    1    3    3    0  502 -0.39173809558E+02 -0.41785724777E+02 -0.44661575270E+02  0.72751377005E+02  0.41800000000E+01 0. -1.
        -11    1    4    4    0    0  0.62465843129E+01  0.21981501576E+02 -0.47103876020E+01  0.23332251895E+02  0.00000000000E+00 0.  1.
         11    1    4    4    0    0  0.12342014594E+03  0.36797018304E+02 -0.27397503336E+03  0.30273564687E+03  0.00000000000E+00 0. -1.
</event>
<event>
 8    1  0.6597859E-009  0.7728715E+02  0.7561462E-02  0.1336931E+00
         -1   -1    0    0    0  501 -0.00000000000E+00  0.00000000000E+00  0.41409815334E+02  0.41409815334E+02  0.00000000000E+00 0.  1.
          1   -1    0    0  501    0  0.00000000000E+00 -0.00000000000E+00 -0.63131135704E+03  0.63131135704E+03  0.00000000000E+00 0. -1.
         25    2    1    2    0    0  0.33293618396E+02 -0.14658084661E+02 -0.55348867108E+03  0.56861303176E+03  0.12509095255E+03 0.  0.
         23    2    1    2    0    0 -0.33293618396E+02  0.14658084661E+02 -0.36412870630E+02  0.10410814061E+03  0.90494659082E+02 0.  0.
          5    1    3    3  502    0 -0.35354298424E+00 -0.46490494345E+02 -0.78332677239E+02  0.91186467091E+02  0.41800000000E+01 0.  1.
         -5    1    3    3    0  502  0.33647161380E+02  0.31832409684E+02 -0.47515599384E+03  0.47742656467E+03  0.41800000000E+01 0.  1.
        -11    1    4    4    0    0 -0.16103147750E+02  0.32710836030E+02  0.20604864774E+02  0.41879238455E+02  0.00000000000E+00 0.  1.
         11    1    4    4    0    0 -0.17190470645E+02 -0.18052751369E+02 -0.57017735405E+02  0.62228902157E+02  0.00000000000E+00 0. -1.
</event>
<event>
 8    1  0.6597859E-009  0.9576342E+02  0.7561462E-02  0.1289466E+00
          2   -1    0    0  501    0  0.00000000000E+00  0.00000000000E+00  0.60639280495E+02  0.60639280495E+02  0.00000000000E+00 0.  1.
         -2   -1    0    0    0  501 -0.00000000000E+00 -0.00000000000E+00 -0.25495338542E+03  0.25495338542E+03  0.00000000000E+00 0. -1.
         25    2    1    2    0    0 -0.19298363248E+02  0.39248093169E+02 -0.16232118451E+03  0.20954397985E+03  0.12509065876E+03 0.  0.
         23    2    1    2    0    0  0.19298363248E+02 -0.39248093169E+02 -0.31992920422E+02  0.10604868607E+03  0.91158857054E+02 0.  0.
          5    1    3    3  502    0 -0.41507900823E+02 -0.17588207247E+02 -0.13530515903E+03  0.14267869261E+03  0.41800000000E+01 0. -1.
         -5    1    3    3    0  502  0.22209537574E+02  0.56836300416E+02 -0.27016025474E+02  0.66865287232E+02  0.41800000000E+01 0. -1.
        -11    1    4    4    0    0  0.43252121224E+02 -0.53510207459E+01  0.12362856785E+02  0.45301430896E+02  0.00000000000E+00 0.  1.
         11    1    4    4    0    0 -0.23953757975E+02 -0.33897072423E+02 -0.44355777207E+02  0.60747255178E+02  0.00000000000E+00 0. -1.
</event>
<event>
 7    1  0.6597859E-009  0.1290275E+03  0.7561462E-02  0.1228906E+00
         -2   -1    0    0    0  501 -0.00000000000E+00  0.00000000000E+00  0.90626256796E+02  0.90626256796E+02  0.00000000000E+00 0. -1.
          2   -1    0    0  501    0  0.00000000000E+00 -0.00000000000E+00 -0.40470463374E+03  0.40470463374E+03  0.00000000000E+00 0.  1.
         23    2    1    2    0    0 -0.96374790558E+02 -0.63754049997E+02 -0.28789690829E+03  0.32288065979E+03  0.89524362674E+02 0.  0.
          5    1    1    2  502    0  0.39519301110E+02  0.23247557782E+01  0.46715442049E+02  0.61375765376E+02  0.41800000000E+01 0. -1.
         -5    1    1    2    0  502  0.56855489448E+02  0.61429294218E+02 -0.72896910697E+02  0.11107446537E+03  0.41800000000E+01 0. -1.
        -11    1    3    3    0    0 -0.69622186941E+02 -0.49035877510E+01 -0.21195023903E+03  0.22314613578E+03  0.00000000000E+00 0.  1.
         11    1    3    3    0    0 -0.26752603616E+02 -0.58850462246E+02 -0.75946669261E+02  0.99734524006E+02  0.00000000000E+00 0. -1.
</event>
<event>
 8    1  0.6597859E-009  0.1094769E+03  0.7561462E-02  0.1261542E+00
         -2   -1    0    0    0  501 -0.00000000000E+00  0.00000000000E+00  0.33684717261E+02  0.33684717261E+02  0.00000000000E+00 0.  1.
          2   -1    0    0  501    0  0.00000000000E+00 -0.00000000000E+00 -0.65226080146E+03  0.65226080146E+03  0.00000000000E+00 0. -1.
         25    2    1    2    0    0  0.31503348305E+02  0.26534289210E+02 -0.54786407807E+03  0.56346993000E+03  0.12508710774E+03 0.  0.
         23    2    1    2    0    0 -0.31503348305E+02 -0.26534289210E+02 -0.70712006132E+02  0.12247558872E+03  0.91123830925E+02 0.  0.
          5    1    3    3  502    0 -0.44898776912E+02  0.30748733725E+02 -0.25198823382E+03  0.25783119900E+03  0.41800000000E+01 0.  1.
         -5    1    3    3    0  502  0.76402125217E+02 -0.42144445143E+01 -0.29587584425E+03  0.30563873101E+03  0.41800000000E+01 0.  1.
        -11    1    4    4    0    0 -0.12677535834E+02 -0.53429653732E+02 -0.13555094018E+02  0.56561368323E+02  0.00000000000E+00 0.  1.
         11    1    4    4    0    0 -0.18825812471E+02  0.26895364521E+02 -0.57156912114E+02  0.65914220396E+02  0.00000000000E+00 0. -1.
</event>
<event>
 8    1  0.6597859E-009  0.1878741E+03  0.7561462E-02  0.1160393E+00
          4   -1    0    0  501    0  0.00000000000E+00  0.00000000000E+00  0.21960497477E+03  0.21960497477E+03  0.00000000000E+00 0. -1.
         -4   -1    0    0    0  501 -0.00000000000E+00 -0.00000000000E+00 -0.16783574350E+03  0.16783574350E+03  0.00000000000E+00 0.  1.
         25    2    1    2    0    0 -0.12436496990E+03 -0.98042765914E+02  0.33703844461E+02  0.20460281177E+03  0.12508929516E+03 0.  0.
         23    2    1    2    0    0  0.12436496990E+03  0.98042765914E+02  0.18065386809E+02  0.18283790650E+03  0.89578525130E+02 0.  0.
          5    1    3    3  502    0  0.17861648369E+02 -0.41661597473E+02 -0.74216424372E+01  0.46122449663E+02  0.41800000000E+01 0.  1.
         -5    1    3    3    0  502 -0.14222661827E+03 -0.56381168441E+02  0.41125486898E+02  0.15848036210E+03  0.41800000000E+01 0.  1.
        -11    1    4    4    0    0  0.28808380199E+02 -0.12198375638E+02 -0.12655758470E+02  0.33747464503E+02  0.00000000000E+00 0.  1.
         11    1    4    4    0    0  0.95556589703E+02  0.11024114155E+03  0.30721145279E+02  0.14909044199E+03  0.00000000000E+00 0. -1.
</event>
<event>
 8    1  0.6597859E-009  0.9752836E+02  0.7561462E-02  0.1285581E+00
          1   -1    0    0  501    0  0.00000000000E+00  0.00000000000E+00  0.39887128395E+02  0.39887128395E+02  0.00000000000E+00 0. -1.
         -1   -1    0    0    0  501 -0.00000000000E+00 -0.00000000000E+00 -0.37177883423E+03  0.37177883423E+03  0.00000000000E+00 0.  1.
         25    2    1    2    0    0  0.40617321697E+02  0.32230641446E+02 -0.21938013686E+03  0.25780598031E+03  0.12509075892E+03 0.  0.
         23    2    1    2    0    0 -0.40617321697E+02 -0.32230641446E+02 -0.11251156898E+03  0.15385998231E+03  0.91243958339E+02 0.  0.
          5    1    3    3  502    0 -0.23993467564E+02  0.96303444733E+01  0.17873714830E+01  0.26250659367E+02  0.41800000000E+01 0. -1.
         -5    1    3    3    0  502  0.64610789260E+02  0.22600296973E+02 -0.22116750834E+03  0.23155532094E+03  0.41800000000E+01 0. -1.
        -11    1    4    4    0    0  0.18047611544E+02 -0.37269260581E+02 -0.24958005577E+02  0.48348899771E+02  0.00000000000E+00 0. -1.
         11    1    4    4    0    0 -0.58664933240E+02  0.50386191345E+01 -0.87553563399E+02  0.10551108254E+03  0.00000000000E+00 0.  1.
</event>
<event>
 8    1  0.6597859E-009  0.1081977E+03  0.7561462E-02  0.1263944E+00
          1   -1    0    0  501    0  0.00000000000E+00  0.00000000000E+00  0.10650345518E+04  0.10650345518E+04  0.00000000000E+00 0. -1.
         -1   -1    0    0    0  501 -0.00000000000E+00 -0.00000000000E+00 -0.12698287475E+02  0.12698287475E+02  0.00000000000E+00 0.  1.
         25    2    1    2    0    0 -0.40275394172E+00  0.43740382248E+02  0.74393570312E+03  0.75564603810E+03  0.12508885351E+03 0.  0.
         23    2    1    2    0    0  0.40275394172E+00 -0.43740382248E+02  0.30840056116E+03  0.32208680113E+03  0.81948874838E+02 0.  0.
          5    1    3    3  502    0  0.52966258375E+02  0.45877765440E+02  0.28164275693E+03  0.29025903744E+03  0.41800000000E+01 0. -1.
         -5    1    3    3    0  502 -0.53369012317E+02 -0.21373831920E+01  0.46229294619E+03  0.46538700066E+03  0.41800000000E+01 0. -1.
        -11    1    4    4    0    0  0.19797582548E+02  0.18704152119E+02  0.79877395064E+02  0.84393055540E+02  0.00000000000E+00 0.  1.
         11    1    4    4    0    0 -0.19394828606E+02 -0.62444534367E+02  0.22852316610E+03  0.23769374559E+03  0.00000000000E+00 0. -1.
</event>
<event>
 8    1  0.6597859E-009  0.9584963E+02  0.7561462E-02  0.1289274E+00
         -2   -1    0    0    0  501 -0.00000000000E+00  0.00000000000E+00  0.98048276965E+01  0.98048276965E+01  0.00000000000E+00 0.  1.
          2   -1    0    0  501    0  0.00000000000E+00 -0.00000000000E+00 -0.16201695185E+04  0.16201695185E+04  0.00000000000E+00 0. -1.
         25    2    1    2    0    0  0.11532319055E+02 -0.31867280546E+02 -0.12272412818E+04  0.12340661515E+04  0.12509829933E+03 0.  0.
         23    2    1    2    0    0 -0.11532319055E+02  0.31867280546E+02 -0.38312340896E+03  0.39590819469E+03  0.93868174441E+02 0.  0.
          5    1    3    3  502    0  0.20722137095E+02  0.26863379776E+02 -0.10891808998E+03  0.11415634394E+03  0.41800000000E+01 0.  1.
         -5    1    3    3    0  502 -0.91898180409E+01 -0.58730660322E+02 -0.11183231918E+04  0.11199098075E+04  0.41800000000E+01 0.  1.
        -11    1    4    4    0    0 -0.12361594202E+02 -0.31868683156E+02 -0.17236744541E+03  0.17572409685E+03  0.00000000000E+00 0.  1.
         11    1    4    4    0    0  0.82927514756E+00  0.63735963702E+02 -0.21075596355E+03  0.22018409783E+03  0.00000000000E+00 0. -1.
</event>
<event>
 8    1  0.6597859E-009  0.6386769E+02  0.7561462E-02  0.1382282E+00
         -2   -1    0    0    0  501 -0.00000000000E+00  0.00000000000E+00  0.23378392979E+03  0.23378392979E+03  0.00000000000E+00 0.  1.
          2   -1    0    0  501    0  0.00000000000E+00 -0.00000000000E+00 -0.55340169358E+02  0.55340169358E+02  0.00000000000E+00 0. -1.
         25    2    1    2    0    0  0.19803380572E+02 -0.23605078292E+02  0.75856737539E+02  0.14950263547E+03  0.12508964697E+03 0.  0.
         23    2    1    2    0    0 -0.19803380572E+02  0.23605078292E+02  0.10258702289E+03  0.13962146368E+03  0.89558261768E+02 0.  0.
          5    1    3    3  502    0 -0.21621628042E+02 -0.85808353009E+01  0.97434498159E+02  0.10026005867E+03  0.41800000000E+01 0. -1.
         -5    1    3    3    0  502  0.41425008614E+02 -0.15024242991E+02 -0.21577760620E+02  0.49242576795E+02  0.41800000000E+01 0. -1.
        -11    1    4    4    0    0 -0.34480726127E+02  0.30986350289E+01  0.10835605212E+03  0.11375216941E+03  0.00000000000E+00 0.  1.
         11    1    4    4    0    0  0.14677345555E+02  0.20506443263E+02 -0.57690292313E+01  0.25869294271E+02  0.00000000000E+00 0. -1.
</event>
<event>
 7    1  0.6597859E-009  0.1121938E+03  0.7561462E-02  0.1256560E+00
          1   -1    0    0  501    0  0.00000000000E+00  0.00000000000E+00  0.27327727786E+02  0.27327727786E+02  0.00000000000E+00 0. -1.
         -1   -1    0    0    0  501 -0.00000000000E+00 -0.00000000000E+00 -0.11503172036E+04  0.11503172036E+04  0.00000000000E+00 0.  1.
         23    2    1    2    0    0 -0.68487942641E+02  0.41061531261E+02 -0.15200510410E+03  0.19537392246E+03  0.93213573398E+02 0.  0.
          5    1    1    2  502    0  0.35985591695E+02 -0.83285347796E+02 -0.71657430526E+03  0.72230715026E+03  0.41800000000E+01 0. -1.
         -5    1    1    2    0  502  0.32502350945E+02  0.42223816535E+02 -0.25441006642E+03  0.25996385863E+03  0.41800000000E+01 0. -1.
        -11    1    3    3    0    0 -0.19224301961E+02  0.82143542273E+01  0.97903210701E+01  0.23084622326E+02  0.00000000000E+00 0. -1.
         11    1    3    3    0    0 -0.49263640680E+02  0.32847177034E+02 -0.16179542517E+03  0.17228930013E+03  0.00000000000E+00 0.  1.
</event>
<event>
 8    1  0.6597859E-009  0.1081193E+03  0.7561462E-02  0.1264093E+00
         -2   -1    0    0    0  501 -0.00000000000E+00  0.00000000000E+00  0.11241192321E+03  0.11241192321E+03  0.00000000000E+00 0.  1.
          2   -1    0    0  501    0  0.00000000000E+00 -0.00000000000E+00 -0.11666749494E+03  0.11666749494E+03  0.00000000000E+00 0. -1.
         25    2    1    2    0    0  0.30986416014E+02 -0.34257967602E+02  0.23216075440E+02  0.13535308931E+03  0.12509079225E+03 0.  0.
         23    2    1    2    0    0 -0.30986416014E+02  0.34257967602E+02 -0.27471647167E+02  0.93726328842E+02  0.76786502711E+02 0.  0.
          5    1    3    3  502    0 -0.39357454464E+02 -0.43055895253E+02  0.26619725567E+02  0.64256529063E+02  0.41800000000E+01 0.  1.
         -5    1    3    3    0  502  0.70343870478E+02  0.87979276510E+01 -0.34036501270E+01  0.71096560247E+02  0.41800000000E+01 0.  1.
        -11    1    4    4    0    0 -0.18187611465E+02  0.57444954742E+02 -0.29643833610E+02  0.67152579305E+02  0.00000000000E+00 0. -1.
         11    1    4    4    0    0 -0.12798804548E+02 -0.23186987141E+02  0.21721864439E+01  0.26573749537E+02  0.00000000000E+00 0.  1.
</event>
<event>
 8    1  0.6597859E-009  0.2196338E+03  0.7561462E-02  0.1134156E+00
          1   -1    0    0  501    0  0.00000000000E+00  0.00000000000E+00  0.49734080577E+03  0.49734080577E+03  0.00000000000E+00 0. -1.
         -1   -1    0    0    0  501 -0.00000000000E+00 -0.00000000000E+00 -0.10845051544E+03  0.10845051544E+03  0.00000000000E+00 0.  1.
         25    2    1    2    0    0  0.19523579153E+03 -0.73002564998E+01  0.11964454789E+03  0.26102245038E+03  0.12509034225E+03 0.  0.
         23    2    1    2    0    0 -0.19523579153E+03  0.73002564998E+01  0.26924574244E+03  0.34476887082E+03  0.90564874145E+02 0.  0.
          5    1    3    3  502    0  0.17191626711E+03  0.42179255178E+02  0.93926142876E+02  0.20043424153E+03  0.41800000000E+01 0.  1.
         -5    1    3    3    0  502  0.23319524420E+02 -0.49479511678E+02  0.25718405013E+02  0.60588208848E+02  0.41800000000E+01 0.  1.
        -11    1    4    4    0    0 -0.18668971060E+03 -0.11138255560E+02  0.20550073101E+03  0.27786266253E+03  0.00000000000E+00 0.  1.
         11    1    4    4    0    0 -0.85460809231E+01  0.18438512060E+02  0.63745011430E+02  0.66906208294E+02  0.00000000000E+00 0. -1.
</event>
<event>
 8    1  0.6597859E-009  0.1076192E+03  0.7561462E-02  0.1265043E+00
         -2   -1    0    0    0  501 -0.00000000000E+00  0.00000000000E+00  0.23064876549E+02  0.23064876549E+02  0.00000000000E+00 0. -1.
          2   -1    0    0  501    0  0.00000000000E+00 -0.00000000000E+00 -0.65888648112E+03  0.65888648112E+03  0.00000000000E+00 0.  1.
         25    2    1    2    0    0  0.33899098211E+02 -0.16725547848E+02 -0.48179492671E+03  0.49920294441E+03  0.12509330715E+03 0.  0.
         23    2    1    2    0    0 -0.33899098211E+02  0.16725547848E+02 -0.15402667786E+03  0.18274841326E+03  0.90795772177E+02 0.  0.
          5    1    3    3  502    0  0.48540438405E+02 -0.63314822945E+02 -0.25719610928E+03  0.26931812415E+03  0.41800000000E+01 0.  1.
         -5    1    3    3    0  502 -0.14641340194E+02  0.46589275096E+02 -0.22459881743E+03  0.22988482026E+03  0.41800000000E+01 0.  1.
        -11    1    4    4    0    0  0.13356047399E+02  0.33599327877E+02 -0.24055705515E+02  0.43427822922E+02  0.00000000000E+00 0. -1.
         11    1    4    4    0    0 -0.47255145610E+02 -0.16873780029E+02 -0.12997097235E+03  0.13932059034E+03  0.00000000000E+00 0.  1.
</event>
<event>
 8    1  0.6597859E-009  0.3370833E+03  0.7561462E-02  0.1068045E+00
          1   -1    0    0  501    0  0.00000000000E+00  0.00000000000E+00  0.70384099251E+03  0.70384099251E+03  0.00000000000E+00 0. -1.
         -1   -1    0    0    0  501 -0.00000000000E+00 -0.00000000000E+00 -0.16873161238E+03  0.16873161238E+03  0.00000000000E+00 0.  1.
         25    2    1    2    0    0  0.28869868339E+03  0.14216805411E+03  0.34447694629E+03  0.48771947264E+03  0.12508889665E+03 0.  0.
         23    2    1    2    0    0 -0.28869868339E+03 -0.14216805411E+03  0.19063243385E+03  0.38485313225E+03  0.90622972627E+02 0.  0.
          5    1    3    3  502    0  0.29548390191E+03  0.11761286502E+03  0.32907259283E+03  0.45765682127E+03  0.41800000000E+01 0.  1.
         -5    1    3    3    0  502 -0.67852185237E+01  0.24555189088E+02  0.15404353465E+02  0.30062651367E+02  0.41800000000E+01 0.  1.
        -11    1    4    4    0    0 -0.23216693819E+03 -0.14493577201E+03  0.17911611032E+03  0.32709394090E+03  0.00000000000E+00 0.  1.
         11    1    4    4    0    0 -0.56531745201E+02  0.27677179039E+01  0.11516323526E+02  0.57759191350E+02  0.00000000000E+00 0. -1.
</event>
<event>
 8    1  0.6597859E-009  0.7886944E+02  0.7561462E-02  0.1332291E+00
         -1   -1    0    0    0  501 -0.00000000000E+00  0.00000000000E+00  0.27904742873E+03  0.27904742873E+03  0.00000000000E+00 0.  1.
          1   -1    0    0  501    0  0.00000000000E+00 -0.00000000000E+00 -0.56719649073E+02  0.56719649073E+02  0.00000000000E+00 0. -1.
         25    2    1    2    0    0 -0.23831777320E+02  0.17519767237E+02  0.19847109513E+03  0.23645916553E+03  0.12508903032E+03 0.  0.
         23    2    1    2    0    0  0.23831777320E+02 -0.17519767237E+02  0.23856684531E+02  0.99307912276E+02  0.91749791223E+02 0.  0.
          5    1    3    3  502    0 -0.63256749551E+02 -0.24344846230E+02  0.81769507290E+02  0.10629116908E+03  0.41800000000E+01 0. -1.
         -5    1    3    3    0  502  0.39424972231E+02  0.41864613467E+02  0.11670158784E+03  0.13016799645E+03  0.41800000000E+01 0. -1.
        -11    1    4    4    0    0  0.13744464928E+02 -0.17283470068E+02  0.58867048761E+02  0.62872554295E+02  0.00000000000E+00 0.  1.
         11    1    4    4    0    0  0.10087312392E+02 -0.23629716926E+00 -0.35010364230E+02  0.36435357981E+02  0.00000000000E+00 0. -1.
</event>
<event>
 8    1  0.6597859E-009  0.1339834E+03  0.7561462E-02  0.1221662E+00
         -1   -1    0    0    0  501 -0.00000000000E+00  0.00000000000E+00  0.27236308808E+02  0.27236308808E+02  0.00000000000E+00 0.  1.
          1   -1    0    0  501    0  0.00000000000E+00 -0.00000000000E+00 -0.67236024383E+03  0.67236024383E+03  0.00000000000E+00 0. -1.
         25    2    1    2    0    0 -0.72906954217E+02 -0.34779940413E+02 -0.34580458978E+03  0.37650251531E+03  0.12509301137E+03 0.  0.
         23    2    1    2    0    0  0.72906954217E+02  0.34779940413E+02 -0.29931934524E+03  0.32309403733E+03  0.90953935001E+02 0.  0.
          5    1    3    3  502    0 -0.98833114120E+02  0.46325611366E+01 -0.19955870203E+03  0.22277924729E+03  0.41800000000E+01 0.  1.
         -5    1    3    3    0  502  0.25926159903E+02 -0.39412501550E+02 -0.14624588775E+03  0.15372326802E+03  0.41800000000E+01 0.  1.
        -11    1    4    4    0    0 -0.54561168201E+01 -0.23367789805E+02 -0.54847227113E+02  0.59866861727E+02  0.00000000000E+00 0. -1.
         11    1    4    4    0    0  0.78363071037E+02  0.58147730218E+02 -0.24447211813E+03  0.26322717560E+03  0.00000000000E+00 0.  1.
</event>
<event>
 8    1  0.6597859E-009  0.1842777E+03  0.7561462E-02  0.1163726E+00
          2   -1    0    0  501    0  0.00000000000E+00  0.00000000000E+00  0.90127957478E+03  0.90127957478E+03  0.00000000000E+00 0. -1.
         -2   -1    0    0    0  501 -0.00000000000E+00 -0.00000000000E+00 -0.16076938850E+03  0.16076938850E+03  0.00000000000E+00 0.  1.
         25    2    1    2    0    0  0.13916360986E+03 -0.95956990120E+02  0.82562751653E+03  0.85198672827E+03  0.12508531026E+03 0.  0.
         23    2    1    2    0    0 -0.13916360986E+03  0.95956990120E+02 -0.85117330248E+02  0.21006223501E+03  0.91142352420E+02 0.  0.
          5    1    3    3  502    0  0.23815592001E+02  0.54586185498E+01  0.37629289053E+03  0.37710846027E+03  0.41800000000E+01 0.  1.
         -5    1    3    3    0  502  0.11534801786E+03 -0.10141560867E+03  0.44933462600E+03  0.47487826801E+03  0.41800000000E+01 0.  1.
        -11    1    4    4    0    0 -0.11551906808E+02  0.54845197357E+02 -0.38998256042E+02  0.68281082288E+02  0.00000000000E+00 0.  1.
         11    1    4    4    0    0 -0.12761170306E+03  0.41111792763E+02 -0.46119074206E+02  0.14178115272E+03  0.00000000000E+00 0. -1.
</event>
<event>
 8    1  0.6597859E-009  0.1111105E+03  0.7561462E-02  0.1258527E+00
          2   -1    0    0  501    0  0.00000000000E+00  0.00000000000E+00  0.15129325370E+03  0.15129325370E+03  0.00000000000E+00 0. -1.
         -2   -1    0    0    0  501 -0.00000000000E+00 -0.00000000000E+00 -0.10237307144E+03  0.10237307144E+03  0.00000000000E+00 0.  1.
         25    2    1    2    0    0  0.22225651486E+02  0.56969815359E+02  0.16123171457E+02  0.14017381172E+03  0.12509676810E+03 0.  0.
         23    2    1    2    0    0 -0.22225651486E+02 -0.56969815359E+02  0.32797010808E+02  0.11349251341E+03  0.89807389656E+02 0.  0.
          5    1    3    3  502    0 -0.37676702507E+02 -0.17262526405E+02 -0.62209545351E+01  0.42115334559E+02  0.41800000000E+01 0. -1.
         -5    1    3    3    0  502  0.59902353993E+02  0.74232341764E+02  0.22344125992E+02  0.98058477166E+02  0.41800000000E+01 0. -1.
        -11    1    4    4    0    0 -0.13704470039E+02  0.10386430925E+02 -0.20804100600E+02  0.26990758570E+02  0.00000000000E+00 0.  1.
         11    1    4    4    0    0 -0.85211814478E+01 -0.67356246284E+02  0.53601111408E+02  0.86501754843E+02  0.00000000000E+00 0. -1.
</event>
<event>
 8    1  0.6597859E-009  0.1458694E+03  0.7561462E-02  0.1205643E+00
          2   -1    0    0  501    0  0.00000000000E+00  0.00000000000E+00  0.34240700298E+03  0.34240700298E+03  0.00000000000E+00 0. -1.
         -2   -1    0    0    0  501 -0.00000000000E+00 -0.00000000000E+00 -0.92192275245E+02  0.92192275245E+02  0.00000000000E+00 0.  1.
         25    2    1    2    0    0 -0.81628302767E+02  0.10523193898E+03  0.81579732486E+02  0.20008780681E+03  0.12507172697E+03 0.  0.
         23    2    1    2    0    0  0.81628302767E+02 -0.10523193898E+03  0.16863499525E+03  0.23451147141E+03  0.93919794557E+02 0.  0.
          5    1    3    3  502    0 -0.27594693638E+02 -0.77729369429E+01 -0.22893924539E+02  0.36925463389E+02  0.41800000000E+01 0.  1.
         -5    1    3    3    0  502 -0.54033609129E+02  0.11300487592E+03  0.10447365703E+03  0.16316234342E+03  0.41800000000E+01 0.  1.
        -11    1    4    4    0    0  0.37949142241E+02 -0.75799643160E+02  0.36550468128E+02  0.92312837787E+02  0.00000000000E+00 0.  1.
         11    1    4    4    0    0  0.43679160527E+02 -0.29432295819E+02  0.13208452712E+03  0.14219863363E+03  0.00000000000E+00 0. -1.
</event>
<event>
 8    1  0.6597859E-009  0.1336813E+03  0.7561462E-02  0.1222093E+00
          2   -1    0    0  501    0  0.00000000000E+00  0.00000000000E+00  0.58412124848E+02  0.58412124848E+02  0.00000000000E+00 0. -1.
         -2   -1    0    0    0  501 -0.00000000000E+00 -0.00000000000E+00 -0.42132035421E+03  0.42132035421E+03  0.00000000000E+00 0.  1.
         25    2    1    2    0    0  0.11251546157E+03 -0.37049319792E+01 -0.16609630830E+03  0.23645089244E+03  0.12509030854E+03 0.  0.
         23    2    1    2    0    0 -0.11251546157E+03  0.37049319792E+01 -0.19681192106E+03  0.24328158662E+03  0.88190376473E+02 0.  0.
          5    1    3    3  502    0  0.61091200967E+02  0.43521549067E+02 -0.25356388728E+02  0.79288579998E+02  0.41800000000E+01 0. -1.
         -5    1    3    3    0  502  0.51424260605E+02 -0.47226481046E+02 -0.14073991957E+03  0.15716231244E+03  0.41800000000E+01 0. -1.
        -11    1    4    4    0    0 -0.98004989986E+02 -0.14436229609E+02 -0.19648948798E+03  0.22004886202E+03  0.00000000000E+00 0.  1.
         11    1    4    4    0    0 -0.14510471585E+02  0.18141161588E+02 -0.32243308066E+00  0.23232724603E+02  0.00000000000E+00 0. -1.
</event>
<event>
 8    1  0.6597859E-009  0.1478734E+03  0.7561462E-02  0.1203111E+00
          3   -1    0    0  501    0  0.00000000000E+00  0.00000000000E+00  0.13027279392E+03  0.13027279392E+03  0.00000000000E+00 0. -1.
         -3   -1    0    0    0  501 -0.00000000000E+00 -0.00000000000E+00 -0.22779972713E+03  0.22779972713E+03  0.00000000000E+00 0.  1.
         25    2    1    2    0    0 -0.12202964093E+03  0.82118980550E+01  0.33001329648E+01  0.17497687204E+03  0.12508935340E+03 0.  0.
         23    2    1    2    0    0  0.12202964093E+03 -0.82118980550E+01 -0.10082706618E+03  0.18309564901E+03  0.91647427007E+02 0.  0.
          5    1    3    3  502    0 -0.85965077122E+02 -0.44219621436E+02  0.36081947161E+02  0.10327027024E+03  0.41800000000E+01 0. -1.
         -5    1    3    3    0  502 -0.36064563811E+02  0.52431519491E+02 -0.32781814196E+02  0.71706601795E+02  0.41800000000E+01 0. -1.
        -11    1    4    4    0    0  0.11912070140E+03  0.73805215013E+01 -0.49209519943E+02  0.12909605127E+03  0.00000000000E+00 0. -1.
         11    1    4    4    0    0  0.29089395305E+01 -0.15592419556E+02 -0.51617546240E+02  0.53999597745E+02  0.00000000000E+00 0.  1.
</event>
<event>
 8    1  0.6597859E-009  0.1304575E+03  0.7561462E-02  0.1226778E+00
         -2   -1    0    0    0  501 -0.00000000000E+00  0.00000000000E+00  0.28104088920E+03  0.28104088920E+03  0.00000000000E+00 0.  1.
          2   -1    0    0  501    0  0.00000000000E+00 -0.00000000000E+00 -0.68784641927E+02  0.68784641927E+02  0.00000000000E+00 0. -1.
         25    2    1    2    0    0 -0.53586062248E+02  0.57659940343E+02  0.13092589407E+03  0.19744661747E+03  0.12508973669E+03 0.  0.
         23    2    1    2    0    0  0.53586062248E+02 -0.57659940343E+02  0.81330353206E+02  0.15237891366E+03  0.10202241022E+03 0.  0.
          5    1    3    3  502    0  0.39769429415E+02  0.45500727718E+01  0.33135373880E+02  0.52131910384E+02  0.41800000000E+01 0.  1.
         -5    1    3    3    0  502 -0.93355491663E+02  0.53109867572E+02  0.97790520188E+02  0.14531470709E+03  0.41800000000E+01 0.  1.
        -11    1    4    4    0    0 -0.21240941421E+02 -0.54140280010E+01 -0.92539781380E+01  0.23793389902E+02  0.00000000000E+00 0. -1.
         11    1    4    4    0    0  0.74827003669E+02 -0.52245912342E+02  0.90584331344E+02  0.12858552376E+03  0.00000000000E+00 0.  1.
</event>
<event>
 8    1  0.6597859E-009  0.1146244E+03  0.7561462E-02  0.1252238E+00
          2   -1    0    0  501    0  0.00000000000E+00  0.00000000000E+00  0.90314944314E+02  0.90314944314E+02  0.00000000000E+00 0.  1.
         -2   -1    0    0    0  501 -0.00000000000E+00 -0.00000000000E+00 -0.15040692571E+03  0.15040692571E+03  0.00000000000E+00 0. -1.
         25    2    1    2    0    0 -0.37626426437E+02  0.19885225063E+02 -0.38910870971E+02  0.13774647666E+03  0.12509542681E+03 0.  0.
         23    2    1    2    0    0  0.37626426437E+02 -0.19885225063E+02 -0.21181110425E+02  0.10297539337E+03  0.91346166081E+02 0.  0.
          5    1    3    3  502    0 -0.56325667101E+02 -0.39852646279E+02 -0.24836192792E+02  0.73451501430E+02  0.41800000000E+01 0.  1.
         -5    1    3    3    0  502  0.18699240664E+02  0.59737871342E+02 -0.14074678179E+02  0.64294975229E+02  0.41800000000E+01 0.  1.
        -11    1    4    4    0    0  0.50859163242E+02 -0.45702807777E+02 -0.24068173242E+01  0.68419250902E+02  0.00000000000E+00 0.  1.
         11    1    4    4    0    0 -0.13232736805E+02  0.25817582714E+02 -0.18774293101E+02  0.34556142464E+02  0.00000000000E+00 0. -1.
</event>
<event>
 8    1  0.6597859E-009  0.3444594E+03  0.7561462E-02  0.1064912E+00
         -1   -1    0    0    0  501 -0.00000000000E+00  0.00000000000E+00  0.36649223384E+03  0.36649223384E+03  0.00000000000E+00 0.  1.
          1   -1    0    0  501    0  0.00000000000E+00 -0.00000000000E+00 -0.46296587343E+03  0.46296587343E+03  0.00000000000E+00 0. -1.
         25    2    1    2    0    0 -0.34045757368E+03 -0.25291066243E+02 -0.25369475832E+03  0.44333504317E+03  0.12503572527E+03 0.  0.
         23    2    1    2    0    0  0.34045757368E+03  0.25291066243E+02  0.15722111873E+03  0.38612306410E+03  0.88439487456E+02 0.  0.
          5    1    3    3  502    0 -0.86142327975E+02  0.54419516533E+01 -0.13661353812E+03  0.16165038418E+03  0.41800000000E+01 0.  1.
         -5    1    3    3    0  502 -0.25431524571E+03 -0.30733017897E+02 -0.11708122020E+03  0.28168465899E+03  0.41800000000E+01 0.  1.
        -11    1    4    4    0    0  0.20457062081E+03 -0.13420971275E+02  0.12845886568E+03  0.24193168776E+03  0.00000000000E+00 0.  1.
         11    1    4    4    0    0  0.13588695287E+03  0.38712037518E+02  0.28762253049E+02  0.14419137634E+03  0.00000000000E+00 0. -1.
</event>
<event>
 8    1  0.6597859E-009  0.1039311E+03  0.7561462E-02  0.1272240E+00
          2   -1    0    0  501    0  0.00000000000E+00  0.00000000000E+00  0.12405239391E+04  0.12405239391E+04  0.00000000000E+00 0. -1.
         -2   -1    0    0    0  501 -0.00000000000E+00 -0.00000000000E+00 -0.11095671360E+02  0.11095671360E+02  0.00000000000E+00 0.  1.
         25    2    1    2    0    0  0.32339891424E+02  0.17737185507E+02  0.86930273060E+03  0.87903089295E+03  0.12509035535E+03 0.  0.
         23    2    1    2    0    0 -0.32339891424E+02 -0.17737185507E+02  0.36012553711E+03  0.37258871749E+03  0.88155961735E+02 0.  0.
          5    1    3    3  502    0  0.53993748884E+02 -0.29054062173E+02  0.24506158920E+03  0.25265018969E+03  0.41800000000E+01 0. -1.
         -5    1    3    3    0  502 -0.21653857460E+02  0.46791247680E+02  0.62424114139E+03  0.62638070326E+03  0.41800000000E+01 0. -1.
        -11    1    4    4    0    0  0.91468016592E+00 -0.49015756894E+02  0.16109458435E+03  0.16838897283E+03  0.00000000000E+00 0. -1.
         11    1    4    4    0    0 -0.33254571590E+02  0.31278571387E+02  0.19903095277E+03  0.20419974466E+03  0.00000000000E+00 0.  1.
</event>
<event>
 8    1  0.6597859E-009  0.1318629E+03  0.7561462E-02  0.1224717E+00
         -1   -1    0    0    0  501 -0.00000000000E+00  0.00000000000E+00  0.22741028270E+03  0.22741028270E+03  0.00000000000E+00 0.  1.
          1   -1    0    0  501    0  0.00000000000E+00 -0.00000000000E+00 -0.98925678587E+02  0.98925678587E+02  0.00000000000E+00 0. -1.
         25    2    1    2    0    0 -0.10280895728E+03 -0.10077268358E+02  0.61158555791E+02  0.17336862681E+03  0.12508028933E+03 0.  0.
         23    2    1    2    0    0  0.10280895728E+03  0.10077268358E+02  0.67326048320E+02  0.15296733448E+03  0.90526104520E+02 0.  0.
          5    1    3    3  502    0 -0.89164111660E+02 -0.60623114327E+02  0.28802002981E+02  0.11168002764E+03  0.41800000000E+01 0.  1.
         -5    1    3    3    0  502 -0.13644845624E+02  0.50545845969E+02  0.32356552809E+02  0.61688599161E+02  0.41800000000E+01 0.  1.
        -11    1    4    4    0    0  0.53148461599E+02  0.51194985711E+01  0.84697513599E+02  0.10012310945E+03  0.00000000000E+00 0.  1.
         11    1    4    4    0    0  0.49660495685E+02  0.49577697869E+01 -0.17371465279E+02  0.52844225029E+02  0.00000000000E+00 0. -1.
</event>
<event>
 8    1  0.6597859E-009  0.9835329E+02  0.7561462E-02  0.1283797E+00
         -1   -1    0    0    0  501 -0.00000000000E+00  0.00000000000E+00  0.16662490849E+02  0.16662490849E+02  0.00000000000E+00 0.  1.
          1   -1    0    0  501    0  0.00000000000E+00 -0.00000000000E+00 -0.77398666017E+03  0.77398666017E+03  0.00000000000E+00 0. -1.
         25    2    1    2    0    0  0.27833569032E+02 -0.24348202199E+02 -0.57969994751E+03  0.59419306194E+03  0.12508326509E+03 0.  0.
         23    2    1    2    0    0 -0.27833569032E+02  0.24348202199E+02 -0.17762422182E+03  0.19645608908E+03  0.75346454763E+02 0.  0.
          5    1    3    3  502    0 -0.63496647670E+01  0.47439898461E+02 -0.16208980802E+03  0.16906046396E+03  0.41800000000E+01 0.  1.
         -5    1    3    3    0  502  0.34183233799E+02 -0.71788100660E+02 -0.41761013948E+03  0.42513259798E+03  0.41800000000E+01 0.  1.
        -11    1    4    4    0    0 -0.22747982514E+01  0.39342412091E+02 -0.15279897345E+03  0.15779900628E+03  0.00000000000E+00 0. -1.
         11    1    4    4    0    0 -0.25558770781E+02 -0.14994209892E+02 -0.24825248370E+02  0.38657082802E+02  0.00000000000E+00 0.  1.
</event>
<event>
 8    1  0.6597859E-009  0.1380283E+03  0.7561462E-02  0.1216007E+00
         -1   -1    0    0    0  501 -0.00000000000E+00  0.00000000000E+00  0.50147814736E+02  0.50147814736E+02  0.00000000000E+00 0.  1.
          1   -1    0    0  501    0  0.00000000000E+00 -0.00000000000E+00 -0.58914592078E+03  0.58914592078E+03  0.00000000000E+00 0. -1.
         25    2    1    2    0    0  0.12824535256E+02  0.12885143358E+03 -0.34316575975E+03  0.38752616024E+03  0.12508647236E+03 0.  0.
         23    2    1    2    0    0 -0.12824535256E+02 -0.12885143358E+03 -0.19583234629E+03  0.25176757527E+03  0.90936480379E+02 0.  0.
          5    1    3    3  502    0  0.23391093692E+01  0.96941771086E+02 -0.90832893305E+02  0.13293331155E+03  0.41800000000E+01 0.  1.
         -5    1    3    3    0  502  0.10485425887E+02  0.31909662491E+02 -0.25233286644E+03  0.25459284869E+03  0.41800000000E+01 0.  1.
        -11    1    4    4    0    0  0.26672733454E+02 -0.62133053720E+02 -0.14230504121E+03  0.15755213685E+03  0.00000000000E+00 0. -1.
         11    1    4    4    0    0 -0.39497268710E+02 -0.66718379857E+02 -0.53527305086E+02  0.94215438417E+02  0.00000000000E+00 0.  1.
</event>
<event>
 8    1  0.6597859E-009  0.1328063E+03  0.7561462E-02  0.1223350E+00
          2   -1    0    0  501    0  0.00000000000E+00  0.00000000000E+00  0.36248821278E+02  0.36248821278E+02  0.00000000000E+00 0. -1.
         -2   -1    0    0    0  501 -0.00000000000E+00 -0.00000000000E+00 -0.51377010944E+03  0.51377010944E+03  0.00000000000E+00 0.  1.
         25    2    1    2    0    0  0.11486529984E+02  0.82051647883E+02 -0.24958288941E+03  0.29121034343E+03  0.12508969639E+03 0.  0.
         23    2    1    2    0    0 -0.11486529984E+02 -0.82051647883E+02 -0.22793839875E+03  0.25880858729E+03  0.90341341246E+02 0.  0.
          5    1    3    3  502    0 -0.12268471769E+00  0.11125505177E+03 -0.22519215504E+03  0.25121043109E+03  0.41800000000E+01 0.  1.
         -5    1    3    3    0  502  0.11609214701E+02 -0.29203403882E+02 -0.24390734368E+02  0.39999912341E+02  0.41800000000E+01 0.  1.
        -11    1    4    4    0    0  0.29598777273E+01 -0.99714004892E+02 -0.18637622901E+03  0.21139475487E+03  0.00000000000E+00 0.  1.
         11    1    4    4    0    0 -0.14446407711E+02  0.17662357009E+02 -0.41562169739E+02  0.47413832415E+02  0.00000000000E+00 0. -1.
</event>
<event>
 8    1  0.6597859E-009  0.1377700E+03  0.7561462E-02  0.1216361E+00
         -4   -1    0    0    0  501 -0.00000000000E+00  0.00000000000E+00  0.20333855278E+03  0.20333855278E+03  0.00000000000E+00 0.  1.
          4   -1    0    0  501    0  0.00000000000E+00 -0.00000000000E+00 -0.14279434282E+03  0.14279434282E+03  0.00000000000E+00 0. -1.
         25    2    1    2    0    0 -0.82643915029E+02 -0.98855933178E+02  0.57678828914E+02  0.18862038306E+03  0.12509312285E+03 0.  0.
         23    2    1    2    0    0  0.82643915029E+02  0.98855933178E+02  0.28653810427E+01  0.15751251254E+03  0.90550919282E+02 0.  0.
          5    1    3    3  502    0 -0.57329151362E+02 -0.10308939272E+03 -0.76767998284E+01  0.11828127554E+03  0.41800000000E+01 0. -1.
         -5    1    3    3    0  502 -0.25314763667E+02  0.42334595392E+01  0.65355628743E+02  0.70339107526E+02  0.41800000000E+01 0. -1.
        -11    1    4    4    0    0  0.32899768982E+02  0.59825418741E+02 -0.41840484095E+02  0.80075599504E+02  0.00000000000E+00 0. -1.
         11    1    4    4    0    0  0.49744146047E+02  0.39030514437E+02  0.44705865138E+02  0.77436913038E+02  0.00000000000E+00 0.  1.
</event>
<event>
 8    1  0.6597859E-009  0.1095301E+03  0.7561462E-02  0.1261443E+00
          1   -1    0    0  501    0  0.00000000000E+00  0.00000000000E+00  0.22760640886E+03  0.22760640886E+03  0.00000000000E+00 0. -1.
         -1   -1    0    0    0  501 -0.00000000000E+00 -0.00000000000E+00 -0.63185056526E+02  0.63185056526E+02  0.00000000000E+00 0.  1.
         25    2    1    2    0    0  0.21744665242E+01 -0.49983949612E+02  0.10927051564E+03  0.17346526442E+03  0.12508808436E+03 0.  0.
         23    2    1    2    0    0 -0.21744665242E+01  0.49983949612E+02  0.55150836698E+02  0.11732620097E+03  0.90668071129E+02 0.  0.
          5    1    3    3  502    0  0.41082422732E+02  0.11869877030E+02  0.86880314998E+02  0.96924305375E+02  0.41800000000E+01 0.  1.
         -5    1    3    3    0  502 -0.38907956208E+02 -0.61853826642E+02  0.22390200639E+02  0.76540959042E+02  0.41800000000E+01 0.  1.
        -11    1    4    4    0    0 -0.79306730945E+01  0.75920232848E+02  0.46521408752E+02  0.89392498587E+02  0.00000000000E+00 0. -1.
         11    1    4    4    0    0  0.57562065703E+01 -0.25936283236E+02  0.86294279462E+01  0.27933702383E+02  0.00000000000E+00 0.  1.
</event>
<event>
 8    1  0.6597859E-009  0.7152916E+02  0.7561462E-02  0.1354969E+00
         -4   -1    0    0    0  501 -0.00000000000E+00  0.00000000000E+00  0.37790106201E+03  0.37790106201E+03  0.00000000000E+00 0.  1.
          4   -1    0    0  501    0  0.00000000000E+00 -0.00000000000E+00 -0.98787455209E+02  0.98787455209E+02  0.00000000000E+00 0. -1.
         25    2    1    2    0    0 -0.12039042613E+02 -0.48235044946E+02  0.32472779225E+03  0.35151583285E+03  0.12507471198E+03 0.  0.
         23    2    1    2    0    0  0.12039042613E+02  0.48235044946E+02 -0.45614185454E+02  0.12517268436E+03  0.10543239013E+03 0.  0.
          5    1    3    3  502    0  0.20379526543E+02  0.10688082460E+02  0.24921592115E+03  0.25031102246E+03  0.41800000000E+01 0.  1.
         -5    1    3    3    0  502 -0.32418569156E+02 -0.58923127406E+02  0.75511871096E+02  0.10120481039E+03  0.41800000000E+01 0.  1.
        -11    1    4    4    0    0  0.15014617704E+02  0.27429346068E+02  0.32012844319E+02  0.44750753869E+02  0.00000000000E+00 0.  1.
         11    1    4    4    0    0 -0.29755750910E+01  0.20805698878E+02 -0.77627029773E+02  0.80421930494E+02  0.00000000000E+00 0. -1.
</event>
<event>
 8    1  0.6597859E-009  0.1404225E+03  0.7561462E-02  0.1212762E+00
         -2   -1    0    0    0  501 -0.00000000000E+00  0.00000000000E+00  0.32724659970E+02  0.32724659970E+02  0.00000000000E+00 0. -1.
          2   -1    0    0  501    0  0.00000000000E+00 -0.00000000000E+00 -0.64007094720E+03  0.64007094720E+03  0.00000000000E+00 0.  1.
         25    2    1    2    0    0 -0.93542756799E+02  0.21288816714E+02 -0.32756027137E+03  0.36351804666E+03  0.12508468253E+03 0.  0.
         23    2    1    2    0    0  0.93542756799E+02 -0.21288816714E+02 -0.27978601587E+03  0.30927756051E+03  0.90382153635E+02 0.  0.
          5    1    3    3  502    0 -0.87275904420E+01  0.58950947851E+02 -0.86016294857E+02  0.10472659867E+03  0.41800000000E+01 0. -1.
         -5    1    3    3    0  502 -0.84815166357E+02 -0.37662131137E+02 -0.24154397651E+03  0.25879144799E+03  0.41800000000E+01 0. -1.
        -11    1    4    4    0    0  0.36073076414E+02  0.33192434578E+02 -0.14366136196E+03  0.15179456998E+03  0.00000000000E+00 0.  1.
         11    1    4    4    0    0  0.57469680385E+02 -0.54481251292E+02 -0.13612465390E+03  0.15748299053E+03  0.00000000000E+00 0. -1.
</event>
<event>
 8    1  0.6597859E-009  0.1341842E+03  0.7561462E-02  0.1221376E+00
          1   -1    0    0  501    0  0.00000000000E+00  0.00000000000E+00  0.10127120116E+03  0.10127120116E+03  0.00000000000E+00 0. -1.
         -1   -1    0    0    0  501 -0.00000000000E+00 -0.00000000000E+00 -0.17847201282E+03  0.17847201282E+03  0.00000000000E+00 0.  1.
         25    2    1    2    0    0 -0.56317042070E+01  0.80059038437E+02 -0.48591821213E+02  0.15636481123E+03  0.12509046077E+03 0.  0.
         23    2    1    2    0    0  0.56317042070E+01 -0.80059038437E+02 -0.28608990444E+02  0.12337840275E+03  0.89233346918E+02 0.  0.
          5    1    3    3  502    0  0.17983099890E+02  0.10915082537E+03 -0.32512427409E+02  0.11537688198E+03  0.41800000000E+01 0. -1.
         -5    1    3    3    0  502 -0.23614804097E+02 -0.29091786929E+02 -0.16079393804E+02  0.40987929252E+02  0.41800000000E+01 0. -1.
        -11    1    4    4    0    0  0.21093957065E+02 -0.95684598800E+02 -0.24748114980E+02  0.10105922356E+03  0.00000000000E+00 0. -1.
         11    1    4    4    0    0 -0.15462252858E+02  0.15625560362E+02 -0.38608754643E+01  0.22319179183E+02  0.00000000000E+00 0.  1.
</event>
<event>
 8    1  0.6597859E-009  0.8991397E+02  0.7561462E-02  0.1303060E+00
         -1   -1    0    0    0  501 -0.00000000000E+00  0.00000000000E+00  0.18395338154E+02  0.18395338154E+02  0.00000000000E+00 0.  1.
          1   -1    0    0  501    0  0.00000000000E+00 -0.00000000000E+00 -0.64972277392E+03  0.64972277392E+03  0.00000000000E+00 0. -1.
         25    2    1    2    0    0  0.79356620358E+00 -0.50182370102E+01 -0.31141260035E+03  0.33563561716E+03  0.12509055678E+03 0.  0.
         23    2    1    2    0    0 -0.79356620358E+00  0.50182370102E+01 -0.31991483542E+03  0.33248249492E+03  0.90406277770E+02 0.  0.
          5    1    3    3  502    0  0.46129029352E+02 -0.21503677852E+02 -0.56470114459E+02  0.76135679791E+02  0.41800000000E+01 0.  1.
         -5    1    3    3    0  502 -0.45335463149E+02  0.16485440842E+02 -0.25494248589E+03  0.25949993736E+03  0.41800000000E+01 0.  1.
        -11    1    4    4    0    0 -0.10233548103E+02  0.41455991809E+02 -0.24444773766E+03  0.24814919144E+03  0.00000000000E+00 0. -1.
         11    1    4    4    0    0  0.94399818991E+01 -0.36437754799E+02 -0.75467097757E+02  0.84333303486E+02  0.00000000000E+00 0.  1.
</event>
<event>
 8    1  0.6597859E-009  0.9687158E+02  0.7561462E-02  0.1287016E+00
          2   -1    0    0  501    0  0.00000000000E+00  0.00000000000E+00  0.92432787110E+03  0.92432787110E+03  0.00000000000E+00 0. -1.
         -2   -1    0    0    0  501 -0.00000000000E+00 -0.00000000000E+00 -0.14517774402E+02  0.14517774402E+02  0.00000000000E+00 0.  1.
         25    2    1    2    0    0 -0.95486806789E+01  0.43848695162E+00  0.67813349050E+03  0.68964110107E+03  0.12509375589E+03 0.  0.
         23    2    1    2    0    0  0.95486806789E+01 -0.43848695162E+00  0.23167660619E+03  0.24920454443E+03  0.91309832640E+02 0.  0.
          5    1    3    3  502    0 -0.13860389212E+02  0.52615661989E+02  0.16419724536E+03  0.17302810772E+03  0.41800000000E+01 0.  1.
         -5    1    3    3    0  502  0.43117085332E+01 -0.52177175038E+02  0.51393624514E+03  0.51661299335E+03  0.41800000000E+01 0.  1.
        -11    1    4    4    0    0  0.67297727921E+01  0.42797198116E+02  0.74655425303E+02  0.86315250887E+02  0.00000000000E+00 0. -1.
         11    1    4    4    0    0  0.28189078868E+01 -0.43235685068E+02  0.15702118089E+03  0.16288929355E+03  0.00000000000E+00 0.  1.
</event>
<event>
 8    1  0.6597859E-009  0.2173507E+03  0.7561462E-02  0.1135874E+00
         -1   -1    0    0    0  501 -0.00000000000E+00  0.00000000000E+00  0.23603452861E+02  0.23603452861E+02  0.00000000000E+00 0.  1.
          1   -1    0    0  501    0  0.00000000000E+00 -0.00000000000E+00 -0.24088701949E+04  0.24088701949E+04  0.00000000000E+00 0. -1.
         25    2    1    2    0    0 -0.13834895415E+03 -0.12951395127E+03 -0.17195960784E+04  0.17345239466E+04  0.12509337247E+03 0.  0.
         23    2    1    2    0    0  0.13834895415E+03  0.12951395127E+03 -0.66567066363E+03  0.69794970114E+03  0.90011422704E+02 0.  0.
          5    1    3    3  502    0 -0.35659107183E+02 -0.11619617357E+03 -0.10366796918E+04  0.10437889531E+04  0.41800000000E+01 0. -1.
         -5    1    3    3    0  502 -0.10268984696E+03 -0.13317777698E+02 -0.68291638659E+03  0.69073499358E+03  0.41800000000E+01 0. -1.
        -11    1    4    4    0    0  0.12601622146E+03  0.61307223176E+02 -0.42604118212E+03  0.44849721576E+03  0.00000000000E+00 0.  1.
         11    1    4    4    0    0  0.12332732689E+02  0.68206728090E+02 -0.23962948151E+03  0.24945248537E+03  0.00000000000E+00 0. -1.
</event>
<event>
 8    1  0.6597859E-009  0.2491106E+03  0.7561462E-02  0.1113868E+00
          1   -1    0    0  501    0  0.00000000000E+00  0.00000000000E+00  0.74443169726E+03  0.74443169726E+03  0.00000000000E+00 0. -1.
         -1   -1    0    0    0  501 -0.00000000000E+00 -0.00000000000E+00 -0.90514835133E+02  0.90514835133E+02  0.00000000000E+00 0.  1.
         25    2    1    2    0    0 -0.10300480441E+03 -0.20959764048E+03  0.36692390866E+03  0.45257232593E+03  0.12508954725E+03 0.  0.
         23    2    1    2    0    0  0.10300480441E+03  0.20959764048E+03  0.28699295347E+03  0.38237420646E+03  0.96456818304E+02 0.  0.
          5    1    3    3  502    0 -0.12901215484E+02  0.10477220263E+02  0.70352306576E+02  0.72409481050E+02  0.41800000000E+01 0.  1.
         -5    1    3    3    0  502 -0.90103588926E+02 -0.22007486074E+03  0.29657160208E+03  0.38016284488E+03  0.41800000000E+01 0.  1.
        -11    1    4    4    0    0 -0.98192515488E+01  0.10342780349E+02 -0.11731842650E+01  0.14309687895E+02  0.00000000000E+00 0.  1.
         11    1    4    4    0    0  0.11282405596E+03  0.19925486013E+03  0.28816613774E+03  0.36806451856E+03  0.00000000000E+00 0. -1.
</event>
<event>
 8    1  0.6597859E-009  0.7941543E+02  0.7561462E-02  0.1330719E+00
          1   -1    0    0  501    0  0.00000000000E+00  0.00000000000E+00  0.56512171449E+02  0.56512171449E+02  0.00000000000E+00 0. -1.
         -1   -1    0    0    0  501 -0.00000000000E+00 -0.00000000000E+00 -0.22283455382E+03  0.22283455382E+03  0.00000000000E+00 0.  1.
         25    2    1    2    0    0  0.77141746415E+01 -0.19111879623E+02 -0.74779238811E+02  0.14718901039E+03  0.12509155763E+03 0.  0.
         23    2    1    2    0    0 -0.77141746415E+01  0.19111879623E+02 -0.91543143562E+02  0.13215771488E+03  0.93063107811E+02 0.  0.
          5    1    3    3  502    0  0.40941209081E+02  0.20953333236E+02 -0.82359653511E+02  0.94423565391E+02  0.41800000000E+01 0. -1.
         -5    1    3    3    0  502 -0.33227034440E+02 -0.40065212859E+02  0.75804147002E+01  0.52765445001E+02  0.41800000000E+01 0. -1.
        -11    1    4    4    0    0  0.23183061560E+02  0.18280189416E+02  0.57456967860E+01  0.30077112559E+02  0.00000000000E+00 0. -1.
         11    1    4    4    0    0 -0.30897236201E+02  0.83169020738E+00 -0.97288840348E+02  0.10208060232E+03  0.00000000000E+00 0.  1.
</event>
<event>
 8    1  0.6597859E-009  0.7342344E+02  0.7561462E-02  0.1348824E+00
         -1   -1    0    0    0  501 -0.00000000000E+00  0.00000000000E+00  0.44071323018E+02  0.44071323018E+02  0.00000000000E+00 0.  1.
          1   -1    0    0  501    0  0.00000000000E+00 -0.00000000000E+00 -0.32245851811E+03  0.32245851811E+03  0.00000000000E+00 0. -1.
         25    2    1    2    0    0  0.80548447815E+01  0.19878949196E+02 -0.22728939930E+03  0.26032290816E+03  0.12508993697E+03 0.  0.
         23    2    1    2    0    0 -0.80548447815E+01 -0.19878949196E+02 -0.51097795787E+02  0.10620693297E+03  0.90602840631E+02 0.  0.
          5    1    3    3  502    0  0.11193113613E+02 -0.40227672110E+02 -0.17661459393E+03  0.18153164624E+03  0.41800000000E+01 0. -1.
         -5    1    3    3    0  502 -0.31382688318E+01  0.60106621305E+02 -0.50674805373E+02  0.78791261924E+02  0.41800000000E+01 0. -1.
        -11    1    4    4    0    0 -0.21241040101E+02 -0.67262783629E+00 -0.71899468809E+02  0.74974447832E+02  0.00000000000E+00 0. -1.
         11    1    4    4    0    0  0.13186195319E+02 -0.19206321359E+02  0.20801673022E+02  0.31232485134E+02  0.00000000000E+00 0.  1.
</event>
<event>
 7    1  0.6597859E-009  0.1089722E+03  0.7561462E-02  0.1262485E+00
         -1   -1    0    0    0  501 -0.00000000000E+00  0.00000000000E+00  0.25000715928E+03  0.25000715928E+03  0.00000000000E+00 0.  1.
          1   -1    0    0  501    0  0.00000000000E+00 -0.00000000000E+00 -0.71978512541E+02  0.71978512541E+02  0.00000000000E+00 0. -1.
         23    2    1    2    0    0  0.22367931319E+02  0.24184526897E+02  0.16579156852E+03  0.19198491101E+03  0.91028271284E+02 0.  0.
          5    1    1    2  502    0  0.43062549322E+02  0.20367285425E+02  0.16583695554E+02  0.50613247554E+02  0.41800000000E+01 0. -1.
         -5    1    1    2    0  502 -0.65430480641E+02 -0.44551812322E+02 -0.43466173328E+01  0.79387513252E+02  0.41800000000E+01 0. -1.
        -11    1    3    3    0    0  0.35256203819E+02 -0.22899698190E+02  0.11050095254E+03  0.11822798567E+03  0.00000000000E+00 0.  1.
         11    1    3    3    0    0 -0.12888272500E+02  0.47084225087E+02  0.55290615978E+02  0.73756925338E+02  0.00000000000E+00 0. -1.
</event>
<event>
 8    1  0.6597859E-009  0.1506563E+03  0.7561462E-02  0.1199669E+00
         -1   -1    0    0    0  501 -0.00000000000E+00  0.00000000000E+00  0.12907004740E+03  0.12907004740E+03  0.00000000000E+00 0.  1.
          1   -1    0    0  501    0  0.00000000000E+00 -0.00000000000E+00 -0.39500409399E+03  0.39500409399E+03  0.00000000000E+00 0. -1.
         25    2    1    2    0    0  0.14014688307E+03  0.48259607696E+02 -0.28903004241E+03  0.34807478841E+03  0.12509018481E+03 0.  0.
         23    2    1    2    0    0 -0.14014688307E+03 -0.48259607696E+02  0.23095995823E+02  0.17599935298E+03  0.92044601454E+02 0.  0.
          5    1    3    3  502    0  0.76240354092E+02  0.25137453952E+02 -0.26328077312E+03  0.27527935099E+03  0.41800000000E+01 0. -1.
         -5    1    3    3    0  502  0.63906528980E+02  0.23122153744E+02 -0.25749269289E+02  0.72795437419E+02  0.41800000000E+01 0. -1.
        -11    1    4    4    0    0 -0.33839891814E+02 -0.29488325466E+02  0.47469622971E+02  0.65330427228E+02  0.00000000000E+00 0.  1.
         11    1    4    4    0    0 -0.10630699126E+03 -0.18771282230E+02 -0.24373627148E+02  0.11066892575E+03  0.00000000000E+00 0. -1.
</event>
<event>
 8    1  0.6597859E-009  0.9445286E+02  0.7561462E-02  0.1292413E+00
          2   -1    0    0  501    0  0.00000000000E+00  0.00000000000E+00  0.11660555928E+03  0.11660555928E+03  0.00000000000E+00 0. -1.
         -2   -1    0    0    0  501 -0.00000000000E+00 -0.00000000000E+00 -0.10995346104E+03  0.10995346104E+03  0.00000000000E+00 0.  1.
         25    2    1    2    0    0  0.14092852759E+02 -0.12246570824E+02 -0.27151339995E+02  0.12935997221E+03  0.12509284613E+03 0.  0.
         23    2    1    2    0    0 -0.14092852759E+02  0.12246570824E+02  0.33803438231E+02  0.97199048105E+02  0.89198629589E+02 0.  0.
          5    1    3    3  502    0  0.51869179041E+02 -0.41669573753E+02 -0.42313942371E+02  0.78960162298E+02  0.41800000000E+01 0.  1.
         -5    1    3    3    0  502 -0.37776326282E+02  0.29423002928E+02  0.15162602376E+02  0.50399809915E+02  0.41800000000E+01 0.  1.
        -11    1    4    4    0    0  0.12930492177E+02  0.35965617833E+02  0.45468506306E+02  0.59397881778E+02  0.00000000000E+00 0.  1.
         11    1    4    4    0    0 -0.27023344936E+02 -0.23719047008E+02 -0.11665068075E+02  0.37801166327E+02  0.00000000000E+00 0. -1.
</event>
<event>
 8    1  0.6597859E-009  0.1617863E+03  0.7561462E-02  0.1186695E+00
          2   -1    0    0  501    0  0.00000000000E+00  0.00000000000E+00  0.19201349431E+03  0.19201349431E+03  0.00000000000E+00 0. -1.
         -2   -1    0    0    0  501 -0.00000000000E+00 -0.00000000000E+00 -0.14631164353E+03  0.14631164353E+03  0.00000000000E+00 0.  1.
         25    2    1    2    0    0  0.11950732989E+03 -0.19712211046E+02 -0.17461316635E+02  0.17499511906E+03  0.12509125051E+03 0.  0.
         23    2    1    2    0    0 -0.11950732989E+03  0.19712211046E+02  0.63163167410E+02  0.16333001878E+03  0.89535111297E+02 0.  0.
          5    1    3    3  502    0  0.13747356010E+03  0.10170468407E+02 -0.59565189213E+01  0.13804119194E+03  0.41800000000E+01 0.  1.
         -5    1    3    3    0  502 -0.17966230210E+02 -0.29882679453E+02 -0.11504797714E+02  0.36953927121E+02  0.41800000000E+01 0.  1.
        -11    1    4    4    0    0 -0.10940235317E+03 -0.18554031546E+02  0.48883554677E+02  0.12125480973E+03  0.00000000000E+00 0.  1.
         11    1    4    4    0    0 -0.10104976726E+02  0.38266242592E+02  0.14279612733E+02  0.42075209049E+02  0.00000000000E+00 0. -1.
</event>
<event>
 8    1  0.6597859E-009  0.1279208E+03  0.7561462E-02  0.1230574E+00
         -4   -1    0    0    0  501 -0.00000000000E+00  0.00000000000E+00  0.34088539240E+03  0.34088539240E+03  0.00000000000E+00 0. -1.
          4   -1    0    0  501    0  0.00000000000E+00 -0.00000000000E+00 -0.50863698154E+02  0.50863698154E+02  0.00000000000E+00 0.  1.
         25    2    1    2    0    0  0.65479810302E+02  0.23932820436E+02  0.11871786891E+03  0.18599837316E+03  0.12506429134E+03 0.  0.
         23    2    1    2    0    0 -0.65479810302E+02 -0.23932820436E+02  0.17130382533E+03  0.20575071739E+03  0.90155264302E+02 0.  0.
          5    1    3    3  502    0  0.93806020223E+02  0.47786830821E+02  0.80272661736E+02  0.13245498576E+03  0.41800000000E+01 0. -1.
         -5    1    3    3    0  502 -0.28326209921E+02 -0.23854010385E+02  0.38445207174E+02  0.53543387403E+02  0.41800000000E+01 0. -1.
        -11    1    4    4    0    0 -0.19659915733E+02  0.34046852668E+02  0.71072323096E+02  0.81221767855E+02  0.00000000000E+00 0. -1.
         11    1    4    4    0    0 -0.45819894570E+02 -0.57979673104E+02  0.10023150224E+03  0.12452894954E+03  0.00000000000E+00 0.  1.
</event>
<event>
 8    1  0.6597859E-009  0.1113033E+03  0.7561462E-02  0.1258175E+00
         -4   -1    0    0    0  501 -0.00000000000E+00  0.00000000000E+00  0.55697578320E+03  0.55697578320E+03  0.00000000000E+00 0.  1.
          4   -1    0    0  501    0  0.00000000000E+00 -0.00000000000E+00 -0.30124401094E+02  0.30124401094E+02  0.00000000000E+00 0. -1.
         25    2    1    2    0    0 -0.31144353704E+02 -0.88327132014E+01  0.15239240650E+03  0.19979692539E+03  0.12508948096E+03 0.  0.
         23    2    1    2    0    0  0.31144353704E+02  0.88327132014E+01  0.37445897560E+03  0.38730325890E+03  0.93468188991E+02 0.  0.
          5    1    3    3  502    0  0.12464653146E+02 -0.59882223549E+02  0.62839639835E+02  0.87792602250E+02  0.41800000000E+01 0.  1.
         -5    1    3    3    0  502 -0.43609006850E+02  0.51049510348E+02  0.89552766666E+02  0.11200432314E+03  0.41800000000E+01 0.  1.
        -11    1    4    4    0    0  0.59034540338E+02  0.22237252306E+02  0.30191570702E+03  0.30843583853E+03  0.00000000000E+00 0.  1.
         11    1    4    4    0    0 -0.27890186635E+02 -0.13404539105E+02  0.72543268584E+02  0.78867420371E+02  0.00000000000E+00 0. -1.
</event>
<event>
 8    1  0.6597859E-009  0.1093583E+03  0.7561462E-02  0.1261763E+00
         -1   -1    0    0    0  501 -0.00000000000E+00  0.00000000000E+00  0.72684218624E+02  0.72684218624E+02  0.00000000000E+00 0.  1.
          1   -1    0    0  501    0  0.00000000000E+00 -0.00000000000E+00 -0.27483357956E+03  0.27483357956E+03  0.00000000000E+00 0. -1.
         25    2    1    2    0    0  0.67114066615E+02 -0.30779673153E+02 -0.46854941770E+02  0.15262594172E+03  0.12509039252E+03 0.  0.
         23    2    1    2    0    0 -0.67114066615E+02  0.30779673153E+02 -0.15529441916E+03  0.19489185646E+03  0.91732180150E+02 0.  0.
          5    1    3    3  502    0 -0.53554295154E+01 -0.27497385002E+02  0.33778206028E+02  0.44082041805E+02  0.41800000000E+01 0. -1.
         -5    1    3    3    0  502  0.72469496130E+02 -0.32822881508E+01 -0.80633147797E+02  0.10854389991E+03  0.41800000000E+01 0. -1.
        -11    1    4    4    0    0 -0.90009129849E+02  0.19048489056E+02 -0.11958935513E+03  0.15088440029E+03  0.00000000000E+00 0. -1.
         11    1    4    4    0    0  0.22895063234E+02  0.11731184097E+02 -0.35705064034E+02  0.44007456170E+02  0.00000000000E+00 0.  1.
</event>
<event>
 8    1  0.6597859E-009  0.1336578E+03  0.7561462E-02  0.1222127E+00
          1   -1    0    0  501    0  0.00000000000E+00  0.00000000000E+00  0.37505727193E+02  0.37505727193E+02  0.00000000000E+00 0. -1.
         -1   -1    0    0    0  501 -0.00000000000E+00 -0.00000000000E+00 -0.50120064617E+03  0.50120064617E+03  0.00000000000E+00 0.  1.
         25    2    1    2    0    0 -0.78878036486E+02  0.81194313803E+01 -0.29833364491E+03  0.33307298604E+03  0.12508789126E+03 0.  0.
         23    2    1    2    0    0  0.78878036486E+02 -0.81194313803E+01 -0.16536127407E+03  0.20563338732E+03  0.93021874922E+02 0.  0.
          5    1    3    3  502    0 -0.92371615664E+02 -0.36445393943E+02 -0.22674731889E+03  0.24757342576E+03  0.41800000000E+01 0. -1.
         -5    1    3    3    0  502  0.13493579178E+02  0.44564825324E+02 -0.71586326023E+02  0.85499560283E+02  0.41800000000E+01 0. -1.
        -11    1    4    4    0    0  0.92345828944E+02 -0.28591988976E+02 -0.12018754362E+03  0.15424104382E+03  0.00000000000E+00 0.  1.
         11    1    4    4    0    0 -0.13467792457E+02  0.20472557595E+02 -0.45173730443E+02  0.51392343499E+02  0.00000000000E+00 0. -1.
</event>
<event>
 8    1  0.6597859E-009  0.1104239E+03  0.7561462E-02  0.1259787E+00
          2   -1    0    0  501    0  0.00000000000E+00  0.00000000000E+00  0.44154662676E+03  0.44154662676E+03  0.00000000000E+00 0. -1.
         -2   -1    0    0    0  501 -0.00000000000E+00 -0.00000000000E+00 -0.30272672239E+02  0.30272672239E+02  0.00000000000E+00 0.  1.
         25    2    1    2    0    0 -0.26261944995E+01 -0.22037849517E+02  0.16711285815E+03  0.20991873392E+03  0.12508638527E+03 0.  0.
         23    2    1    2    0    0  0.26261944995E+01  0.22037849517E+02  0.24416109636E+03  0.26190056508E+03  0.92112438362E+02 0.  0.
          5    1    3    3  502    0 -0.55877845191E+02 -0.41949771996E+02  0.94613187394E+02  0.11769131057E+03  0.41800000000E+01 0.  1.
         -5    1    3    3    0  502  0.53251650691E+02  0.19911922479E+02  0.72499670760E+02  0.92227423354E+02  0.41800000000E+01 0.  1.
        -11    1    4    4    0    0 -0.15550212132E+02 -0.32677716904E+02  0.77110478030E+02  0.85180209564E+02  0.00000000000E+00 0.  1.
         11    1    4    4    0    0  0.18176406631E+02  0.54715566421E+02  0.16705061833E+03  0.17672035551E+03  0.00000000000E+00 0. -1.
</event>
<event>
 8    1  0.6597859E-009  0.3880017E+03  0.7561462E-02  0.1048015E+00
         -2   -1    0    0    0  501 -0.00000000000E+00  0.00000000000E+00  0.77329361347E+02  0.77329361347E+02  0.00000000000E+00 0. -1.
          2   -1    0    0  501    0  0.00000000000E+00 -0.00000000000E+00 -0.20165785678E+04  0.20165785678E+04  0.00000000000E+00 0.  1.
         25    2    1    2    0    0  0.35165529523E+03 -0.12571253843E+03 -0.11619943921E+04  0.12269244962E+04  0.12509061931E+03 0.  0.
         23    2    1    2    0    0 -0.35165529523E+03  0.12571253843E+03 -0.77725481432E+03  0.86698343295E+03  0.89833944845E+02 0.  0.
          5    1    3    3  502    0  0.28222562528E+03 -0.14903397573E+03 -0.98129846412E+03  0.10319043452E+04  0.41800000000E+01 0. -1.
         -5    1    3    3    0  502  0.69429669949E+02  0.23321437307E+02 -0.18069592797E+03  0.19502015099E+03  0.41800000000E+01 0. -1.
        -11    1    4    4    0    0 -0.36696954083E+02  0.45480539785E+02 -0.10125627340E+03  0.11691013147E+03  0.00000000000E+00 0. -1.
         11    1    4    4    0    0 -0.31495834114E+03  0.80231998642E+02 -0.67599854093E+03  0.75007330148E+03  0.00000000000E+00 0.  1.
</event>
<event>
 8    1  0.6597859E-009  0.1211011E+03  0.7561462E-02  0.1241292E+00
         -1   -1    0    0    0  501 -0.00000000000E+00  0.00000000000E+00  0.26907491278E+03  0.26907491278E+03  0.00000000000E+00 0.  1.
          1   -1    0    0  501    0  0.00000000000E+00 -0.00000000000E+00 -0.55213126679E+02  0.55213126679E+02  0.00000000000E+00 0. -1.
         25    2    1    2    0    0 -0.57049265715E+02  0.10446360695E+02  0.11578090296E+03  0.18004612408E+03  0.12509054374E+03 0.  0.
         23    2    1    2    0    0  0.57049265715E+02 -0.10446360695E+02  0.98080883139E+02  0.14424191539E+03  0.88442780068E+02 0.  0.
          5    1    3    3  502    0 -0.56922599374E+02  0.62287340718E+02  0.83776701029E+02  0.11897858281E+03  0.41800000000E+01 0.  1.
         -5    1    3    3    0  502 -0.12666634112E+00 -0.51840980023E+02  0.32004201935E+02  0.61067541261E+02  0.41800000000E+01 0.  1.
        -11    1    4    4    0    0  0.70921995533E+02  0.18772967961E+02  0.70162762653E+02  0.10151436864E+03  0.00000000000E+00 0.  1.
         11    1    4    4    0    0 -0.13872729818E+02 -0.29219328656E+02  0.27918120486E+02  0.42727546749E+02  0.00000000000E+00 0. -1.
</event>
<event>
 8    1  0.6597859E-009  0.9057119E+02  0.7561462E-02  0.1301474E+00
         -3   -1    0    0    0  501 -0.00000000000E+00  0.00000000000E+00  0.23712257807E+03  0.23712257807E+03  0.00000000000E+00 0.  1.
          3   -1    0    0  501    0  0.00000000000E+00 -0.00000000000E+00 -0.63074933869E+02  0.63074933869E+02  0.00000000000E+00 0. -1.
         25    2    1    2    0    0  0.34299636006E+02  0.16751376346E+02  0.45616841049E+02  0.13850744652E+03  0.12508534253E+03 0.  0.
         23    2    1    2    0    0 -0.34299636006E+02 -0.16751376346E+02  0.12843080315E+03  0.16169006541E+03  0.90510399493E+02 0.  0.
          5    1    3    3  502    0  0.27412253542E+02  0.45464964850E+02 -0.27216098951E+02  0.59805376975E+02  0.41800000000E+01 0.  1.
         -5    1    3    3    0  502  0.68873824641E+01 -0.28713588504E+02  0.72832940000E+02  0.78702069547E+02  0.41800000000E+01 0.  1.
        -11    1    4    4    0    0  0.18204435689E+02  0.25041520854E+02  0.44969759270E+02  0.54596323084E+02  0.00000000000E+00 0. -1.
         11    1    4    4    0    0 -0.52504071695E+02 -0.41792897200E+02  0.83461043878E+02  0.10709374233E+03  0.00000000000E+00 0.  1.
</event>
<event>
 8    1  0.6597859E-009  0.1181710E+03  0.7561462E-02  0.1246145E+00
          1   -1    0    0  501    0  0.00000000000E+00  0.00000000000E+00  0.19860915164E+04  0.19860915164E+04  0.00000000000E+00 0. -1.
         -1   -1    0    0    0  501 -0.00000000000E+00 -0.00000000000E+00 -0.14701492695E+02  0.14701492695E+02  0.00000000000E+00 0.  1.
         25    2    1    2    0    0  0.14413142920E+02 -0.47821170811E+02  0.17621048113E+04  0.17672453752E+04  0.12509295329E+03 0.  0.
         23    2    1    2    0    0 -0.14413142920E+02  0.47821170811E+02  0.20928521236E+03  0.23354763389E+03  0.90827276270E+02 0.  0.
          5    1    3    3  502    0  0.43363617832E+01 -0.89516569990E+02  0.13196789170E+04  0.13227251932E+04  0.41800000000E+01 0.  1.
         -5    1    3    3    0  502  0.10076781137E+02  0.41695399178E+02  0.44242589433E+03  0.44452018200E+03  0.41800000000E+01 0.  1.
        -11    1    4    4    0    0 -0.52780508452E+02  0.33797741134E+02  0.12093102239E+03  0.13620712740E+03  0.00000000000E+00 0. -1.
         11    1    4    4    0    0  0.38367365532E+02  0.14023429678E+02  0.88354189974E+02  0.97340506490E+02  0.00000000000E+00 0.  1.
</event>
<event>
 8    1  0.6597859E-009  0.1437707E+03  0.7561462E-02  0.1208343E+00
         -2   -1    0    0    0  501 -0.00000000000E+00  0.00000000000E+00  0.77664650911E+02  0.77664650911E+02  0.00000000000E+00 0. -1.
          2   -1    0    0  501    0  0.00000000000E+00 -0.00000000000E+00 -0.28244595697E+03  0.28244595697E+03  0.00000000000E+00 0.  1.
         25    2    1    2    0    0 -0.96151846853E+02  0.67680760637E+00 -0.14949201147E+03  0.21734465405E+03  0.12508077962E+03 0.  0.
         23    2    1    2    0    0  0.96151846853E+02 -0.67680760637E+00 -0.55289294588E+02  0.14276595382E+03  0.89886460346E+02 0.  0.
          5    1    3    3  502    0 -0.11097405049E+02  0.55324340817E+02 -0.54348701855E+02  0.78455011816E+02  0.41800000000E+01 0. -1.
         -5    1    3    3    0  502 -0.85054441804E+02 -0.54647533211E+02 -0.95143309613E+02  0.13888964224E+03  0.41800000000E+01 0. -1.
        -11    1    4    4    0    0  0.35875894562E+02 -0.43093413374E+02 -0.12180481286E+02  0.57380190059E+02  0.00000000000E+00 0. -1.
         11    1    4    4    0    0  0.60275952291E+02  0.42416605768E+02 -0.43108813302E+02  0.85385763765E+02  0.00000000000E+00 0.  1.
</event>
<event>
 8    1  0.6597859E-009  0.1303483E+03  0.7561462E-02  0.1226940E+00
          1   -1    0    0  501    0  0.00000000000E+00  0.00000000000E+00  0.83311635283E+02  0.83311635283E+02  0.00000000000E+00 0. -1.
         -1   -1    0    0    0  501 -0.00000000000E+00 -0.00000000000E+00 -0.36146985285E+03  0.36146985285E+03  0.00000000000E+00 0.  1.
         25    2    1    2    0    0  0.57713519986E+02  0.75724977385E+02 -0.24535168301E+02  0.15909788892E+03  0.12508013906E+03 0.  0.
         23    2    1    2    0    0 -0.57713519986E+02 -0.75724977385E+02 -0.25362304927E+03  0.28568359921E+03  0.90693688588E+02 0.  0.
          5    1    3    3  502    0  0.35249828328E+01  0.76673731894E+02  0.29610323755E+02  0.82374330586E+02  0.41800000000E+01 0.  1.
         -5    1    3    3    0  502  0.54188537154E+02 -0.94875450984E+00 -0.54145492056E+02  0.76723558337E+02  0.41800000000E+01 0.  1.
        -11    1    4    4    0    0 -0.80946512424E+02 -0.65316016857E+02 -0.18138715122E+03  0.20909284674E+03  0.00000000000E+00 0.  1.
         11    1    4    4    0    0  0.23232992438E+02 -0.10408960528E+02 -0.72235898045E+02  0.76590752465E+02  0.00000000000E+00 0. -1.
</event>
<event>
 8    1  0.6597859E-009  0.1355779E+03  0.7561462E-02  0.1219406E+00
         -2   -1    0    0    0  501 -0.00000000000E+00  0.00000000000E+00  0.79937968588E+02  0.79937968588E+02  0.00000000000E+00 0.  1.
          2   -1    0    0  501    0  0.00000000000E+00 -0.00000000000E+00 -0.27391294125E+03  0.27391294125E+03  0.00000000000E+00 0. -1.
         25    2    1    2    0    0  0.11443639746E+02  0.92694405862E+02 -0.14804425223E+03  0.21514598635E+03  0.12508990788E+03 0.  0.
         23    2    1    2    0    0 -0.11443639746E+02 -0.92694405862E+02 -0.45930720433E+02  0.13870492349E+03  0.91685412979E+02 0.  0.
          5    1    3    3  502    0 -0.31612458923E+02  0.93553564147E+02 -0.13962417971E+03  0.17106724083E+03  0.41800000000E+01 0.  1.
         -5    1    3    3    0  502  0.43056098669E+02 -0.85915828501E+00 -0.84200725187E+01  0.44078745521E+02  0.41800000000E+01 0.  1.
        -11    1    4    4    0    0 -0.35148826956E+02 -0.18869155641E+01 -0.24879000633E+01  0.35287251713E+02  0.00000000000E+00 0. -1.
         11    1    4    4    0    0  0.23705187210E+02 -0.90807490297E+02 -0.43442820370E+02  0.10341767178E+03  0.00000000000E+00 0.  1.
</event>
<event>
 8    1  0.6597859E-009  0.8420345E+02  0.7561462E-02  0.1317529E+00
          1   -1    0    0  501    0  0.00000000000E+00  0.00000000000E+00  0.64858823925E+03  0.64858823925E+03  0.00000000000E+00 0. -1.
         -1   -1    0    0    0  501 -0.00000000000E+00 -0.00000000000E+00 -0.33398048748E+02  0.33398048748E+02  0.00000000000E+00 0.  1.
         25    2    1    2    0    0  0.59078055230E+02  0.21312011344E+02  0.15510470546E+03  0.20894777729E+03  0.12512907553E+03 0.  0.
         23    2    1    2    0    0 -0.59078055230E+02 -0.21312011344E+02  0.46008548505E+03  0.47303851071E+03  0.90235029940E+02 0.  0.
          5    1    3    3  502    0  0.62119675212E+02  0.28323500887E+02  0.17464059883E+03  0.18755768689E+03  0.41800000000E+01 0. -1.
         -5    1    3    3    0  502 -0.30416199826E+01 -0.70114895433E+01 -0.19535893370E+02  0.21390090404E+02  0.41800000000E+01 0. -1.
        -11    1    4    4    0    0  0.14800635262E+02 -0.51403741262E+01  0.15404547729E+02  0.21972308505E+02  0.00000000000E+00 0.  1.
         11    1    4    4    0    0 -0.73878690492E+02 -0.16171637218E+02  0.44468093732E+03  0.45106620221E+03  0.00000000000E+00 0. -1.
</event>
<event>
 8    1  0.6597859E-009  0.1078330E+03  0.7561462E-02  0.1264636E+00
          2   -1    0    0  501    0  0.00000000000E+00  0.00000000000E+00  0.25579234873E+03  0.25579234873E+03  0.00000000000E+00 0. -1.
         -2   -1    0    0    0  501 -0.00000000000E+00 -0.00000000000E+00 -0.76353237411E+02  0.76353237411E+02  0.00000000000E+00 0.  1.
         25    2    1    2    0    0 -0.39508821667E+02 -0.34016176632E+02  0.17880430607E+03  0.22435707151E+03  0.12508824249E+03 0.  0.
         23    2    1    2    0    0  0.39508821667E+02  0.34016176632E+02  0.63480525354E+00  0.10778851463E+03  0.94339353642E+02 0.  0.
          5    1    3    3  502    0 -0.56937146896E+02  0.13632242595E+02  0.27691565229E+02  0.64899706622E+02  0.41800000000E+01 0.  1.
         -5    1    3    3    0  502  0.17428325229E+02 -0.47648419226E+02  0.15111274084E+03  0.15945736489E+03  0.41800000000E+01 0.  1.
        -11    1    4    4    0    0  0.22578837461E+02  0.66065234520E+02  0.95369594581E+01  0.70465400793E+02  0.00000000000E+00 0.  1.
         11    1    4    4    0    0  0.16929984206E+02 -0.32049057889E+02 -0.89021542045E+01  0.37323113833E+02  0.00000000000E+00 0. -1.
</event>
<event>
 8    1  0.6597859E-009  0.3170197E+03  0.7561462E-02  0.1077029E+00
         -2   -1    0    0    0  501 -0.00000000000E+00  0.00000000000E+00  0.99419363836E+03  0.99419363836E+03  0.00000000000E+00 0.  1.
          2   -1    0    0  501    0  0.00000000000E+00 -0.00000000000E+00 -0.46910676054E+03  0.46910676054E+03  0.00000000000E+00 0. -1.
         25    2    1    2    0    0  0.18788832390E+03 -0.24989070789E+03 -0.37624996023E+03  0.50493394778E+03  0.12508745303E+03 0.  0.
         23    2    1    2    0    0 -0.18788832390E+03  0.24989070789E+03  0.90133683804E+03  0.95836645112E+03  0.91163429510E+02 0.  0.
          5    1    3    3  502    0  0.32323096103E+02 -0.95665752230E+02 -0.52154144384E+02  0.11372882602E+03  0.41800000000E+01 0.  1.
         -5    1    3    3    0  502  0.15556522779E+03 -0.15422495566E+03 -0.32409581584E+03  0.39120512176E+03  0.41800000000E+01 0.  1.
        -11    1    4    4    0    0 -0.98360367150E+02  0.10776474840E+03  0.29376881785E+03  0.32800628220E+03  0.00000000000E+00 0.  1.
         11    1    4    4    0    0 -0.89527956746E+02  0.14212595948E+03  0.60756802020E+03  0.63036016892E+03  0.00000000000E+00 0. -1.
</event>
<event>
 8    1  0.6597859E-009  0.1106544E+03  0.7561462E-02  0.1259363E+00
          2   -1    0    0  501    0  0.00000000000E+00  0.00000000000E+00  0.75199647036E+03  0.75199647036E+03  0.00000000000E+00 0. -1.
         -2   -1    0    0    0  501 -0.00000000000E+00 -0.00000000000E+00 -0.19253495088E+02  0.19253495088E+02  0.00000000000E+00 0.  1.
         25    2    1    2    0    0 -0.12723898455E+02 -0.52218372067E+02  0.48234873528E+03  0.50119456274E+03  0.12508809423E+03 0.  0.
         23    2    1    2    0    0  0.12723898455E+02  0.52218372067E+02  0.25039423999E+03  0.27005540271E+03  0.85697077779E+02 0.  0.
          5    1    3    3  502    0 -0.34780342137E+02  0.32181599751E+02  0.13906976235E+03  0.14698026657E+03  0.41800000000E+01 0. -1.
         -5    1    3    3    0  502  0.22056443682E+02 -0.84399971818E+02  0.34327897293E+03  0.35421429617E+03  0.41800000000E+01 0. -1.
        -11    1    4    4    0    0 -0.27621483782E+02  0.14598457326E+02  0.16812874688E+03  0.17100683276E+03  0.00000000000E+00 0. -1.
         11    1    4    4    0    0  0.40345382237E+02  0.37619914741E+02  0.82265493111E+02  0.99048569953E+02  0.00000000000E+00 0.  1.
</event>
<event>
 8    1  0.6597859E-009  0.8559024E+02  0.7561462E-02  0.1313896E+00
         -3   -1    0    0    0  501 -0.00000000000E+00  0.00000000000E+00  0.18385748222E+03  0.18385748222E+03  0.00000000000E+00 0.  1.
          3   -1    0    0  501    0  0.00000000000E+00 -0.00000000000E+00 -0.85974239118E+02  0.85974239118E+02  0.00000000000E+00 0. -1.
         25    2    1    2    0    0  0.69037080203E+01 -0.19780819981E+02 -0.10412298539E+02  0.12725810992E+03  0.12508904251E+03 0.  0.
         23    2    1    2    0    0 -0.69037080203E+01  0.19780819981E+02  0.10829554164E+03  0.14257361141E+03  0.90334756927E+02 0.  0.
          5    1    3    3  502    0 -0.36706019292E+02 -0.35853912452E+02 -0.45632157562E+02  0.68793903030E+02  0.41800000000E+01 0.  1.
         -5    1    3    3    0  502  0.43609727313E+02  0.16073092471E+02  0.35219859023E+02  0.58464206891E+02  0.41800000000E+01 0.  1.
        -11    1    4    4    0    0  0.17160622270E+02  0.38758261369E+02  0.15972704132E+02  0.45296987299E+02  0.00000000000E+00 0. -1.
         11    1    4    4    0    0 -0.24064330291E+02 -0.18977441388E+02  0.92322837505E+02  0.97276624114E+02  0.00000000000E+00 0.  1.
</event>
<event>
 8    1  0.6597859E-009  0.1433381E+03  0.7561462E-02  0.1208907E+00
          2   -1    0    0  501    0  0.00000000000E+00  0.00000000000E+00  0.66692078975E+03  0.66692078975E+03  0.00000000000E+00 0. -1.
         -2   -1    0    0    0  501 -0.00000000000E+00 -0.00000000000E+00 -0.37219906679E+02  0.37219906679E+02  0.00000000000E+00 0.  1.
         25    2    1    2    0    0 -0.83190047786E+02  0.60930099658E+02  0.45027425713E+03  0.47856942687E+03  0.12509487843E+03 0.  0.
         23    2    1    2    0    0  0.83190047786E+02 -0.60930099658E+02  0.17942662595E+03  0.22557126956E+03  0.89752005309E+02 0.  0.
          5    1    3    3  502    0 -0.11508489406E+03  0.46025780313E+02  0.38218760570E+03  0.40180560430E+03  0.41800000000E+01 0. -1.
         -5    1    3    3    0  502  0.31894846271E+02  0.14904319345E+02  0.68086651424E+02  0.76763822572E+02  0.41800000000E+01 0. -1.
        -11    1    4    4    0    0  0.26556393928E+02  0.16507365379E+02  0.13828029476E+02  0.34189904496E+02  0.00000000000E+00 0.  1.
         11    1    4    4    0    0  0.56633653858E+02 -0.77437465037E+02  0.16559859647E+03  0.19138136506E+03  0.00000000000E+00 0. -1.
</event>
<event>
 8    1  0.6597859E-009  0.1217385E+03  0.7561462E-02  0.1240256E+00
         -1   -1    0    0    0  501 -0.00000000000E+00  0.00000000000E+00  0.55055650243E+02  0.55055650243E+02  0.00000000000E+00 0.  1.
          1   -1    0    0  501    0  0.00000000000E+00 -0.00000000000E+00 -0.29923213571E+03  0.29923213571E+03  0.00000000000E+00 0. -1.
         25    2    1    2    0    0  0.54914051220E+02 -0.20715527516E+02 -0.84878712856E+02  0.16216105437E+03  0.12508847092E+03 0.  0.
         23    2    1    2    0    0 -0.54914051220E+02  0.20715527516E+02 -0.15929777261E+03  0.19212673158E+03  0.89956736984E+02 0.  0.
          5    1    3    3  502    0 -0.38867098297E+02 -0.17271471753E+02 -0.37946646391E+02  0.57152212895E+02  0.41800000000E+01 0. -1.
         -5    1    3    3    0  502  0.93781149517E+02 -0.34440557632E+01 -0.46932066464E+02  0.10500884147E+03  0.41800000000E+01 0. -1.
        -11    1    4    4    0    0 -0.71167996788E+02 -0.10180229384E+02 -0.97341919970E+02  0.12101227302E+03  0.00000000000E+00 0.  1.
         11    1    4    4    0    0  0.16253945568E+02  0.30895756900E+02 -0.61955852638E+02  0.71114458566E+02  0.00000000000E+00 0. -1.
</event>
<event>
 8    1  0.6597859E-009  0.6609406E+02  0.7561462E-02  0.1373903E+00
          2   -1    0    0  501    0  0.00000000000E+00  0.00000000000E+00  0.35866891003E+03  0.35866891003E+03  0.00000000000E+00 0.  1.
         -2   -1    0    0    0  501 -0.00000000000E+00 -0.00000000000E+00 -0.41199600358E+02  0.41199600358E+02  0.00000000000E+00 0. -1.
         25    2    1    2    0    0  0.38384365760E+02  0.37647032058E+02  0.14630148911E+03  0.19985402470E+03  0.12508735714E+03 0.  0.
         23    2    1    2    0    0 -0.38384365760E+02 -0.37647032058E+02  0.17116782057E+03  0.20001448569E+03  0.88412177499E+02 0.  0.
          5    1    3    3  502    0  0.82954325485E+01  0.27392469373E+01 -0.22674590702E+02  0.24656178505E+02  0.41800000000E+01 0. -1.
         -5    1    3    3    0  502  0.30088933212E+02  0.34907785121E+02  0.16897607981E+03  0.17519784619E+03  0.41800000000E+01 0. -1.
        -11    1    4    4    0    0 -0.37008865494E+02  0.15175158611E+01  0.15188954222E+03  0.15634062817E+03  0.00000000000E+00 0.  1.
         11    1    4    4    0    0 -0.13755002661E+01 -0.39164547919E+02  0.19278278342E+02  0.43673857518E+02  0.00000000000E+00 0. -1.
</event>
<event>
 8    1  0.6597859E-009  0.9234988E+02  0.7561462E-02  0.1297259E+00
          2   -1    0    0  501    0  0.00000000000E+00  0.00000000000E+00  0.28019601293E+03  0.28019601293E+03  0.00000000000E+00 0. -1.
         -2   -1    0    0    0  501 -0.00000000000E+00 -0.00000000000E+00 -0.62989851502E+02  0.62989851502E+02  0.00000000000E+00 0.  1.
         25    2    1    2    0    0 -0.25407227493E+02  0.61798564983E+02  0.17102718945E+03  0.22217662416E+03  0.12509021924E+03 0.  0.
         23    2    1    2    0    0  0.25407227493E+02 -0.61798564983E+02  0.46178971985E+02  0.12100924028E+03  0.89700328517E+02 0.  0.
          5    1    3    3  502    0 -0.27550459355E+02  0.30866194316E+02  0.18375374089E+03  0.18840026394E+03  0.41800000000E+01 0.  1.
         -5    1    3    3    0  502  0.21432318624E+01  0.30932370668E+02 -0.12726551443E+02  0.33776360218E+02  0.41800000000E+01 0.  1.
        -11    1    4    4    0    0  0.38360164955E+02  0.93725871958E+01  0.15146965628E+02  0.42293950086E+02  0.00000000000E+00 0. -1.
         11    1    4    4    0    0 -0.12952937462E+02 -0.71171152179E+02  0.31032006357E+02  0.78715290192E+02  0.00000000000E+00 0.  1.
</event>
<event>
 8    1  0.6597859E-009  0.1137463E+03  0.7561462E-02  0.1253786E+00
         -3   -1    0    0    0  501 -0.00000000000E+00  0.00000000000E+00  0.11533841213E+03  0.11533841213E+03  0.00000000000E+00 0.  1.
          3   -1    0    0  501    0  0.00000000000E+00 -0.00000000000E+00 -0.13876136922E+03  0.13876136922E+03  0.00000000000E+00 0. -1.
         25    2    1    2    0    0 -0.23449100587E+02  0.41251963802E+02 -0.56838178236E+02  0.14536361451E+03  0.12509363326E+03 0.  0.
         23    2    1    2    0    0  0.23449100587E+02 -0.41251963802E+02  0.33415221150E+02  0.10873616684E+03  0.91953206239E+02 0.  0.
          5    1    3    3  502    0 -0.75157014783E+02  0.24897215393E+02 -0.30760222128E+02  0.85041824245E+02  0.41800000000E+01 0.  1.
         -5    1    3    3    0  502  0.51707914196E+02  0.16354748409E+02 -0.26077956109E+02  0.60321790265E+02  0.41800000000E+01 0.  1.
        -11    1    4    4    0    0  0.10505951445E+02  0.24575712771E+02  0.31919194507E+02  0.41631426254E+02  0.00000000000E+00 0.  1.
         11    1    4    4    0    0  0.12943149142E+02 -0.65827676573E+02  0.14960266424E+01  0.67104740581E+02  0.00000000000E+00 0. -1.
</event>
<event>
 8    1  0.6597859E-009  0.9138731E+02  0.7561462E-02  0.1299526E+00
         -1   -1    0    0    0  501 -0.00000000000E+00  0.00000000000E+00  0.20572278019E+03  0.20572278019E+03  0.00000000000E+00 0.  1.
          1   -1    0    0  501    0  0.00000000000E+00 -0.00000000000E+00 -0.60654722883E+02  0.60654722883E+02  0.00000000000E+00 0. -1.
         25    2    1    2    0    0 -0.31023331367E+02 -0.85629454950E+01  0.10989197095E+03  0.16958823286E+03  0.12509257501E+03 0.  0.
         23    2    1    2    0    0  0.31023331367E+02  0.85629454950E+01  0.35176086357E+02  0.96789270208E+02  0.84232028655E+02 0.  0.
          5    1    3    3  502    0 -0.11990396033E+02  0.49759668506E+02  0.92308044355E+02  0.10563163191E+03  0.41800000000E+01 0.  1.
         -5    1    3    3    0  502 -0.19032935334E+02 -0.58322614001E+02  0.17583926592E+02  0.63956600955E+02  0.41800000000E+01 0.  1.
        -11    1    4    4    0    0 -0.46630631651E+00  0.31164033728E+02  0.46884206375E+02  0.56298696674E+02  0.00000000000E+00 0.  1.
         11    1    4    4    0    0  0.31489637684E+02 -0.22601088233E+02 -0.11708120018E+02  0.40490573534E+02  0.00000000000E+00 0. -1.
</event>
<event>
 8    1  0.6597859E-009  0.9885009E+02  0.7561462E-02  0.1282733E+00
          1   -1    0    0  501    0  0.00000000000E+00  0.00000000000E+00  0.24188470671E+03  0.24188470671E+03  0.00000000000E+00 0. -1.
         -1   -1    0    0    0  501 -0.00000000000E+00 -0.00000000000E+00 -0.69588663800E+02  0.69588663800E+02  0.00000000000E+00 0.  1.
         25    2    1    2    0    0 -0.10279807039E+02 -0.41199020030E+02  0.26012534504E+02  0.13463932227E+03  0.12509221185E+03 0.  0.
         23    2    1    2    0    0  0.10279807039E+02  0.41199020030E+02  0.14628350841E+03  0.17683404824E+03  0.89824173258E+02 0.  0.
          5    1    3    3  502    0 -0.46617557885E+02 -0.45015520781E+02  0.57109154077E+02  0.86478446411E+02  0.41800000000E+01 0. -1.
         -5    1    3    3    0  502  0.36337750846E+02  0.38165007514E+01 -0.31096619574E+02  0.48160875858E+02  0.41800000000E+01 0. -1.
        -11    1    4    4    0    0 -0.38006111629E+02  0.13585648742E+02  0.84847661566E+02  0.93958288863E+02  0.00000000000E+00 0. -1.
         11    1    4    4    0    0  0.48285918668E+02  0.27613371288E+02  0.61435846845E+02  0.82875759382E+02  0.00000000000E+00 0.  1.
</event>
<event>
 8    1  0.6597859E-009  0.1407060E+03  0.7561462E-02  0.1212382E+00
          2   -1    0    0  501    0  0.00000000000E+00  0.00000000000E+00  0.60569168094E+03  0.60569168094E+03  0.00000000000E+00 0. -1.
         -2   -1    0    0    0  501 -0.00000000000E+00 -0.00000000000E+00 -0.54655876465E+02  0.54655876465E+02  0.00000000000E+00 0.  1.
         25    2    1    2    0    0  0.11037455211E+03 -0.54845628996E+02  0.43138283092E+03  0.46575189119E+03  0.12507234931E+03 0.  0.
         23    2    1    2    0    0 -0.11037455211E+03  0.54845628996E+02  0.11965297356E+03  0.19459566622E+03  0.91433333395E+02 0.  0.
          5    1    3    3  502    0  0.10745416212E+03 -0.42454638934E+02  0.17948143673E+03  0.21349438366E+03  0.41800000000E+01 0.  1.
         -5    1    3    3    0  502  0.29203899951E+01 -0.12390990062E+02  0.25190139418E+03  0.25225750753E+03  0.41800000000E+01 0.  1.
        -11    1    4    4    0    0 -0.59057948707E+02  0.76548854232E+02  0.64673967712E+02  0.11631977686E+03  0.00000000000E+00 0.  1.
         11    1    4    4    0    0 -0.51316603404E+02 -0.21703225235E+02  0.54979005849E+02  0.78275889358E+02  0.00000000000E+00 0. -1.
</event>
<event>
 8    1  0.6597859E-009  0.9901382E+02  0.7561462E-02  0.1282384E+00
          2   -1    0    0  501    0  0.00000000000E+00  0.00000000000E+00  0.12449424266E+03  0.12449424266E+03  0.00000000000E+00 0. -1.
         -2   -1    0    0    0  501 -0.00000000000E+00 -0.00000000000E+00 -0.32391751765E+03  0.32391751765E+03  0.00000000000E+00 0.  1.
         25    2    1    2    0    0  0.60007446725E+02 -0.26879673237E+02 -0.27789598200E+03  0.31176443939E+03  0.12508988113E+03 0.  0.
         23    2    1    2    0    0 -0.60007446725E+02  0.26879673237E+02  0.78472707008E+02  0.13664732092E+03  0.90504773757E+02 0.  0.
          5    1    3    3  502    0  0.88491562505E+02 -0.39456766748E+01 -0.25092325256E+03  0.26613206510E+03  0.41800000000E+01 0.  1.
         -5    1    3    3    0  502 -0.28484115780E+02 -0.22933996562E+02 -0.26972729440E+02  0.45632374292E+02  0.41800000000E+01 0.  1.
        -11    1    4    4    0    0 -0.97484964996E+01 -0.69376905057E+01 -0.18663837788E+02  0.22169879894E+02  0.00000000000E+00 0.  1.
         11    1    4    4    0    0 -0.50258950225E+02  0.33817363742E+02  0.97136544796E+02  0.11447744102E+03  0.00000000000E+00 0. -1.
</event>
<event>
 8    1  0.6597859E-009  0.1221990E+03  0.7561462E-02  0.1239513E+00
          4   -1    0    0  501    0  0.00000000000E+00  0.00000000000E+00  0.15393707382E+03  0.15393707382E+03  0.00000000000E+00 0. -1.
         -4   -1    0    0    0  501 -0.00000000000E+00 -0.00000000000E+00 -0.14948471638E+03  0.14948471638E+03  0.00000000000E+00 0.  1.
         25    2    1    2    0    0  0.10324646484E+03 -0.42514564263E+01 -0.86958957089E+01  0.16248331039E+03  0.12508916887E+03 0.  0.
         23    2    1    2    0    0 -0.10324646484E+03  0.42514564263E+01  0.13148253149E+02  0.14093847981E+03  0.94936142457E+02 0.  0.
          5    1    3    3  502    0  0.66281565679E+02 -0.20194499593E+02  0.53939807636E+02  0.87909265783E+02  0.41800000000E+01 0. -1.
         -5    1    3    3    0  502  0.36964899164E+02  0.15943043167E+02 -0.62635703345E+02  0.74574044607E+02  0.41800000000E+01 0. -1.
        -11    1    4    4    0    0 -0.75357098294E+02 -0.37600013042E+02 -0.11381854329E+02  0.84982350239E+02  0.00000000000E+00 0. -1.
         11    1    4    4    0    0 -0.27889366549E+02  0.41851469469E+02  0.24530107478E+02  0.55956129566E+02  0.00000000000E+00 0.  1.
</event>
<event>
 8    1  0.6597859E-009  0.1096169E+03  0.7561462E-02  0.1261281E+00
          2   -1    0    0  501    0  0.00000000000E+00  0.00000000000E+00  0.26928378643E+03  0.26928378643E+03  0.00000000000E+00 0. -1.
         -2   -1    0    0    0  501 -0.00000000000E+00 -0.00000000000E+00 -0.63091863160E+02  0.63091863160E+02  0.00000000000E+00 0.  1.
         25    2    1    2    0    0 -0.25792499132E+02  0.60375476203E+02  0.74346740908E+02  0.15964168196E+03  0.12509027779E+03 0.  0.
         23    2    1    2    0    0  0.25792499132E+02 -0.60375476203E+02  0.13184518237E+03  0.17273396763E+03  0.90240901608E+02 0.  0.
          5    1    3    3  502    0 -0.72533489453E+02  0.58216382158E+02  0.59000052586E+02  0.11022129036E+03  0.41800000000E+01 0.  1.
         -5    1    3    3    0  502  0.46740990321E+02  0.21590940447E+01  0.15346688322E+02  0.49420391598E+02  0.41800000000E+01 0.  1.
        -11    1    4    4    0    0  0.33319925534E+02 -0.21719104044E+02  0.52064311524E+01  0.40112888744E+02  0.00000000000E+00 0.  1.
         11    1    4    4    0    0 -0.75274264019E+01 -0.38656372159E+02  0.12663875121E+03  0.13262107889E+03  0.00000000000E+00 0. -1.
</event>
<event>
 8    1  0.6597859E-009  0.1066179E+03  0.7561462E-02  0.1266964E+00
          2   -1    0    0  501    0  0.00000000000E+00  0.00000000000E+00  0.29460256684E+03  0.29460256684E+03  0.00000000000E+00 0. -1.
         -2   -1    0    0    0  501 -0.00000000000E+00 -0.00000000000E+00 -0.48050457182E+02  0.48050457182E+02  0.00000000000E+00 0.  1.
         25    2    1    2    0    0  0.13758057672E+01  0.89436944208E+01  0.76242443562E+02  0.14677369566E+03  0.12509086707E+03 0.  0.
         23    2    1    2    0    0 -0.13758057672E+01 -0.89436944208E+01  0.17030966609E+03  0.19587932836E+03  0.96340263664E+02 0.  0.
          5    1    3    3  502    0  0.20449125982E+02  0.62257716126E+02  0.56613528430E+02  0.86699215521E+02  0.41800000000E+01 0.  1.
         -5    1    3    3    0  502 -0.19073320214E+02 -0.53314021706E+02  0.19628915131E+02  0.60074480136E+02  0.41800000000E+01 0.  1.
        -11    1    4    4    0    0  0.34430861616E+02 -0.32973174692E+02  0.12274102098E+03  0.13167411557E+03  0.00000000000E+00 0. -1.
         11    1    4    4    0    0 -0.35806667383E+02  0.24029480271E+02  0.47568645116E+02  0.64205212789E+02  0.00000000000E+00 0.  1.
</event>
<event>
 8    1  0.6597859E-009  0.1952363E+03  0.7561462E-02  0.1153822E+00
          1   -1    0    0  501    0  0.00000000000E+00  0.00000000000E+00  0.91996705080E+02  0.91996705080E+02  0.00000000000E+00 0. -1.
         -1   -1    0    0    0  501 -0.00000000000E+00 -0.00000000000E+00 -0.41963494721E+03  0.41963494721E+03  0.00000000000E+00 0.  1.
         25    2    1    2    0    0  0.82040720881E+02 -0.14165441769E+03 -0.17346331389E+03  0.26932182067E+03  0.12509223752E+03 0.  0.
         23    2    1    2    0    0 -0.82040720881E+02  0.14165441769E+03 -0.15417492824E+03  0.24230983162E+03  0.90263459221E+02 0.  0.
          5    1    3    3  502    0 -0.33410779511E+02 -0.38248203236E+02 -0.41412889660E+02  0.65663574897E+02  0.41800000000E+01 0. -1.
         -5    1    3    3    0  502  0.11545150039E+03 -0.10340621445E+03 -0.13205042423E+03  0.20365824577E+03  0.41800000000E+01 0. -1.
        -11    1    4    4    0    0  0.17311080774E+02  0.32823964409E+02 -0.48057955367E+02  0.60717816423E+02  0.00000000000E+00 0. -1.
         11    1    4    4    0    0 -0.99351801655E+02  0.10883045328E+03 -0.10611697287E+03  0.18159201520E+03  0.00000000000E+00 0.  1.
</event>
<event>
 8    1  0.6597859E-009  0.1113382E+03  0.7561462E-02  0.1258112E+00
         -4   -1    0    0    0  501 -0.00000000000E+00  0.00000000000E+00  0.36300580781E+02  0.36300580781E+02  0.00000000000E+00 0.  1.
          4   -1    0    0  501    0  0.00000000000E+00 -0.00000000000E+00 -0.44303683800E+03  0.44303683800E+03  0.00000000000E+00 0. -1.
         25    2    1    2    0    0  0.42154813566E+02 -0.36450495660E+02 -0.15996139338E+03  0.21057267977E+03  0.12509012411E+03 0.  0.
         23    2    1    2    0    0 -0.42154813566E+02  0.36450495660E+02 -0.24677486383E+03  0.26876473901E+03  0.90724773765E+02 0.  0.
          5    1    3    3  502    0  0.67689475118E+02 -0.54253077263E+02 -0.15648946740E+03  0.17897398482E+03  0.41800000000E+01 0.  1.
         -5    1    3    3    0  502 -0.25534661553E+02  0.17802581604E+02 -0.34719259795E+01  0.31598694947E+02  0.41800000000E+01 0.  1.
        -11    1    4    4    0    0  0.21955953762E+02 -0.11097790240E+02 -0.38174779348E+02  0.45415180635E+02  0.00000000000E+00 0.  1.
         11    1    4    4    0    0 -0.64110767327E+02  0.47548285899E+02 -0.20860008448E+03  0.22334955838E+03  0.00000000000E+00 0. -1.
</event>
<event>
 7    1  0.6597859E-009  0.1042403E+03  0.7561462E-02  0.1271624E+00
          1   -1    0    0  501    0  0.00000000000E+00  0.00000000000E+00  0.83367227157E+03  0.83367227157E+03  0.00000000000E+00 0.  1.
         -1   -1    0    0    0  501 -0.00000000000E+00 -0.00000000000E+00 -0.20490654407E+02  0.20490654407E+02  0.00000000000E+00 0. -1.
         25    2    1    2    0    0 -0.43762262843E+02  0.71873704006E+02  0.64112994980E+03  0.65861672051E+03  0.12508959602E+03 0.  0.
          5    1    3    3  502    0 -0.27511868485E+02  0.90204378469E+02  0.61629804334E+03  0.62348575239E+03  0.41800000000E+01 0. -1.
         -5    1    3    3    0  502 -0.16250394358E+02 -0.18330674463E+02  0.24831906456E+02  0.35130968123E+02  0.41800000000E+01 0. -1.
        -11    1    1    2    0    0  0.24977070246E+02 -0.64291716994E+02  0.10605627656E+03  0.12651170978E+03  0.00000000000E+00 0.  1.
         11    1    1    2    0    0  0.18785192597E+02 -0.75819870124E+01  0.65995390806E+02  0.69034495693E+02  0.00000000000E+00 0. -1.
</event>
<event>
 8    1  0.6597859E-009  0.1157227E+03  0.7561462E-02  0.1250325E+00
          2   -1    0    0  501    0  0.00000000000E+00  0.00000000000E+00  0.43978413577E+03  0.43978413577E+03  0.00000000000E+00 0. -1.
         -2   -1    0    0    0  501 -0.00000000000E+00 -0.00000000000E+00 -0.32348977560E+02  0.32348977560E+02  0.00000000000E+00 0.  1.
         25    2    1    2    0    0 -0.43985071968E+02 -0.32422786387E+02  0.20809095768E+03  0.24886473415E+03  0.12508351451E+03 0.  0.
         23    2    1    2    0    0  0.43985071968E+02  0.32422786387E+02  0.19934420052E+03  0.22326837917E+03  0.84408146667E+02 0.  0.
          5    1    3    3  502    0  0.35305617876E+02  0.15269285984E+02  0.33298173910E+02  0.51047806357E+02  0.41800000000E+01 0. -1.
         -5    1    3    3    0  502 -0.79290689844E+02 -0.47692072372E+02  0.17479278377E+03  0.19781692780E+03  0.41800000000E+01 0. -1.
        -11    1    4    4    0    0  0.30969828415E+02 -0.25900021020E+02  0.90560782108E+02  0.99152390879E+02  0.00000000000E+00 0.  1.
         11    1    4    4    0    0  0.13015243553E+02  0.58322807407E+02  0.10878341841E+03  0.12411598829E+03  0.00000000000E+00 0. -1.
</event>
<event>
 8    1  0.6597859E-009  0.1531690E+03  0.7561462E-02  0.1196632E+00
          1   -1    0    0  501    0  0.00000000000E+00  0.00000000000E+00  0.14002364030E+04  0.14002364030E+04  0.00000000000E+00 0. -1.
         -1   -1    0    0    0  501 -0.00000000000E+00 -0.00000000000E+00 -0.22813663794E+02  0.22813663794E+02  0.00000000000E+00 0.  1.
         25    2    1    2    0    0 -0.49814810488E+02  0.13050595913E+03  0.85697595129E+03  0.87725060528E+03  0.12509005819E+03 0.  0.
         23    2    1    2    0    0  0.49814810488E+02 -0.13050595913E+03  0.52044678789E+03  0.54579946149E+03  0.86711431932E+02 0.  0.
          5    1    3    3  502    0  0.57912111069E+01  0.19978723464E+02  0.14431660446E+02  0.25659944282E+02  0.41800000000E+01 0. -1.
         -5    1    3    3    0  502 -0.55606021595E+02  0.11052723566E+03  0.84254429085E+03  0.85159066100E+03  0.41800000000E+01 0. -1.
        -11    1    4    4    0    0 -0.21011460222E+02 -0.49178028901E+02  0.12608928079E+03  0.13696155197E+03  0.00000000000E+00 0.  1.
         11    1    4    4    0    0  0.70826270711E+02 -0.81327930224E+02  0.39435750709E+03  0.40883790952E+03  0.00000000000E+00 0. -1.
</event>
<event>
 8    1  0.6597859E-009  0.2548750E+03  0.7561462E-02  0.1110262E+00
         -2   -1    0    0    0  501 -0.00000000000E+00  0.00000000000E+00  0.40380302153E+03  0.40380302153E+03  0.00000000000E+00 0.  1.
          2   -1    0    0  501    0  0.00000000000E+00 -0.00000000000E+00 -0.19673141347E+03  0.19673141347E+03  0.00000000000E+00 0. -1.
         25    2    1    2    0    0 -0.18090036144E+03 -0.14682855517E+03  0.22944632624E+03  0.35010904040E+03  0.12508860126E+03 0.  0.
         23    2    1    2    0    0  0.18090036144E+03  0.14682855517E+03 -0.22374718185E+02  0.25042539460E+03  0.89043162952E+02 0.  0.
          5    1    3    3  502    0 -0.43817344071E+02 -0.11163324768E+03  0.79884692510E+02  0.14415608945E+03  0.41800000000E+01 0.  1.
         -5    1    3    3    0  502 -0.13708301736E+03 -0.35195307484E+02  0.14956163373E+03  0.20595295094E+03  0.41800000000E+01 0.  1.
        -11    1    4    4    0    0  0.11913804131E+03  0.14321861240E+03 -0.27643311274E+02  0.18833373697E+03  0.00000000000E+00 0.  1.
         11    1    4    4    0    0  0.61762320125E+02  0.36099427688E+01  0.52685930892E+01  0.62091657630E+02  0.00000000000E+00 0. -1.
</event>
<event>
 8    1  0.6597859E-009  0.1187215E+03  0.7561462E-02  0.1245221E+00
          1   -1    0    0  501    0  0.00000000000E+00  0.00000000000E+00  0.49489412513E+03  0.49489412513E+03  0.00000000000E+00 0. -1.
         -1   -1    0    0    0  501 -0.00000000000E+00 -0.00000000000E+00 -0.40868435685E+02  0.40868435685E+02  0.00000000000E+00 0.  1.
         25    2    1    2    0    0 -0.58614895975E+02  0.61300226628E+02  0.17973940227E+03  0.23483418678E+03  0.12508964281E+03 0.  0.
         23    2    1    2    0    0  0.58614895975E+02 -0.61300226628E+02  0.27428628717E+03  0.30092837403E+03  0.90174803301E+02 0.  0.
          5    1    3    3  502    0 -0.93494148771E+02  0.19311076428E+02  0.10219704730E+03  0.13991348185E+03  0.41800000000E+01 0.  1.
         -5    1    3    3    0  502  0.34879252797E+02  0.41989150201E+02  0.77542354973E+02  0.94920704933E+02  0.41800000000E+01 0.  1.
        -11    1    4    4    0    0  0.11299249317E+02 -0.23388102085E+01 -0.42640542074E+01  0.12301431892E+02  0.00000000000E+00 0.  1.
         11    1    4    4    0    0  0.47315646658E+02 -0.58961416420E+02  0.27855034138E+03  0.28862694214E+03  0.00000000000E+00 0. -1.
</event>
<event>
 8    1  0.6597859E-009  0.1819422E+03  0.7561462E-02  0.1165936E+00
         -3   -1    0    0    0  501 -0.00000000000E+00  0.00000000000E+00  0.74864377698E+02  0.74864377698E+02  0.00000000000E+00 0.  1.
          3   -1    0    0  501    0  0.00000000000E+00 -0.00000000000E+00 -0.55416634842E+03  0.55416634842E+03  0.00000000000E+00 0. -1.
         25    2    1    2    0    0 -0.15067403907E+03  0.63930529948E+02 -0.16602950709E+03  0.26457483361E+03  0.12507704285E+03 0.  0.
         23    2    1    2    0    0  0.15067403907E+03 -0.63930529948E+02 -0.31327246363E+03  0.36445589251E+03  0.88874531806E+02 0.  0.
          5    1    3    3  502    0  0.11032129493E+02 -0.11892528419E+02  0.47675628922E+01  0.17416720968E+02  0.41800000000E+01 0. -1.
         -5    1    3    3    0  502 -0.16170616856E+03  0.75823058367E+02 -0.17079706998E+03  0.24715811264E+03  0.41800000000E+01 0. -1.
        -11    1    4    4    0    0  0.76257791257E+01 -0.15819899234E+02 -0.95878575188E+00  0.17588092254E+02  0.00000000000E+00 0.  1.
         11    1    4    4    0    0  0.14304825994E+03 -0.48110630715E+02 -0.31231367788E+03  0.34686780025E+03  0.00000000000E+00 0. -1.
</event>
<event>
 8    1  0.6597859E-009  0.1274417E+03  0.7561462E-02  0.1231302E+00
          1   -1    0    0  501    0  0.00000000000E+00  0.00000000000E+00  0.33358109806E+03  0.33358109806E+03  0.00000000000E+00 0. -1.
         -1   -1    0    0    0  501 -0.00000000000E+00 -0.00000000000E+00 -0.51309961745E+02  0.51309961745E+02  0.00000000000E+00 0.  1.
         25    2    1    2    0    0  0.59333018329E+02  0.39400708129E+02  0.18531594930E+03  0.23465417605E+03  0.12509100050E+03 0.  0.
         23    2    1    2    0    0 -0.59333018329E+02 -0.39400708129E+02  0.96955187021E+02  0.15023688376E+03  0.89988833123E+02 0.  0.
          5    1    3    3  502    0 -0.30286706995E+02  0.41254856604E+02  0.90872640249E+02  0.10437699440E+03  0.41800000000E+01 0.  1.
         -5    1    3    3    0  502  0.89619725325E+02 -0.18541484757E+01  0.94443309047E+02  0.13027718165E+03  0.41800000000E+01 0.  1.
        -11    1    4    4    0    0 -0.48856212820E+01  0.27278729555E+02  0.15653499443E+02  0.31828138907E+02  0.00000000000E+00 0.  1.
         11    1    4    4    0    0 -0.54447397047E+02 -0.66679437683E+02  0.81301687578E+02  0.11840874485E+03  0.00000000000E+00 0. -1.
</event>
<event>
 8    1  0.6597859E-009  0.9864893E+02  0.7561462E-02  0.1283163E+00
         -2   -1    0    0    0  501 -0.00000000000E+00  0.00000000000E+00  0.74320183690E+02  0.74320183690E+02  0.00000000000E+00 0. -1.
          2   -1    0    0  501    0  0.00000000000E+00 -0.00000000000E+00 -0.18007430163E+03  0.18007430163E+03  0.00000000000E+00 0.  1.
         25    2    1    2    0    0  0.38729734891E+02 -0.49965005724E+01 -0.60003492213E+02  0.14412343677E+03  0.12508472555E+03 0.  0.
         23    2    1    2    0    0 -0.38729734891E+02  0.49965005724E+01 -0.45750625728E+02  0.11027104855E+03  0.92420923020E+02 0.  0.
          5    1    3    3  502    0 -0.35067432104E+02 -0.31553650065E+02 -0.37340719855E+01  0.47505508316E+02  0.41800000000E+01 0. -1.
         -5    1    3    3    0  502  0.73797166994E+02  0.26557149493E+02 -0.56269420227E+02  0.96617928452E+02  0.41800000000E+01 0. -1.
        -11    1    4    4    0    0 -0.51901085890E+02 -0.84393162561E+01  0.81229480746E+01  0.53206456947E+02  0.00000000000E+00 0. -1.
         11    1    4    4    0    0  0.13171350999E+02  0.13435816828E+02 -0.53873573803E+02  0.57064591607E+02  0.00000000000E+00 0.  1.
</event>
<event>
 8    1  0.6597859E-009  0.9579410E+02  0.7561462E-02  0.1289398E+00
          1   -1    0    0  501    0  0.00000000000E+00  0.00000000000E+00  0.68130853263E+03  0.68130853263E+03  0.00000000000E+00 0. -1.
         -1   -1    0    0    0  501 -0.00000000000E+00 -0.00000000000E+00 -0.22019475604E+02  0.22019475604E+02  0.00000000000E+00 0.  1.
         25    2    1    2    0    0 -0.21843984906E+02  0.37421173126E+02  0.47544477483E+03  0.49352908910E+03  0.12508286852E+03 0.  0.
         23    2    1    2    0    0  0.21843984906E+02 -0.37421173126E+02  0.18384428219E+03  0.20979891913E+03  0.91320110054E+02 0.  0.
          5    1    3    3  502    0  0.22435853050E+02 -0.10943601377E+02  0.35847804966E+03  0.35937044174E+03  0.41800000000E+01 0. -1.
         -5    1    3    3    0  502 -0.44279837956E+02  0.48364774503E+02  0.11696672518E+03  0.13415864736E+03  0.41800000000E+01 0. -1.
        -11    1    4    4    0    0 -0.32634577962E+02 -0.32195891417E+02  0.73431113735E+02  0.86566272689E+02  0.00000000000E+00 0.  1.
         11    1    4    4    0    0  0.54478562868E+02 -0.52252817091E+01  0.11041316846E+03  0.12323264644E+03  0.00000000000E+00 0. -1.
</event>
<event>
 8    1  0.6597859E-009  0.5194875E+02  0.7561462E-02  0.1435105E+00
         -1   -1    0    0    0  501 -0.00000000000E+00  0.00000000000E+00  0.52172673142E+02  0.52172673142E+02  0.00000000000E+00 0.  1.
          1   -1    0    0  501    0  0.00000000000E+00 -0.00000000000E+00 -0.23724582565E+03  0.23724582565E+03  0.00000000000E+00 0. -1.
         25    2    1    2    0    0 -0.56701684828E+01  0.25348477144E+02 -0.83821115122E+02  0.15279984789E+03  0.12508844099E+03 0.  0.
         23    2    1    2    0    0  0.56701684828E+01 -0.25348477144E+02 -0.10125203738E+03  0.13661865090E+03  0.87965814930E+02 0.  0.
          5    1    3    3  502    0  0.37212973631E+01  0.31607548279E+02  0.26622324834E+02  0.41702586752E+02  0.41800000000E+01 0.  1.
         -5    1    3    3    0  502 -0.93914658459E+01 -0.62590711342E+01 -0.11044343996E+03  0.11109726113E+03  0.41800000000E+01 0.  1.
        -11    1    4    4    0    0  0.29249314402E+02 -0.20426063970E+02 -0.33905506520E+01  0.35836326765E+02  0.00000000000E+00 0.  1.
         11    1    4    4    0    0 -0.23579145919E+02 -0.49224131746E+01 -0.97861486729E+02  0.10078232414E+03  0.00000000000E+00 0. -1.
</event>
<event>
 8    1  0.6597859E-009  0.9869654E+02  0.7561462E-02  0.1283061E+00
         -2   -1    0    0    0  501 -0.00000000000E+00  0.00000000000E+00  0.13448462793E+03  0.13448462793E+03  0.00000000000E+00 0. -1.
          2   -1    0    0  501    0  0.00000000000E+00 -0.00000000000E+00 -0.76733311533E+02  0.76733311533E+02  0.00000000000E+00 0.  1.
         25    2    1    2    0    0 -0.13667904205E+02 -0.42627785744E+01  0.30086136300E+02  0.12944927728E+03  0.12508779678E+03 0.  0.
         23    2    1    2    0    0  0.13667904205E+02  0.42627785744E+01  0.27665180097E+02  0.81768662186E+02  0.75602705239E+02 0.  0.
          5    1    3    3  502    0 -0.26844741213E+02 -0.58732336895E+02  0.34031452744E+02  0.73114565607E+02  0.41800000000E+01 0. -1.
         -5    1    3    3    0  502  0.13176837008E+02  0.54469558321E+02 -0.39453164435E+01  0.56334711671E+02  0.41800000000E+01 0. -1.
        -11    1    4    4    0    0  0.25057383469E+02  0.35376784336E+02  0.11227575085E+02  0.44782226146E+02  0.00000000000E+00 0.  1.
         11    1    4    4    0    0 -0.11389479264E+02 -0.31114005762E+02  0.16437605012E+02  0.36986436041E+02  0.00000000000E+00 0. -1.
</event>
<event>
 8    1  0.6597859E-009  0.1282754E+03  0.7561462E-02  0.1230037E+00
          2   -1    0    0  501    0  0.00000000000E+00  0.00000000000E+00  0.76681085119E+03  0.76681085119E+03  0.00000000000E+00 0.  1.
         -2   -1    0    0    0  501 -0.00000000000E+00 -0.00000000000E+00 -0.35836453018E+02  0.35836453018E+02  0.00000000000E+00 0. -1.
         25    2    1    2    0    0  0.37154216901E+02  0.98913817157E+02  0.55438977602E+03  0.57806568165E+03  0.12509008550E+03 0.  0.
         23    2    1    2    0    0 -0.37154216901E+02 -0.98913817157E+02  0.17658462216E+03  0.22458162256E+03  0.89946636131E+02 0.  0.
          5    1    3    3  502    0  0.43608954001E+02 -0.72709987079E+01  0.28435557299E+03  0.28780231511E+03  0.41800000000E+01 0.  1.
         -5    1    3    3    0  502 -0.64547370996E+01  0.10618481586E+03  0.27003420302E+03  0.29026336654E+03  0.41800000000E+01 0.  1.
        -11    1    4    4    0    0 -0.32712440550E+02 -0.85171487230E+02  0.18611693953E+03  0.20727711206E+03  0.00000000000E+00 0.  1.
         11    1    4    4    0    0 -0.44417763514E+01 -0.13742329927E+02 -0.95323173770E+01  0.17304510497E+02  0.00000000000E+00 0. -1.
</event>
<event>
 8    1  0.6597859E-009  0.1024628E+03  0.7561462E-02  0.1275201E+00
         -1   -1    0    0    0  501 -0.00000000000E+00  0.00000000000E+00  0.18400957007E+02  0.18400957007E+02  0.00000000000E+00 0.  1.
          1   -1    0    0  501    0  0.00000000000E+00 -0.00000000000E+00 -0.66435326482E+03  0.66435326482E+03  0.00000000000E+00 0. -1.
         25    2    1    2    0    0  0.36407781418E+01 -0.15079119677E+02 -0.42489860079E+03  0.44319862101E+03  0.12508221935E+03 0.  0.
         23    2    1    2    0    0 -0.36407781418E+01  0.15079119677E+02 -0.22105370702E+03  0.23955560081E+03  0.91002798735E+02 0.  0.
          5    1    3    3  502    0  0.38358495437E+02  0.42511507088E+02 -0.16474482106E+03  0.17446183214E+03  0.41800000000E+01 0. -1.
         -5    1    3    3    0  502 -0.34717717295E+02 -0.57590626765E+02 -0.26015377974E+03  0.26873678888E+03  0.41800000000E+01 0. -1.
        -11    1    4    4    0    0  0.32218137824E+02 -0.12850309507E+02 -0.15838886124E+03  0.16214243807E+03  0.00000000000E+00 0. -1.
         11    1    4    4    0    0 -0.35858915966E+02  0.27929429183E+02 -0.62664845781E+02  0.77413162741E+02  0.00000000000E+00 0.  1.
</event>
<event>
 8    1  0.6597859E-009  0.8567642E+02  0.7561462E-02  0.1313673E+00
         -2   -1    0    0    0  501 -0.00000000000E+00  0.00000000000E+00  0.13052052063E+03  0.13052052063E+03  0.00000000000E+00 0.  1.
          2   -1    0    0  501    0  0.00000000000E+00 -0.00000000000E+00 -0.10343242360E+03  0.10343242360E+03  0.00000000000E+00 0. -1.
         25    2    1    2    0    0 -0.33689974981E+02 -0.18362755418E+02  0.25125462737E+02  0.13323288183E+03  0.12508999449E+03 0.  0.
         23    2    1    2    0    0  0.33689974981E+02  0.18362755418E+02  0.19626342939E+01  0.10072006240E+03  0.93104639171E+02 0.  0.
          5    1    3    3  502    0 -0.39345720800E+02 -0.69093455146E+02  0.14682199865E+02  0.80963143974E+02  0.41800000000E+01 0.  1.
         -5    1    3    3    0  502  0.56557458191E+01  0.50730699728E+02  0.10443262872E+02  0.52269737852E+02  0.41800000000E+01 0.  1.
        -11    1    4    4    0    0  0.12794706827E+02  0.14374102757E+02  0.47068076283E+02  0.50850006468E+02  0.00000000000E+00 0.  1.
         11    1    4    4    0    0  0.20895268153E+02  0.39886526613E+01 -0.45105441989E+02  0.49870055928E+02  0.00000000000E+00 0. -1.
</event>
<event>
 8    1  0.6597859E-009  0.1483719E+03  0.7561462E-02  0.1202488E+00
          2   -1    0    0  501    0  0.00000000000E+00  0.00000000000E+00  0.35131756961E+03  0.35131756961E+03  0.00000000000E+00 0. -1.
         -2   -1    0    0    0  501 -0.00000000000E+00 -0.00000000000E+00 -0.74634338386E+02  0.74634338386E+02  0.00000000000E+00 0.  1.
         25    2    1    2    0    0  0.60534595588E+02 -0.10300428755E+03  0.12604794202E+03  0.21403988925E+03  0.12510263780E+03 0.  0.
         23    2    1    2    0    0 -0.60534595588E+02  0.10300428755E+03  0.15063528921E+03  0.21191201875E+03  0.89114492759E+02 0.  0.
          5    1    3    3  502    0  0.94536223056E+02 -0.98273164004E+02  0.11275202216E+03  0.17698927406E+03  0.41800000000E+01 0.  1.
         -5    1    3    3    0  502 -0.34001627468E+02 -0.47311235480E+01  0.13295919862E+02  0.37050615184E+02  0.41800000000E+01 0.  1.
        -11    1    4    4    0    0 -0.47178220239E+02  0.41615853344E+02  0.18454748402E+02  0.65560975077E+02  0.00000000000E+00 0.  1.
         11    1    4    4    0    0 -0.13356375349E+02  0.61388434208E+02  0.13218054081E+03  0.14635104368E+03  0.00000000000E+00 0. -1.
</event>
<event>
 8    1  0.6597859E-009  0.7749271E+02  0.7561462E-02  0.1336321E+00
         -2   -1    0    0    0  501 -0.00000000000E+00  0.00000000000E+00  0.49957158875E+03  0.49957158875E+03  0.00000000000E+00 0.  1.
          2   -1    0    0  501    0  0.00000000000E+00 -0.00000000000E+00 -0.28454684359E+02  0.28454684359E+02  0.00000000000E+00 0. -1.
         25    2    1    2    0    0  0.27889496411E+01  0.29190729227E+01  0.35186856197E+03  0.37346447813E+03  0.12509169554E+03 0.  0.
         23    2    1    2    0    0 -0.27889496411E+01 -0.29190729227E+01  0.11924834242E+03  0.15456179499E+03  0.98249081785E+02 0.  0.
          5    1    3    3  502    0 -0.13931270649E+02  0.51376744685E+02  0.76241646002E+02  0.93080133119E+02  0.41800000000E+01 0. -1.
         -5    1    3    3    0  502  0.16720220290E+02 -0.48457671763E+02  0.27562691597E+03  0.28038434501E+03  0.41800000000E+01 0. -1.
        -11    1    4    4    0    0  0.21150206183E+01 -0.26241060531E+02  0.12684515108E+03  0.12954828799E+03  0.00000000000E+00 0.  1.
         11    1    4    4    0    0 -0.49039702594E+01  0.23321987608E+02 -0.75968086545E+01  0.25013506992E+02  0.00000000000E+00 0. -1.
</event>
<event>
 7    1  0.6597859E-009  0.1386061E+03  0.7561462E-02  0.1215217E+00
          2   -1    0    0  501    0  0.00000000000E+00  0.00000000000E+00  0.40689755583E+03  0.40689755583E+03  0.00000000000E+00 0. -1.
         -2   -1    0    0    0  501 -0.00000000000E+00 -0.00000000000E+00 -0.56471153422E+02  0.56471153422E+02  0.00000000000E+00 0.  1.
         23    2    1    2    0    0 -0.39649634061E+02 -0.94714855804E+02  0.18712376225E+03  0.23339179529E+03  0.94410965042E+02 0.  0.
          5    1    1    2  502    0  0.40016276998E+02  0.11673871774E+03  0.88582520425E+02  0.15196567365E+03  0.41800000000E+01 0.  1.
         -5    1    1    2    0  502 -0.36664293726E+00 -0.22023861932E+02  0.74720119735E+02  0.78011240310E+02  0.41800000000E+01 0.  1.
        -11    1    3    3    0    0 -0.11253912754E+02  0.14564802143E+02  0.62833319269E+02  0.65473735377E+02  0.00000000000E+00 0. -1.
         11    1    3    3    0    0 -0.28395721306E+02 -0.10927965795E+03  0.12429044298E+03  0.16791805991E+03  0.00000000000E+00 0.  1.
</event>
<event>
 8    1  0.6597859E-009  0.1298203E+03  0.7561462E-02  0.1227723E+00
         -1   -1    0    0    0  501 -0.00000000000E+00  0.00000000000E+00  0.48678725032E+03  0.48678725032E+03  0.00000000000E+00 0.  1.
          1   -1    0    0  501    0  0.00000000000E+00 -0.00000000000E+00 -0.45319163149E+02  0.45319163149E+02  0.00000000000E+00 0. -1.
         25    2    1    2    0    0 -0.97674170156E+02  0.15076263964E+02  0.28570323719E+03  0.32717266214E+03  0.12509226137E+03 0.  0.
         23    2    1    2    0    0  0.97674170156E+02 -0.15076263964E+02  0.15576484997E+03  0.20493375133E+03  0.89261507357E+02 0.  0.
          5    1    3    3  502    0 -0.22863542987E+02 -0.37197651121E+02  0.18946461884E+03  0.19447550242E+03  0.41800000000E+01 0.  1.
         -5    1    3    3    0  502 -0.74810627169E+02  0.52273915084E+02  0.96238618352E+02  0.13269715972E+03  0.41800000000E+01 0.  1.
        -11    1    4    4    0    0  0.22386854845E+02 -0.39385912084E+02  0.94751058098E+02  0.10502468448E+03  0.00000000000E+00 0.  1.
         11    1    4    4    0    0  0.75287315312E+02  0.24309648121E+02  0.61013791875E+02  0.99909066843E+02  0.00000000000E+00 0. -1.
</event>
<event>
 8    1  0.6597859E-009  0.1070036E+03  0.7561462E-02  0.1266222E+00
         -1   -1    0    0    0  501 -0.00000000000E+00  0.00000000000E+00  0.24899233021E+02  0.24899233021E+02  0.00000000000E+00 0.  1.
          1   -1    0    0  501    0  0.00000000000E+00 -0.00000000000E+00 -0.73175393393E+03  0.73175393393E+03  0.00000000000E+00 0. -1.
         25    2    1    2    0    0  0.31282051101E+02  0.68989172846E+02 -0.45285300768E+03  0.47587912206E+03  0.12508804720E+03 0.  0.
         23    2    1    2    0    0 -0.31282051101E+02 -0.68989172846E+02 -0.25400169323E+03  0.28077404490E+03  0.92623600837E+02 0.  0.
          5    1    3    3  502    0  0.51381583778E+02  0.87338641400E+02 -0.23046453621E+03  0.25179253421E+03  0.41800000000E+01 0.  1.
         -5    1    3    3    0  502 -0.20099532677E+02 -0.18349468555E+02 -0.22238847147E+03  0.22408658785E+03  0.41800000000E+01 0.  1.
        -11    1    4    4    0    0 -0.31674476645E+02 -0.23196116939E+02 -0.22066555747E+03  0.22413081128E+03  0.00000000000E+00 0. -1.
         11    1    4    4    0    0  0.39242554364E+00 -0.45793055907E+02 -0.33336135766E+02  0.56643233620E+02  0.00000000000E+00 0.  1.
</event>
<event>
 8    1  0.6597859E-009  0.1972070E+03  0.7561462E-02  0.1152117E+00
         -1   -1    0    0    0  501 -0.00000000000E+00  0.00000000000E+00  0.78477467455E+02  0.78477467455E+02  0.00000000000E+00 0.  1.
          1   -1    0    0  501    0  0.00000000000E+00 -0.00000000000E+00 -0.81173813236E+03  0.81173813236E+03  0.00000000000E+00 0. -1.
         25    2    1    2    0    0  0.14752800698E+03 -0.11429579225E+03 -0.14786991942E+03  0.26896707267E+03  0.12509888946E+03 0.  0.
         23    2    1    2    0    0 -0.14752800698E+03  0.11429579225E+03 -0.58539074549E+03  0.62124852714E+03  0.91866025300E+02 0.  0.
          5    1    3    3  502    0 -0.11860239885E+02 -0.71202349541E+01  0.12194274125E+02  0.18908615956E+02  0.41800000000E+01 0.  1.
         -5    1    3    3    0  502  0.15938824686E+03 -0.10717555730E+03 -0.16006419354E+03  0.25005845672E+03  0.41800000000E+01 0.  1.
        -11    1    4    4    0    0 -0.51173649697E+02  0.52860410535E+02 -0.11014455754E+03  0.13245674381E+03  0.00000000000E+00 0.  1.
         11    1    4    4    0    0 -0.96354357282E+02  0.61435381718E+02 -0.47524618795E+03  0.48879178333E+03  0.00000000000E+00 0. -1.
</event>
<event>
 8    1  0.6597859E-009  0.7651056E+02  0.7561462E-02  0.1339256E+00
         -2   -1    0    0    0  501 -0.00000000000E+00  0.00000000000E+00  0.79500944804E+02  0.79500944804E+02  0.00000000000E+00 0.  1.
          2   -1    0    0  501    0  0.00000000000E+00 -0.00000000000E+00 -0.27088180076E+03  0.27088180076E+03  0.00000000000E+00 0. -1.
         25    2    1    2    0    0 -0.49778695111E+01  0.37861695701E+02  0.42909091694E+01  0.13085928879E+03  0.12508978526E+03 0.  0.
         23    2    1    2    0    0  0.49778695111E+01 -0.37861695701E+02 -0.19567176513E+03  0.21952345677E+03  0.91895708380E+02 0.  0.
          5    1    3    3  502    0  0.12324718730E+02 -0.13277387626E+02 -0.50507581925E+02  0.53820776155E+02  0.41800000000E+01 0.  1.
         -5    1    3    3    0  502 -0.17302588241E+02  0.51139083327E+02  0.54798491095E+02  0.77038512639E+02  0.41800000000E+01 0.  1.
        -11    1    4    4    0    0  0.37174015304E+02 -0.12251004386E+02 -0.31402083700E+02  0.50180527927E+02  0.00000000000E+00 0.  1.
         11    1    4    4    0    0 -0.32196145793E+02 -0.25610691315E+02 -0.16426968143E+03  0.16934292884E+03  0.00000000000E+00 0. -1.
</event>
<event>
 8    1  0.6597859E-009  0.8631803E+02  0.7561462E-02  0.1312021E+00
         -2   -1    0    0    0  501 -0.00000000000E+00  0.00000000000E+00  0.46392623465E+02  0.46392623465E+02  0.00000000000E+00 0.  1.
          2   -1    0    0  501    0  0.00000000000E+00 -0.00000000000E+00 -0.31803541842E+03  0.31803541842E+03  0.00000000000E+00 0. -1.
         25    2    1    2    0    0  0.34260292186E+02  0.82029713261E+01 -0.89186780998E+02  0.15761794982E+03  0.12509228529E+03 0.  0.
         23    2    1    2    0    0 -0.34260292186E+02 -0.82029713261E+01 -0.18245601396E+03  0.20681009207E+03  0.90769823145E+02 0.  0.
          5    1    3    3  502    0  0.97827611547E+01 -0.31252294866E+02 -0.10367105882E+03  0.10880059369E+03  0.41800000000E+01 0. -1.
         -5    1    3    3    0  502  0.24477531031E+02  0.39455266192E+02  0.14484277818E+02  0.48817356130E+02  0.41800000000E+01 0. -1.
        -11    1    4    4    0    0  0.16504459798E+02 -0.32706206250E+02 -0.10353744696E+03  0.10982757415E+03  0.00000000000E+00 0. -1.
         11    1    4    4    0    0 -0.50764751983E+02  0.24503234924E+02 -0.78918567005E+02  0.96982517928E+02  0.00000000000E+00 0.  1.
</event>
<event>
 8    1  0.6597859E-009  0.1186224E+03  0.7561462E-02  0.1245387E+00
         -3   -1    0    0    0  501 -0.00000000000E+00  0.00000000000E+00  0.64293188213E+03  0.64293188213E+03  0.00000000000E+00 0.  1.
          3   -1    0    0  501    0  0.00000000000E+00 -0.00000000000E+00 -0.28076047359E+02  0.28076047359E+02  0.00000000000E+00 0. -1.
         25    2    1    2    0    0  0.58303963015E+02  0.51922071823E+02  0.30243795460E+03  0.33646902857E+03  0.12508971642E+03 0.  0.
         23    2    1    2    0    0 -0.58303963015E+02 -0.51922071823E+02  0.31241788016E+03  0.33453890092E+03  0.90642654075E+02 0.  0.
          5    1    3    3  502    0  0.59802942244E+02  0.90060700529E+02  0.20630559998E+03  0.23295234419E+03  0.41800000000E+01 0.  1.
         -5    1    3    3    0  502 -0.14989792288E+01 -0.38138628706E+02  0.96132354628E+02  0.10351668438E+03  0.41800000000E+01 0.  1.
        -11    1    4    4    0    0 -0.27284281850E+02 -0.53011667043E+02  0.29046628126E+03  0.29652205555E+03  0.00000000000E+00 0.  1.
         11    1    4    4    0    0 -0.31019681164E+02  0.10895952200E+01  0.21951598896E+02  0.38016845364E+02  0.00000000000E+00 0. -1.
</event>
<event>
 8    1  0.6597859E-009  0.9619911E+02  0.7561462E-02  0.1288498E+00
         -1   -1    0    0    0  501 -0.00000000000E+00  0.00000000000E+00  0.62032811428E+02  0.62032811428E+02  0.00000000000E+00 0. -1.
          1   -1    0    0  501    0  0.00000000000E+00 -0.00000000000E+00 -0.27268614079E+03  0.27268614079E+03  0.00000000000E+00 0.  1.
         25    2    1    2    0    0  0.17359286959E+01  0.24712078897E+02 -0.29724158697E+02  0.13097951791E+03  0.12513356149E+03 0.  0.
         23    2    1    2    0    0 -0.17359286959E+01 -0.24712078897E+02 -0.18092917067E+03  0.20373943431E+03  0.90336548543E+02 0.  0.
          5    1    3    3  502    0  0.47308077433E+02 -0.25554220587E+02  0.58650650607E+01  0.54248905688E+02  0.41800000000E+01 0.  1.
         -5    1    3    3    0  502 -0.45572148737E+02  0.50266299485E+02 -0.35589223757E+02  0.76730612222E+02  0.41800000000E+01 0.  1.
        -11    1    4    4    0    0 -0.31668131794E+02  0.94529739161E-02 -0.15215897311E+03  0.15541950894E+03  0.00000000000E+00 0.  1.
         11    1    4    4    0    0  0.29932203099E+02 -0.24721531871E+02 -0.28770197556E+02  0.48319925370E+02  0.00000000000E+00 0. -1.
</event>
<event>
 8    1  0.6597859E-009  0.1349854E+03  0.7561462E-02  0.1220240E+00
          4   -1    0    0  501    0  0.00000000000E+00  0.00000000000E+00  0.11538861542E+03  0.11538861542E+03  0.00000000000E+00 0.  1.
         -4   -1    0    0    0  501 -0.00000000000E+00 -0.00000000000E+00 -0.17800624588E+03  0.17800624588E+03  0.00000000000E+00 0. -1.
         25    2    1    2    0    0 -0.48461944805E+02  0.68434665741E+02  0.72982862454E+01  0.15077410127E+03  0.12509077129E+03 0.  0.
         23    2    1    2    0    0  0.48461944805E+02 -0.68434665741E+02 -0.69915916703E+02  0.14262076003E+03  0.91763730384E+02 0.  0.
          5    1    3    3  502    0 -0.77889970962E+02  0.81959798157E+02 -0.10415679866E+02  0.11362312651E+03  0.41800000000E+01 0.  1.
         -5    1    3    3    0  502  0.29428026157E+02 -0.13525132416E+02  0.17713966111E+02  0.37150974762E+02  0.41800000000E+01 0.  1.
        -11    1    4    4    0    0 -0.17214303714E+02  0.11509847582E+02 -0.14214695950E+02  0.25117054458E+02  0.00000000000E+00 0.  1.
         11    1    4    4    0    0  0.65676248519E+02 -0.79944513323E+02 -0.55701220753E+02  0.11750370557E+03  0.00000000000E+00 0. -1.
</event>
<event>
 8    1  0.6597859E-009  0.2754899E+03  0.7561462E-02  0.1098178E+00
          1   -1    0    0  501    0  0.00000000000E+00  0.00000000000E+00  0.14858980211E+04  0.14858980211E+04  0.00000000000E+00 0. -1.
         -1   -1    0    0    0  501 -0.00000000000E+00 -0.00000000000E+00 -0.10755093137E+03  0.10755093137E+03  0.00000000000E+00 0.  1.
         25    2    1    2    0    0 -0.25615144948E+03 -0.42292350376E+02  0.12621772639E+04  0.12946579884E+04  0.12508258660E+03 0.  0.
         23    2    1    2    0    0  0.25615144948E+03  0.42292350376E+02  0.11616982586E+03  0.29879096409E+03  0.91533621223E+02 0.  0.
          5    1    3    3  502    0 -0.63142618457E+02 -0.60488742578E+02  0.53284839356E+03  0.53999144545E+03  0.41800000000E+01 0.  1.
         -5    1    3    3    0  502 -0.19300883102E+03  0.18196392202E+02  0.72932887032E+03  0.75466654293E+03  0.41800000000E+01 0.  1.
        -11    1    4    4    0    0  0.10653840378E+03 -0.18325082517E+02  0.76876938655E+02  0.13265106040E+03  0.00000000000E+00 0. -1.
         11    1    4    4    0    0  0.14961304570E+03  0.60617432893E+02  0.39292887207E+02  0.16613990369E+03  0.00000000000E+00 0.  1.
</event>
<event>
 8    1  0.6597859E-009  0.1587721E+03  0.7561462E-02  0.1190090E+00
         -3   -1    0    0    0  501 -0.00000000000E+00  0.00000000000E+00  0.26558242114E+03  0.26558242114E+03  0.00000000000E+00 0.  1.
          3   -1    0    0  501    0  0.00000000000E+00 -0.00000000000E+00 -0.14691482625E+03  0.14691482625E+03  0.00000000000E+00 0. -1.
         25    2    1    2    0    0  0.12272850714E+03  0.86877714868E+02 -0.79690553778E+01  0.19575731112E+03  0.12508954876E+03 0.  0.
         23    2    1    2    0    0 -0.12272850714E+03 -0.86877714868E+02  0.12663665027E+03  0.21673993627E+03  0.91265190394E+02 0.  0.
          5    1    3    3  502    0  0.44297759081E+02  0.43511002244E+02 -0.64568097300E+02  0.89677256675E+02  0.41800000000E+01 0. -1.
         -5    1    3    3    0  502  0.78430748060E+02  0.43366712624E+02  0.56599041922E+02  0.10608005445E+03  0.41800000000E+01 0. -1.
        -11    1    4    4    0    0 -0.12980548629E+03 -0.70419386640E+02  0.82620082141E+02  0.16921711574E+03  0.00000000000E+00 0. -1.
         11    1    4    4    0    0  0.70769791465E+01 -0.16458328228E+02  0.44016568125E+02  0.47522820533E+02  0.00000000000E+00 0.  1.
</event>
<event>
 8    1  0.6597859E-009  0.2007391E+03  0.7561462E-02  0.1149117E+00
          1   -1    0    0  501    0  0.00000000000E+00  0.00000000000E+00  0.25940779679E+03  0.25940779679E+03  0.00000000000E+00 0. -1.
         -1   -1    0    0    0  501 -0.00000000000E+00 -0.00000000000E+00 -0.21773188534E+03  0.21773188534E+03  0.00000000000E+00 0.  1.
         25    2    1    2    0    0  0.11678868724E+03  0.13771716040E+03  0.13214819195E+03  0.25637986061E+03  0.12514741129E+03 0.  0.
         23    2    1    2    0    0 -0.11678868724E+03 -0.13771716040E+03 -0.90472280493E+02  0.22075982153E+03  0.89129408884E+02 0.  0.
          5    1    3    3  502    0  0.13964525523E+03  0.13812328328E+03  0.11817039473E+03  0.22926088476E+03  0.41800000000E+01 0.  1.
         -5    1    3    3    0  502 -0.22856567987E+02 -0.40612287411E+00  0.13977797215E+02  0.27118975846E+02  0.41800000000E+01 0.  1.
        -11    1    4    4    0    0 -0.29205997907E+02 -0.21550580177E+02  0.16807956301E+02  0.39999065174E+02  0.00000000000E+00 0.  1.
         11    1    4    4    0    0 -0.87582689331E+02 -0.11616658023E+03 -0.10728023679E+03  0.18076075636E+03  0.00000000000E+00 0. -1.
</event>
<event>
 8    1  0.6597859E-009  0.1001544E+03  0.7561462E-02  0.1279972E+00
          1   -1    0    0  501    0  0.00000000000E+00  0.00000000000E+00  0.41946084682E+02  0.41946084682E+02  0.00000000000E+00 0. -1.
         -1   -1    0    0    0  501 -0.00000000000E+00 -0.00000000000E+00 -0.46479895887E+03  0.46479895887E+03  0.00000000000E+00 0.  1.
         25    2    1    2    0    0 -0.22196542704E+02  0.70992574447E+02 -0.30101589157E+03  0.33435063704E+03  0.12508856615E+03 0.  0.
         23    2    1    2    0    0  0.22196542704E+02 -0.70992574447E+02 -0.12183698262E+03  0.17239440651E+03  0.96658930924E+02 0.  0.
          5    1    3    3  502    0  0.99989229623E+01  0.79472729044E+02 -0.28698069911E+03  0.29797866901E+03  0.41800000000E+01 0.  1.
         -5    1    3    3    0  502 -0.32195465666E+02 -0.84801545969E+01 -0.14035192458E+02  0.36371968036E+02  0.41800000000E+01 0.  1.
        -11    1    4    4    0    0  0.30265876812E+02 -0.23354480592E+02 -0.11787079107E+03  0.12391520670E+03  0.00000000000E+00 0.  1.
         11    1    4    4    0    0 -0.80693341082E+01 -0.47638093855E+02 -0.39661915495E+01  0.48479199813E+02  0.00000000000E+00 0. -1.
</event>
<event>
 8    1  0.6597859E-009  0.2619184E+03  0.7561462E-02  0.1105996E+00
          2   -1    0    0  501    0  0.00000000000E+00  0.00000000000E+00  0.15717220095E+04  0.15717220095E+04  0.00000000000E+00 0.  1.
         -2   -1    0    0    0  501 -0.00000000000E+00 -0.00000000000E+00 -0.47826380359E+02  0.47826380359E+02  0.00000000000E+00 0. -1.
         25    2    1    2    0    0 -0.12095234158E+03  0.22047241389E+03  0.80433615494E+03  0.85196337620E+03  0.12508952808E+03 0.  0.
         23    2    1    2    0    0  0.12095234158E+03 -0.22047241389E+03  0.71955947419E+03  0.76758501364E+03  0.90461937006E+02 0.  0.
          5    1    3    3  502    0  0.41496872579E+01  0.25653877261E+02  0.24752194096E+03  0.24891750638E+03  0.41800000000E+01 0.  1.
         -5    1    3    3    0  502 -0.12510202884E+03  0.19481853663E+03  0.55681421397E+03  0.60304586983E+03  0.41800000000E+01 0.  1.
        -11    1    4    4    0    0  0.12020117466E+03 -0.13612329279E+03  0.45489326830E+03  0.48980175456E+03  0.00000000000E+00 0. -1.
         11    1    4    4    0    0  0.75116692078E+00 -0.84349121102E+02  0.26466620589E+03  0.27778325908E+03  0.00000000000E+00 0.  1.
</event>
<event>
 8    1  0.6597859E-009  0.9672306E+02  0.7561462E-02  0.1287342E+00
          2   -1    0    0  501    0  0.00000000000E+00  0.00000000000E+00  0.36150424139E+03  0.36150424139E+03  0.00000000000E+00 0. -1.
         -2   -1    0    0    0  501 -0.00000000000E+00 -0.00000000000E+00 -0.46358937464E+02  0.46358937464E+02  0.00000000000E+00 0.  1.
         25    2    1    2    0    0  0.27478459145E+01  0.82585579503E+01  0.28237163250E+03  0.30896081069E+03  0.12508912530E+03 0.  0.
         23    2    1    2    0    0 -0.27478459145E+01 -0.82585579503E+01  0.32773671429E+02  0.98902368161E+02  0.92907537113E+02 0.  0.
          5    1    3    3  502    0 -0.17221878844E+02 -0.54841332027E+02  0.15482289755E+03  0.16520219979E+03  0.41800000000E+01 0. -1.
         -5    1    3    3    0  502  0.19969724759E+02  0.63099889977E+02  0.12754873495E+03  0.14375861091E+03  0.41800000000E+01 0. -1.
        -11    1    4    4    0    0  0.91936473893E+01 -0.37130684511E+02 -0.15604231313E+02  0.41312261127E+02  0.00000000000E+00 0.  1.
         11    1    4    4    0    0 -0.11941493304E+02  0.28872126561E+02  0.48377902741E+02  0.57590107034E+02  0.00000000000E+00 0. -1.
</event>
<event>
 8    1  0.6597859E-009  0.1141612E+03  0.7561462E-02  0.1253052E+00
          2   -1    0    0  501    0  0.00000000000E+00  0.00000000000E+00  0.41882931689E+02  0.41882931689E+02  0.00000000000E+00 0. -1.
         -2   -1    0    0    0  501 -0.00000000000E+00 -0.00000000000E+00 -0.40076972593E+03  0.40076972593E+03  0.00000000000E+00 0.  1.
         25    2    1    2    0    0  0.41363540395E+02  0.44136121782E+02 -0.27755661100E+03  0.31039349459E+03  0.12509000541E+03 0.  0.
         23    2    1    2    0    0 -0.41363540395E+02 -0.44136121782E+02 -0.81330183238E+02  0.13225916303E+03  0.84964391242E+02 0.  0.
          5    1    3    3  502    0  0.78907289987E+02  0.52167820897E+02 -0.15244668974E+03  0.17945837279E+03  0.41800000000E+01 0. -1.
         -5    1    3    3    0  502 -0.37543749592E+02 -0.80316991146E+01 -0.12510992126E+03  0.13093512180E+03  0.41800000000E+01 0. -1.
        -11    1    4    4    0    0 -0.61783527645E+02 -0.23832368228E+02 -0.79411599262E+02  0.10339916905E+03  0.00000000000E+00 0.  1.
         11    1    4    4    0    0  0.20419987250E+02 -0.20303753555E+02 -0.19185839766E+01  0.28859993974E+02  0.00000000000E+00 0. -1.
</event>
<event>
 8    1  0.6597859E-009  0.1489301E+03  0.7561462E-02  0.1201794E+00
          2   -1    0    0  501    0  0.00000000000E+00  0.00000000000E+00  0.57648370924E+03  0.57648370924E+03  0.00000000000E+00 0. -1.
         -2   -1    0    0    0  501 -0.00000000000E+00 -0.00000000000E+00 -0.63668531002E+02  0.63668531002E+02  0.00000000000E+00 0.  1.
         25    2    1    2    0    0  0.12537813337E+03  0.23230858676E+02  0.42262589922E+03  0.45882280419E+03  0.12508543415E+03 0.  0.
         23    2    1    2    0    0 -0.12537813337E+03 -0.23230858676E+02  0.90189279017E+02  0.18132943605E+03  0.92124422416E+02 0.  0.
          5    1    3    3  502    0  0.31305795835E+02  0.56047406146E+02  0.83917814728E+02  0.10574042092E+03  0.41800000000E+01 0. -1.
         -5    1    3    3    0  502  0.94072337532E+02 -0.32816547470E+02  0.33870808449E+03  0.35308238327E+03  0.41800000000E+01 0. -1.
        -11    1    4    4    0    0 -0.34965669706E+02  0.11714478477E+02 -0.13611384194E+02  0.39307719899E+02  0.00000000000E+00 0. -1.
         11    1    4    4    0    0 -0.90412463661E+02 -0.34945337153E+02  0.10380066321E+03  0.14202171615E+03  0.00000000000E+00 0.  1.
</event>
<event>
 8    1  0.6597859E-009  0.1040282E+03  0.7561462E-02  0.1272046E+00
         -1   -1    0    0    0  501 -0.00000000000E+00  0.00000000000E+00  0.27485706767E+02  0.27485706767E+02  0.00000000000E+00 0.  1.
          1   -1    0    0  501    0  0.00000000000E+00 -0.00000000000E+00 -0.52542880521E+03  0.52542880521E+03  0.00000000000E+00 0. -1.
         25    2    1    2    0    0  0.87691431444E+01 -0.21836486585E+02 -0.38703510086E+03  0.40742836726E+03  0.12509186679E+03 0.  0.
         23    2    1    2    0    0 -0.87691431444E+01  0.21836486585E+02 -0.11090799758E+03  0.14548614471E+03  0.91169646032E+02 0.  0.
          5    1    3    3  502    0  0.89697810102E+01 -0.73000044367E+02 -0.18904225227E+03  0.20288890801E+03  0.41800000000E+01 0.  1.
         -5    1    3    3    0  502 -0.20063786572E+00  0.51163557782E+02 -0.19799284859E+03  0.20453945926E+03  0.41800000000E+01 0.  1.
        -11    1    4    4    0    0 -0.39647637223E+02  0.31566234107E+02 -0.98578743384E+02  0.11084282079E+03  0.00000000000E+00 0.  1.
         11    1    4    4    0    0  0.30878494078E+02 -0.97297475218E+01 -0.12329254196E+02  0.34643323923E+02  0.00000000000E+00 0. -1.
</event>
<event>
 8    1  0.6597859E-009  0.1262594E+03  0.7561462E-02  0.1233114E+00
          1   -1    0    0  501    0  0.00000000000E+00  0.00000000000E+00  0.46470919792E+03  0.46470919792E+03  0.00000000000E+00 0. -1.
         -1   -1    0    0    0  501 -0.00000000000E+00 -0.00000000000E+00 -0.43009013132E+02  0.43009013132E+02  0.00000000000E+00 0.  1.
         25    2    1    2    0    0  0.27115616852E+02  0.68576819602E+02  0.32457678599E+03  0.35557730494E+03  0.12508834048E+03 0.  0.
         23    2    1    2    0    0 -0.27115616852E+02 -0.68576819602E+02  0.97123398795E+02  0.15214090611E+03  0.90971775035E+02 0.  0.
          5    1    3    3  502    0 -0.49398796726E+02  0.25652432544E+02  0.15221504600E+03  0.16212705216E+03  0.41800000000E+01 0. -1.
         -5    1    3    3    0  502  0.76514413578E+02  0.42924387058E+02  0.17236173999E+03  0.19345025279E+03  0.41800000000E+01 0. -1.
        -11    1    4    4    0    0  0.28210479791E+02 -0.31400410395E+02  0.66548448999E+02  0.78806808127E+02  0.00000000000E+00 0.  1.
         11    1    4    4    0    0 -0.55326096643E+02 -0.37176409207E+02  0.30574949797E+02  0.73334097979E+02  0.00000000000E+00 0. -1.
</event>
<event>
 8    1  0.6597859E-009  0.1478213E+03  0.7561462E-02  0.1203176E+00
          2   -1    0    0  501    0  0.00000000000E+00  0.00000000000E+00  0.86039253863E+02  0.86039253863E+02  0.00000000000E+00 0. -1.
         -2   -1    0    0    0  501 -0.00000000000E+00 -0.00000000000E+00 -0.32058116384E+03  0.32058116384E+03  0.00000000000E+00 0.  1.
         25    2    1    2    0    0  0.84499050921E+02 -0.85133708039E+02 -0.17124345911E+03  0.24364059330E+03  0.12509427871E+03 0.  0.
         23    2    1    2    0    0 -0.84499050921E+02  0.85133708039E+02 -0.63298450870E+02  0.16297982440E+03  0.90376387557E+02 0.  0.
          5    1    3    3  502    0  0.34970239568E+02  0.29223154324E+02 -0.66871343923E+02  0.81031842150E+02  0.41800000000E+01 0.  1.
         -5    1    3    3    0  502  0.49528811352E+02 -0.11435686236E+03 -0.10437211518E+03  0.16260875115E+03  0.41800000000E+01 0.  1.
        -11    1    4    4    0    0 -0.45432582949E+02  0.69661308484E+02  0.44195003494E+01  0.83284749363E+02  0.00000000000E+00 0. -1.
         11    1    4    4    0    0 -0.39066467971E+02  0.15472399556E+02 -0.67717951220E+02  0.79695075037E+02  0.00000000000E+00 0.  1.
</event>
<event>
 8    1  0.6597859E-009  0.1047441E+03  0.7561462E-02  0.1270625E+00
          2   -1    0    0  501    0  0.00000000000E+00  0.00000000000E+00  0.31666785045E+03  0.31666785045E+03  0.00000000000E+00 0. -1.
         -2   -1    0    0    0  501 -0.00000000000E+00 -0.00000000000E+00 -0.51998074054E+02  0.51998074054E+02  0.00000000000E+00 0.  1.
         25    2    1    2    0    0  0.43508469084E+02 -0.48248964401E+02  0.16552664020E+03  0.21741373512E+03  0.12509482066E+03 0.  0.
         23    2    1    2    0    0 -0.43508469084E+02  0.48248964401E+02  0.99143136192E+02  0.15125218938E+03  0.93951657197E+02 0.  0.
          5    1    3    3  502    0 -0.42109422629E+02 -0.30995142735E+02  0.49443967504E+02  0.72083844721E+02  0.41800000000E+01 0.  1.
         -5    1    3    3    0  502  0.85617891713E+02 -0.17253821666E+02  0.11608267270E+03  0.14532989040E+03  0.41800000000E+01 0.  1.
        -11    1    4    4    0    0 -0.21683938659E+02  0.67543484782E+01 -0.15430206020E+02  0.27457342861E+02  0.00000000000E+00 0.  1.
         11    1    4    4    0    0 -0.21824530424E+02  0.41494615923E+02  0.11457334221E+03  0.12379484652E+03  0.00000000000E+00 0. -1.
</event>
<event>
 8    1  0.6597859E-009  0.8236052E+02  0.7561462E-02  0.1322483E+00
          2   -1    0    0  501    0  0.00000000000E+00  0.00000000000E+00  0.54693144229E+03  0.54693144229E+03  0.00000000000E+00 0. -1.
         -2   -1    0    0    0  501 -0.00000000000E+00 -0.00000000000E+00 -0.26973306967E+02  0.26973306967E+02  0.00000000000E+00 0.  1.
         25    2    1    2    0    0  0.61963917477E+01  0.47691015398E+02  0.33215640245E+03  0.35817212238E+03  0.12508623163E+03 0.  0.
         23    2    1    2    0    0 -0.61963917477E+01 -0.47691015398E+02  0.18780173287E+03  0.21573262688E+03  0.94648017456E+02 0.  0.
          5    1    3    3  502    0  0.37090914132E+02  0.14415133873E+02  0.29931582949E+03  0.30197842668E+03  0.41800000000E+01 0.  1.
         -5    1    3    3    0  502 -0.30894522385E+02  0.33275881525E+02  0.32840572961E+02  0.56193695706E+02  0.41800000000E+01 0.  1.
        -11    1    4    4    0    0 -0.43038547727E+01  0.15400229124E+02 -0.16190900107E+01  0.16072077509E+02  0.00000000000E+00 0.  1.
         11    1    4    4    0    0 -0.18925369751E+01 -0.63091244522E+02  0.18942082289E+03  0.19966054937E+03  0.00000000000E+00 0. -1.
</event>
<event>
 8    1  0.6597859E-009  0.1081136E+03  0.7561462E-02  0.1264104E+00
         -1   -1    0    0    0  501 -0.00000000000E+00  0.00000000000E+00  0.65703297915E+03  0.65703297915E+03  0.00000000000E+00 0.  1.
          1   -1    0    0  501    0  0.00000000000E+00 -0.00000000000E+00 -0.25167772654E+02  0.25167772654E+02  0.00000000000E+00 0. -1.
         25    2    1    2    0    0  0.15676531468E+02 -0.25450735033E+02  0.52137574911E+03  0.53700451996E+03  0.12509072368E+03 0.  0.
         23    2    1    2    0    0 -0.15676531468E+02  0.25450735033E+02  0.11048945738E+03  0.14519623184E+03  0.89333823348E+02 0.  0.
          5    1    3    3  502    0 -0.50158314659E+02  0.10424940983E+02  0.16573570878E+03  0.17352329379E+03  0.41800000000E+01 0.  1.
         -5    1    3    3    0  502  0.65834846127E+02 -0.35875676016E+02  0.35564004033E+03  0.36348122617E+03  0.41800000000E+01 0.  1.
        -11    1    4    4    0    0  0.47879017503E+01 -0.30129272872E+02  0.60239043733E+02  0.67523621621E+02  0.00000000000E+00 0.  1.
         11    1    4    4    0    0 -0.20464433218E+02  0.55580007905E+02  0.50250413652E+02  0.77672610217E+02  0.00000000000E+00 0. -1.
</event>
<event>
 8    1  0.6597859E-009  0.7872784E+02  0.7561462E-02  0.1332701E+00
         -2   -1    0    0    0  501 -0.00000000000E+00  0.00000000000E+00  0.71417334674E+02  0.71417334674E+02  0.00000000000E+00 0.  1.
          2   -1    0    0  501    0  0.00000000000E+00 -0.00000000000E+00 -0.19814852341E+03  0.19814852341E+03  0.00000000000E+00 0. -1.
         25    2    1    2    0    0 -0.22138281891E+02 -0.28623959813E+02 -0.38638531812E+02  0.13585436666E+03  0.12511609888E+03 0.  0.
         23    2    1    2    0    0  0.22138281891E+02  0.28623959813E+02 -0.88092656921E+02  0.13371149142E+03  0.93856337743E+02 0.  0.
          5    1    3    3  502    0 -0.46914349706E+02 -0.48379194154E+02  0.18828978861E+02  0.70096401336E+02  0.41800000000E+01 0.  1.
         -5    1    3    3    0  502  0.24776067815E+02  0.19755234341E+02 -0.57467510673E+02  0.65757965321E+02  0.41800000000E+01 0.  1.
        -11    1    4    4    0    0  0.30542465009E+02  0.26313576161E+01  0.97169267264E+01  0.32158744950E+02  0.00000000000E+00 0.  1.
         11    1    4    4    0    0 -0.84041831181E+01  0.25992602197E+02 -0.97809583647E+02  0.10155274647E+03  0.00000000000E+00 0. -1.
</event>
<event>
 8    1  0.6597859E-009  0.1266582E+03  0.7561462E-02  0.1232500E+00
         -2   -1    0    0    0  501 -0.00000000000E+00  0.00000000000E+00  0.14909598433E+03  0.14909598433E+03  0.00000000000E+00 0.  1.
          2   -1    0    0  501    0  0.00000000000E+00 -0.00000000000E+00 -0.12298748895E+03  0.12298748895E+03  0.00000000000E+00 0. -1.
         25    2    1    2    0    0 -0.55997736098E+02 -0.57808538436E+02  0.69489029789E+01  0.14890466853E+03  0.12508692774E+03 0.  0.
         23    2    1    2    0    0  0.55997736098E+02  0.57808538436E+02  0.19159592392E+02  0.12317880476E+03  0.91259818081E+02 0.  0.
          5    1    3    3  502    0 -0.88866837498E+02 -0.49991415883E+02  0.31649914797E+02  0.10684402639E+03  0.41800000000E+01 0.  1.
         -5    1    3    3    0  502  0.32869101400E+02 -0.78171225524E+01 -0.24701011818E+02  0.42060642133E+02  0.41800000000E+01 0.  1.
        -11    1    4    4    0    0  0.77579878028E+02  0.32903461476E+02  0.28444961084E+02  0.88940379260E+02  0.00000000000E+00 0.  1.
         11    1    4    4    0    0 -0.21582141929E+02  0.24905076960E+02 -0.92853686926E+01  0.34238425495E+02  0.00000000000E+00 0. -1.
</event>
<event>
 8    1  0.6597859E-009  0.1573487E+03  0.7561462E-02  0.1191723E+00
          2   -1    0    0  501    0  0.00000000000E+00  0.00000000000E+00  0.39271686624E+03  0.39271686624E+03  0.00000000000E+00 0.  1.
         -2   -1    0    0    0  501 -0.00000000000E+00 -0.00000000000E+00 -0.12659834450E+03  0.12659834450E+03  0.00000000000E+00 0. -1.
         25    2    1    2    0    0  0.12096317081E+03 -0.82907833534E+02 -0.12518500919E+02  0.19315221426E+03  0.12508104355E+03 0.  0.
         23    2    1    2    0    0 -0.12096317081E+03  0.82907833534E+02  0.27863702266E+03  0.32616299647E+03  0.85075920915E+02 0.  0.
          5    1    3    3  502    0  0.32039444925E+02 -0.18153141104E+02 -0.62179624706E+02  0.72386743895E+02  0.41800000000E+01 0.  1.
         -5    1    3    3    0  502  0.88923725888E+02 -0.64754692430E+02  0.49661123787E+02  0.12076547037E+03  0.41800000000E+01 0.  1.
        -11    1    4    4    0    0 -0.74676233885E+02  0.93905744898E+02  0.17561544754E+03  0.21268665743E+03  0.00000000000E+00 0. -1.
         11    1    4    4    0    0 -0.46286936927E+02 -0.10997911363E+02  0.10302157511E+03  0.11347633904E+03  0.00000000000E+00 0.  1.
</event>
<event>
 8    1  0.6597859E-009  0.1011253E+03  0.7561462E-02  0.1277947E+00
         -1   -1    0    0    0  501 -0.00000000000E+00  0.00000000000E+00  0.15534753527E+03  0.15534753527E+03  0.00000000000E+00 0.  1.
          1   -1    0    0  501    0  0.00000000000E+00 -0.00000000000E+00 -0.88359306576E+02  0.88359306576E+02  0.00000000000E+00 0. -1.
         25    2    1    2    0    0  0.18165581855E+02  0.39531615340E+02  0.23788797578E+02  0.13455803894E+03  0.12508885633E+03 0.  0.
         23    2    1    2    0    0 -0.18165581855E+02 -0.39531615340E+02  0.43199431117E+02  0.10914880290E+03  0.90302454844E+02 0.  0.
          5    1    3    3  502    0  0.49099307040E+02  0.64322389132E+02  0.41385237781E+02  0.90985284534E+02  0.41800000000E+01 0.  1.
         -5    1    3    3    0  502 -0.30933725185E+02 -0.24790773792E+02 -0.17596440203E+02  0.43572754410E+02  0.41800000000E+01 0.  1.
        -11    1    4    4    0    0 -0.44582976368E+02 -0.27002663763E+02  0.56636853797E+02  0.76970896060E+02  0.00000000000E+00 0.  1.
         11    1    4    4    0    0  0.26417394514E+02 -0.12528951577E+02 -0.13437422681E+02  0.32177906843E+02  0.00000000000E+00 0. -1.
</event>
<event>
 8    1  0.6597859E-009  0.1172239E+03  0.7561462E-02  0.1247748E+00
          3   -1    0    0  501    0  0.00000000000E+00  0.00000000000E+00  0.14234130564E+03  0.14234130564E+03  0.00000000000E+00 0. -1.
         -3   -1    0    0    0  501 -0.00000000000E+00 -0.00000000000E+00 -0.26877254241E+03  0.26877254241E+03  0.00000000000E+00 0.  1.
         25    2    1    2    0    0  0.24387790738E+02  0.10987515047E+03  0.56710063236E+02  0.17756835173E+03  0.12508866950E+03 0.  0.
         23    2    1    2    0    0 -0.24387790738E+02 -0.10987515047E+03 -0.18314130001E+03  0.23354549632E+03  0.91298685938E+02 0.  0.
          5    1    3    3  502    0  0.74482693991E+01  0.99289702818E+02  0.92757805529E+02  0.13614479310E+03  0.41800000000E+01 0.  1.
         -5    1    3    3    0  502  0.16939521339E+02  0.10585447650E+02 -0.36047742294E+02  0.41423558630E+02  0.41800000000E+01 0.  1.
        -11    1    4    4    0    0 -0.11757824721E+02 -0.90467356762E+02 -0.18882022060E+03  0.20970375483E+03  0.00000000000E+00 0.  1.
         11    1    4    4    0    0 -0.12629966017E+02 -0.19407793705E+02  0.56789205925E+01  0.23841741488E+02  0.00000000000E+00 0. -1.
</event>
<event>
 8    1  0.6597859E-009  0.1231564E+03  0.7561462E-02  0.1237979E+00
          3   -1    0    0  501    0  0.00000000000E+00  0.00000000000E+00  0.20540053327E+02  0.20540053327E+02  0.00000000000E+00 0. -1.
         -3   -1    0    0    0  501 -0.00000000000E+00 -0.00000000000E+00 -0.81406049525E+03  0.81406049525E+03  0.00000000000E+00 0.  1.
         25    2    1    2    0    0 -0.71145355705E+02  0.25618562162E+02 -0.44932640044E+03  0.47250371601E+03  0.12509026799E+03 0.  0.
         23    2    1    2    0    0  0.71145355705E+02 -0.25618562162E+02 -0.34419404148E+03  0.36209683257E+03  0.83226231424E+02 0.  0.
          5    1    3    3  502    0  0.32675702561E+02  0.19434868232E+02 -0.17410435991E+03  0.17825604108E+03  0.41800000000E+01 0.  1.
         -5    1    3    3    0  502 -0.10382105827E+03  0.61836939295E+01 -0.27522204053E+03  0.29424767493E+03  0.41800000000E+01 0.  1.
        -11    1    4    4    0    0  0.47401072694E+02 -0.50721197795E+02 -0.28698706920E+03  0.29526442300E+03  0.00000000000E+00 0.  1.
         11    1    4    4    0    0  0.23744283011E+02  0.25102635633E+02 -0.57206972279E+02  0.66832409569E+02  0.00000000000E+00 0. -1.
</event>
<event>
 8    1  0.6597859E-009  0.1951255E+03  0.7561462E-02  0.1153918E+00
         -1   -1    0    0    0  501 -0.00000000000E+00  0.00000000000E+00  0.10033142592E+03  0.10033142592E+03  0.00000000000E+00 0.  1.
          1   -1    0    0  501    0  0.00000000000E+00 -0.00000000000E+00 -0.48290505904E+03  0.48290505904E+03  0.00000000000E+00 0. -1.
         25    2    1    2    0    0  0.12517009745E+03  0.14408221964E+03 -0.20174326653E+03  0.30459143520E+03  0.12509339510E+03 0.  0.
         23    2    1    2    0    0 -0.12517009745E+03 -0.14408221964E+03 -0.18083036659E+03  0.27864504976E+03  0.92283275636E+02 0.  0.
          5    1    3    3  502    0  0.10860124612E+03  0.85624480359E+02 -0.60948653616E+02  0.15118860100E+03  0.41800000000E+01 0.  1.
         -5    1    3    3    0  502  0.16568851336E+02  0.58457739282E+02 -0.14079461291E+03  0.15340283420E+03  0.41800000000E+01 0.  1.
        -11    1    4    4    0    0 -0.35199723652E+02 -0.35814183611E+02 -0.11029965395E+03  0.12119278013E+03  0.00000000000E+00 0.  1.
         11    1    4    4    0    0 -0.89970373800E+02 -0.10826803603E+03 -0.70530712637E+02  0.15745226963E+03  0.00000000000E+00 0. -1.
</event>
<event>
 8    1  0.6597859E-009  0.3316405E+03  0.7561462E-02  0.1070413E+00
         -1   -1    0    0    0  501 -0.00000000000E+00  0.00000000000E+00  0.19875436820E+03  0.19875436820E+03  0.00000000000E+00 0.  1.
          1   -1    0    0  501    0  0.00000000000E+00 -0.00000000000E+00 -0.71799900352E+03  0.71799900352E+03  0.00000000000E+00 0. -1.
         25    2    1    2    0    0  0.27647175306E+03  0.15964588205E+03 -0.47330419361E+03  0.58445592349E+03  0.12509368057E+03 0.  0.
         23    2    1    2    0    0 -0.27647175306E+03 -0.15964588205E+03 -0.45940441703E+02  0.33229744822E+03  0.79922662714E+02 0.  0.
          5    1    3    3  502    0  0.90660698374E+02 -0.97764751065E+01 -0.11940927636E+03  0.15030299191E+03  0.41800000000E+01 0.  1.
         -5    1    3    3    0  502  0.18581105469E+03  0.16942235716E+03 -0.35389491725E+03  0.43415293159E+03  0.41800000000E+01 0.  1.
        -11    1    4    4    0    0 -0.15255504036E+03 -0.71755728990E+02  0.13577017598E+02  0.16913385347E+03  0.00000000000E+00 0.  1.
         11    1    4    4    0    0 -0.12391671270E+03 -0.87890153060E+02 -0.59517459300E+02  0.16316359475E+03  0.00000000000E+00 0. -1.
</event>
<event>
 8    1  0.6597859E-009  0.8776621E+02  0.7561462E-02  0.1308353E+00
         -4   -1    0    0    0  501 -0.00000000000E+00  0.00000000000E+00  0.41528588227E+03  0.41528588227E+03  0.00000000000E+00 0.  1.
          4   -1    0    0  501    0  0.00000000000E+00 -0.00000000000E+00 -0.28790100345E+02  0.28790100345E+02  0.00000000000E+00 0. -1.
         25    2    1    2    0    0  0.42963760707E+01 -0.16563691535E+02  0.24921958767E+03  0.27937944391E+03  0.12509858542E+03 0.  0.
         23    2    1    2    0    0 -0.42963760707E+01  0.16563691535E+02  0.13727619425E+03  0.16469653870E+03  0.89372152420E+02 0.  0.
          5    1    3    3  502    0  0.52792868809E+02 -0.12432194548E+02  0.20941449617E+03  0.21636439186E+03  0.41800000000E+01 0. -1.
         -5    1    3    3    0  502 -0.48496492738E+02 -0.41314969865E+01  0.39805091497E+02  0.63015052045E+02  0.41800000000E+01 0. -1.
        -11    1    4    4    0    0 -0.26248652238E+02  0.34907805515E+02  0.28334811835E+02  0.52061580767E+02  0.00000000000E+00 0. -1.
         11    1    4    4    0    0  0.21952276168E+02 -0.18344113980E+02  0.10894138242E+03  0.11263495794E+03  0.00000000000E+00 0.  1.
</event>
<event>
 8    1  0.6597859E-009  0.1233509E+03  0.7561462E-02  0.1237669E+00
          2   -1    0    0  501    0  0.00000000000E+00  0.00000000000E+00  0.22489217477E+03  0.22489217477E+03  0.00000000000E+00 0.  1.
         -2   -1    0    0    0  501 -0.00000000000E+00 -0.00000000000E+00 -0.99131272238E+02  0.99131272238E+02  0.00000000000E+00 0. -1.
         25    2    1    2    0    0 -0.24058992394E+02 -0.94066451519E+02  0.31047083636E+02  0.16137222089E+03  0.12509892028E+03 0.  0.
         23    2    1    2    0    0  0.24058992394E+02  0.94066451519E+02  0.94713818899E+02  0.16265122613E+03  0.89762918031E+02 0.  0.
          5    1    3    3  502    0 -0.44331614857E+02 -0.73284794333E+02 -0.32244782173E+02  0.91614144834E+02  0.41800000000E+01 0.  1.
         -5    1    3    3    0  502  0.20272622463E+02 -0.20781657185E+02  0.63291865808E+02  0.69758076051E+02  0.41800000000E+01 0.  1.
        -11    1    4    4    0    0  0.50789761821E+02  0.91645368564E+02  0.81450968316E+02  0.13271297497E+03  0.00000000000E+00 0.  1.
         11    1    4    4    0    0 -0.26730769427E+02  0.24210829546E+01  0.13262850583E+02  0.29938251159E+02  0.00000000000E+00 0. -1.
</event>
<event>
 8    1  0.6597859E-009  0.2607867E+03  0.7561462E-02  0.1106671E+00
          2   -1    0    0  501    0  0.00000000000E+00  0.00000000000E+00  0.45764335205E+03  0.45764335205E+03  0.00000000000E+00 0.  1.
         -2   -1    0    0    0  501 -0.00000000000E+00 -0.00000000000E+00 -0.16658906134E+03  0.16658906134E+03  0.00000000000E+00 0. -1.
         25    2    1    2    0    0 -0.22548983857E+03 -0.10232925608E+03  0.21205250543E+03  0.34917705227E+03  0.12506560209E+03 0.  0.
         23    2    1    2    0    0  0.22548983857E+03  0.10232925608E+03  0.79001785270E+02  0.27505536112E+03  0.89984585664E+02 0.  0.
          5    1    3    3  502    0 -0.20221701203E+02 -0.52123067969E+02  0.87282189719E+02  0.10373709296E+03  0.41800000000E+01 0.  1.
         -5    1    3    3    0  502 -0.20526813737E+03 -0.50206188107E+02  0.12477031571E+03  0.24543995931E+03  0.41800000000E+01 0.  1.
        -11    1    4    4    0    0  0.10392463608E+03  0.78572448124E+02  0.76668014644E+02  0.15116859482E+03  0.00000000000E+00 0. -1.
         11    1    4    4    0    0  0.12156520249E+03  0.23756807952E+02  0.23337706268E+01  0.12388676630E+03  0.00000000000E+00 0.  1.
</event>
<event>
 8    1  0.6597859E-009  0.1149687E+03  0.7561462E-02  0.1251636E+00
         -1   -1    0    0    0  501 -0.00000000000E+00  0.00000000000E+00  0.22615473597E+02  0.22615473597E+02  0.00000000000E+00 0.  1.
          1   -1    0    0  501    0  0.00000000000E+00 -0.00000000000E+00 -0.72407262885E+03  0.72407262885E+03  0.00000000000E+00 0. -1.
         25    2    1    2    0    0  0.81404506611E+01  0.42685209193E+02 -0.23647254034E+03  0.27102458311E+03  0.12508704286E+03 0.  0.
         23    2    1    2    0    0 -0.81404506611E+01 -0.42685209193E+02 -0.46498461492E+03  0.47566351934E+03  0.90314990478E+02 0.  0.
          5    1    3    3  502    0  0.24745291036E+02 -0.39835848938E+02 -0.10170754513E+03  0.11207640887E+03  0.41800000000E+01 0. -1.
         -5    1    3    3    0  502 -0.16604840375E+02  0.82521058131E+02 -0.13476499521E+03  0.15894817424E+03  0.41800000000E+01 0. -1.
        -11    1    4    4    0    0  0.91731385184E+01  0.26090048989E+02 -0.95031334767E+02  0.98973692030E+02  0.00000000000E+00 0.  1.
         11    1    4    4    0    0 -0.17313589180E+02 -0.68775258182E+02 -0.36995328015E+03  0.37668982731E+03  0.00000000000E+00 0. -1.
</event>
<event>
 8    1  0.6597859E-009  0.1012024E+03  0.7561462E-02  0.1277788E+00
          3   -1    0    0  501    0  0.00000000000E+00  0.00000000000E+00  0.27033339723E+03  0.27033339723E+03  0.00000000000E+00 0. -1.
         -3   -1    0    0    0  501 -0.00000000000E+00 -0.00000000000E+00 -0.46883048287E+02  0.46883048287E+02  0.00000000000E+00 0.  1.
         25    2    1    2    0    0 -0.24718029911E+02 -0.75181510653E+01  0.15078815927E+03  0.19761899366E+03  0.12509474043E+03 0.  0.
         23    2    1    2    0    0  0.24718029911E+02  0.75181510653E+01  0.72662189672E+02  0.11959745185E+03  0.91412543356E+02 0.  0.
          5    1    3    3  502    0 -0.63290427083E+02 -0.21990611438E+02  0.37270395425E+02  0.76784242699E+02  0.41800000000E+01 0. -1.
         -5    1    3    3    0  502  0.38572397172E+02  0.14472460372E+02  0.11351776384E+03  0.12083475096E+03  0.41800000000E+01 0. -1.
        -11    1    4    4    0    0 -0.31869021148E+02 -0.11927536090E+02  0.35430600666E+02  0.49124617960E+02  0.00000000000E+00 0.  1.
         11    1    4    4    0    0  0.56587051059E+02  0.19445687156E+02  0.37231589006E+02  0.70472833890E+02  0.00000000000E+00 0. -1.
</event>
<event>
 8    1  0.6597859E-009  0.1359249E+03  0.7561462E-02  0.1218920E+00
          2   -1    0    0  501    0  0.00000000000E+00  0.00000000000E+00  0.35567828781E+03  0.35567828781E+03  0.00000000000E+00 0. -1.
         -2   -1    0    0    0  501 -0.00000000000E+00 -0.00000000000E+00 -0.70579224097E+02  0.70579224097E+02  0.00000000000E+00 0.  1.
         25    2    1    2    0    0  0.58923787646E+02 -0.69210287869E+02  0.25355748524E+03  0.29698678425E+03  0.12509066712E+03 0.  0.
         23    2    1    2    0    0 -0.58923787646E+02  0.69210287869E+02  0.31541578474E+02  0.12927072766E+03  0.86336395330E+02 0.  0.
          5    1    3    3  502    0  0.94118634369E+02 -0.46948745186E+02  0.21794275993E+03  0.24203103316E+03  0.41800000000E+01 0. -1.
         -5    1    3    3    0  502 -0.35194846723E+02 -0.22261542682E+02  0.35614725312E+02  0.54955751087E+02  0.41800000000E+01 0. -1.
        -11    1    4    4    0    0 -0.61699628725E+02  0.65873058664E+01  0.22157567768E+02  0.65887742356E+02  0.00000000000E+00 0.  1.
         11    1    4    4    0    0  0.27758410787E+01  0.62622982002E+02  0.93840107061E+01  0.63382985300E+02  0.00000000000E+00 0. -1.
</event>
<event>
 8    1  0.6597859E-009  0.1146725E+03  0.7561462E-02  0.1252154E+00
          1   -1    0    0  501    0  0.00000000000E+00  0.00000000000E+00  0.43462627589E+02  0.43462627589E+02  0.00000000000E+00 0. -1.
         -1   -1    0    0    0  501 -0.00000000000E+00 -0.00000000000E+00 -0.38423608750E+03  0.38423608750E+03  0.00000000000E+00 0.  1.
         25    2    1    2    0    0 -0.23103569352E+02  0.70501261070E+02 -0.19921439358E+03  0.24665558819E+03  0.12509357237E+03 0.  0.
         23    2    1    2    0    0  0.23103569352E+02 -0.70501261070E+02 -0.14155906633E+03  0.18104312690E+03  0.85049643190E+02 0.  0.
          5    1    3    3  502    0  0.28337913206E+02 -0.74667143765E+01 -0.35703448668E+01  0.29816252462E+02  0.41800000000E+01 0.  1.
         -5    1    3    3    0  502 -0.51441482558E+02  0.77967975447E+02 -0.19564404871E+03  0.21683933573E+03  0.41800000000E+01 0.  1.
        -11    1    4    4    0    0  0.50946121350E+02 -0.38731665973E+02 -0.53647391799E+02  0.83508633545E+02  0.00000000000E+00 0. -1.
         11    1    4    4    0    0 -0.27842551998E+02 -0.31769595097E+02 -0.87911674532E+02  0.97534493352E+02  0.00000000000E+00 0.  1.
</event>
<event>
 8    1  0.6597859E-009  0.1224291E+03  0.7561462E-02  0.1239143E+00
         -1   -1    0    0    0  501 -0.00000000000E+00  0.00000000000E+00  0.16430478246E+03  0.16430478246E+03  0.00000000000E+00 0.  1.
          1   -1    0    0  501    0  0.00000000000E+00 -0.00000000000E+00 -0.14495654601E+03  0.14495654601E+03  0.00000000000E+00 0. -1.
         25    2    1    2    0    0 -0.50165370489E+02  0.80962923698E+02  0.66563644105E+02  0.17073349911E+03  0.12509056557E+03 0.  0.
         23    2    1    2    0    0  0.50165370489E+02 -0.80962923698E+02 -0.47215407662E+02  0.13852782936E+03  0.88820635976E+02 0.  0.
          5    1    3    3  502    0 -0.11005625416E+02  0.75108945937E+02  0.95096043257E+02  0.12175059504E+03  0.41800000000E+01 0. -1.
         -5    1    3    3    0  502 -0.39159745073E+02  0.58539777610E+01 -0.28532399152E+02  0.48982904070E+02  0.41800000000E+01 0. -1.
        -11    1    4    4    0    0  0.38054830907E+02 -0.99695153077E+02 -0.31574580461E+02  0.11128453546E+03  0.00000000000E+00 0.  1.
         11    1    4    4    0    0  0.12110539583E+02  0.18732229379E+02 -0.15640827202E+02  0.27243293891E+02  0.00000000000E+00 0. -1.
</event>
<event>
 8    1  0.6597859E-009  0.1267166E+03  0.7561462E-02  0.1232411E+00
          1   -1    0    0  501    0  0.00000000000E+00  0.00000000000E+00  0.15539791247E+03  0.15539791247E+03  0.00000000000E+00 0. -1.
         -1   -1    0    0    0  501 -0.00000000000E+00 -0.00000000000E+00 -0.14923401520E+03  0.14923401520E+03  0.00000000000E+00 0.  1.
         25    2    1    2    0    0  0.83040539517E+02 -0.40296333231E+01 -0.63852917975E+02  0.16320663210E+03  0.12508893028E+03 0.  0.
         23    2    1    2    0    0 -0.83040539517E+02  0.40296333231E+01  0.70016815244E+02  0.14142529558E+03  0.90480885629E+02 0.  0.
          5    1    3    3  502    0  0.62108867397E+02 -0.50028627979E+02 -0.76876816156E+02  0.11085076585E+03  0.41800000000E+01 0. -1.
         -5    1    3    3    0  502  0.20931672120E+02  0.45998994656E+02  0.13023898181E+02  0.52355866251E+02  0.41800000000E+01 0. -1.
        -11    1    4    4    0    0 -0.45641086322E+02 -0.43046104360E+02  0.34638219214E+02  0.71665068838E+02  0.00000000000E+00 0.  1.
         11    1    4    4    0    0 -0.37399453195E+02  0.47075737683E+02  0.35378596029E+02  0.69760226739E+02  0.00000000000E+00 0. -1.
</event>
<event>
 8    1  0.6597859E-009  0.7823412E+02  0.7561462E-02  0.1334139E+00
         -2   -1    0    0    0  501 -0.00000000000E+00  0.00000000000E+00  0.13869383172E+03  0.13869383172E+03  0.00000000000E+00 0.  1.
          2   -1    0    0  501    0  0.00000000000E+00 -0.00000000000E+00 -0.72377035075E+02  0.72377035075E+02  0.00000000000E+00 0. -1.
         25    2    1    2    0    0  0.12913327763E+02 -0.29061029156E+01  0.49621427383E+02  0.13522940263E+03  0.12509798484E+03 0.  0.
         23    2    1    2    0    0 -0.12913327763E+02  0.29061029156E+01  0.16695369265E+02  0.75841464170E+02  0.72787312524E+02 0.  0.
          5    1    3    3  502    0 -0.38627199294E+02 -0.86400314223E+01 -0.22943290870E+02  0.45941023761E+02  0.41800000000E+01 0. -1.
         -5    1    3    3    0  502  0.51540527057E+02  0.57339285066E+01  0.72564718253E+02  0.89288378867E+02  0.41800000000E+01 0. -1.
        -11    1    4    4    0    0  0.17635335373E+01  0.32002598941E+02  0.26739004452E+02  0.41740277294E+02  0.00000000000E+00 0.  1.
         11    1    4    4    0    0 -0.14676861300E+02 -0.29096496025E+02 -0.10043635187E+02  0.34101186876E+02  0.00000000000E+00 0. -1.
</event>
<event>
 8    1  0.6597859E-009  0.1221769E+03  0.7561462E-02  0.1239549E+00
          1   -1    0    0  501    0  0.00000000000E+00  0.00000000000E+00  0.21347793987E+03  0.21347793987E+03  0.00000000000E+00 0. -1.
         -1   -1    0    0    0  501 -0.00000000000E+00 -0.00000000000E+00 -0.84085399405E+02  0.84085399405E+02  0.00000000000E+00 0.  1.
         25    2    1    2    0    0 -0.87101306266E+02 -0.16852124816E+02  0.61428101429E+02  0.16520289649E+03  0.12509178111E+03 0.  0.
         23    2    1    2    0    0  0.87101306266E+02  0.16852124816E+02  0.67964439034E+02  0.13236044278E+03  0.70918898581E+02 0.  0.
          5    1    3    3  502    0  0.25890511113E+02 -0.16449577638E+02  0.39231631114E+02  0.49974998250E+02  0.41800000000E+01 0. -1.
         -5    1    3    3    0  502 -0.11299181738E+03 -0.40254717791E+00  0.22196470314E+02  0.11522789824E+03  0.41800000000E+01 0. -1.
        -11    1    4    4    0    0  0.25681988517E+01  0.15573065034E+02 -0.88823494267E+01  0.18111105191E+02  0.00000000000E+00 0.  1.
         11    1    4    4    0    0  0.84533107414E+02  0.12790597815E+01  0.76846788461E+02  0.11424933759E+03  0.00000000000E+00 0. -1.
</event>
<event>
 8    1  0.6597859E-009  0.1506245E+03  0.7561462E-02  0.1199708E+00
          1   -1    0    0  501    0  0.00000000000E+00  0.00000000000E+00  0.13335272484E+03  0.13335272484E+03  0.00000000000E+00 0. -1.
         -1   -1    0    0    0  501 -0.00000000000E+00 -0.00000000000E+00 -0.34305200846E+03  0.34305200846E+03  0.00000000000E+00 0.  1.
         25    2    1    2    0    0 -0.13125153120E+03 -0.16899182435E+02 -0.25133388750E+03  0.31036902117E+03  0.12509060511E+03 0.  0.
         23    2    1    2    0    0  0.13125153120E+03  0.16899182435E+02  0.41634603878E+02  0.16603571213E+03  0.91224287621E+02 0.  0.
          5    1    3    3  502    0 -0.64720920570E+00 -0.23553767271E+02 -0.12915229505E+03  0.13135062447E+03  0.41800000000E+01 0.  1.
         -5    1    3    3    0  502 -0.13060432199E+03  0.66545848357E+01 -0.12218159245E+03  0.17901839670E+03  0.41800000000E+01 0.  1.
        -11    1    4    4    0    0  0.31005048430E+02  0.32622365189E+02  0.46151598061E+02  0.64463181292E+02  0.00000000000E+00 0. -1.
         11    1    4    4    0    0  0.10024648277E+03 -0.15723182754E+02 -0.45169941835E+01  0.10157253084E+03  0.00000000000E+00 0.  1.
</event>
<event>
 8    1  0.6597859E-009  0.7975485E+02  0.7561462E-02  0.1329749E+00
         -1   -1    0    0    0  501 -0.00000000000E+00  0.00000000000E+00  0.10183850666E+03  0.10183850666E+03  0.00000000000E+00 0.  1.
          1   -1    0    0  501    0  0.00000000000E+00 -0.00000000000E+00 -0.15152209436E+03  0.15152209436E+03  0.00000000000E+00 0. -1.
         25    2    1    2    0    0 -0.15042912537E+02  0.33701365264E+02 -0.77526020855E+02  0.15172197202E+03  0.12508877506E+03 0.  0.
         23    2    1    2    0    0  0.15042912537E+02 -0.33701365264E+02  0.27842433154E+02  0.10163862899E+03  0.90515957605E+02 0.  0.
          5    1    3    3  502    0 -0.30566256130E+02  0.40821406558E+02  0.18265406624E+02  0.54330292898E+02  0.41800000000E+01 0. -1.
         -5    1    3    3    0  502  0.15523343593E+02 -0.71200412942E+01 -0.95791427479E+02  0.97391679125E+02  0.41800000000E+01 0. -1.
        -11    1    4    4    0    0 -0.32388330843E+02 -0.28320490628E+02 -0.55535895891E+01  0.43380831268E+02  0.00000000000E+00 0. -1.
         11    1    4    4    0    0  0.47431243381E+02 -0.53808746365E+01  0.33396022743E+02  0.58257797723E+02  0.00000000000E+00 0.  1.
</event>
<event>
 8    1  0.6597859E-009  0.1065518E+03  0.7561462E-02  0.1267092E+00
          2   -1    0    0  501    0  0.00000000000E+00  0.00000000000E+00  0.70887574599E+02  0.70887574599E+02  0.00000000000E+00 0.  1.
         -2   -1    0    0    0  501 -0.00000000000E+00 -0.00000000000E+00 -0.20227458585E+03  0.20227458585E+03  0.00000000000E+00 0. -1.
         25    2    1    2    0    0 -0.48286762209E+01 -0.25297093356E+02 -0.24919063965E+02  0.13012383985E+03  0.12509194579E+03 0.  0.
         23    2    1    2    0    0  0.48286762209E+01  0.25297093356E+02 -0.10646794729E+03  0.14303832060E+03  0.91985207042E+02 0.  0.
          5    1    3    3  502    0 -0.59534444961E+02  0.58806966334E+01 -0.29538287983E+02  0.66849948293E+02  0.41800000000E+01 0.  1.
         -5    1    3    3    0  502  0.54705768741E+02 -0.31177789989E+02  0.46192240179E+01  0.63273891556E+02  0.41800000000E+01 0.  1.
        -11    1    4    4    0    0  0.33751999914E+02 -0.17774921665E+02 -0.22362748325E+02  0.44218071543E+02  0.00000000000E+00 0.  1.
         11    1    4    4    0    0 -0.28923323693E+02  0.43072015020E+02 -0.84105198962E+02  0.98820249057E+02  0.00000000000E+00 0. -1.
</event>
<event>
 8    1  0.6597859E-009  0.8428422E+02  0.7561462E-02  0.1317315E+00
          2   -1    0    0  501    0  0.00000000000E+00  0.00000000000E+00  0.52112127190E+02  0.52112127190E+02  0.00000000000E+00 0. -1.
         -2   -1    0    0    0  501 -0.00000000000E+00 -0.00000000000E+00 -0.32171719147E+03  0.32171719147E+03  0.00000000000E+00 0.  1.
         25    2    1    2    0    0 -0.67911591524E+02 -0.44264412214E+01 -0.12346189992E+03  0.18847495684E+03  0.12509352892E+03 0.  0.
         23    2    1    2    0    0  0.67911591524E+02  0.44264412214E+01 -0.14614316436E+03  0.18535436183E+03  0.91470417701E+02 0.  0.
          5    1    3    3  502    0 -0.33633347456E+02  0.98707024169E+01  0.19761572870E+02  0.40455222031E+02  0.41800000000E+01 0.  1.
         -5    1    3    3    0  502 -0.34278244068E+02 -0.14297143638E+02 -0.14322347279E+03  0.14801973480E+03  0.41800000000E+01 0.  1.
        -11    1    4    4    0    0  0.12182060455E+02 -0.28618470617E+02 -0.10280229122E+03  0.10740451824E+03  0.00000000000E+00 0.  1.
         11    1    4    4    0    0  0.55729531069E+02  0.33044911838E+02 -0.43340873140E+02  0.77949843592E+02  0.00000000000E+00 0. -1.
</event>
<event>
 8    1  0.6597859E-009  0.9272620E+02  0.7561462E-02  0.1296381E+00
          1   -1    0    0  501    0  0.00000000000E+00  0.00000000000E+00  0.92269117242E+02  0.92269117242E+02  0.00000000000E+00 0. -1.
         -1   -1    0    0    0  501 -0.00000000000E+00 -0.00000000000E+00 -0.13746962351E+03  0.13746962351E+03  0.00000000000E+00 0.  1.
         25    2    1    2    0    0 -0.34554635417E+01 -0.17824985806E+02 -0.40798221911E+02  0.13282042480E+03  0.12508836871E+03 0.  0.
         23    2    1    2    0    0  0.34554635417E+01  0.17824985806E+02 -0.44022843619E+01  0.96918315957E+02  0.95100523200E+02 0.  0.
          5    1    3    3  502    0  0.19357278281E+02 -0.53669169903E+02  0.18167417983E+02  0.60021758527E+02  0.41800000000E+01 0. -1.
         -5    1    3    3    0  502 -0.22812741822E+02  0.35844184097E+02 -0.58965639893E+02  0.72798666272E+02  0.41800000000E+01 0. -1.
        -11    1    4    4    0    0  0.16268483570E+02 -0.31035259639E+02  0.20504604919E+02  0.40599134491E+02  0.00000000000E+00 0. -1.
         11    1    4    4    0    0 -0.12813020028E+02  0.48860245446E+02 -0.24906889281E+02  0.56319181465E+02  0.00000000000E+00 0.  1.
</event>
<event>
 8    1  0.6597859E-009  0.1689699E+03  0.7561462E-02  0.1178926E+00
          2   -1    0    0  501    0  0.00000000000E+00  0.00000000000E+00  0.13540621389E+04  0.13540621389E+04  0.00000000000E+00 0.  1.
         -2   -1    0    0    0  501 -0.00000000000E+00 -0.00000000000E+00 -0.23824624777E+02  0.23824624777E+02  0.00000000000E+00 0. -1.
         25    2    1    2    0    0  0.13723121857E+03 -0.24662957735E+02  0.79791913033E+03  0.81960854550E+03  0.12507022216E+03 0.  0.
         23    2    1    2    0    0 -0.13723121857E+03  0.24662957735E+02  0.53231838378E+03  0.55827821817E+03  0.94186189741E+02 0.  0.
          5    1    3    3  502    0 -0.10658940223E+02  0.19535370923E+02  0.22869341384E+03  0.22981164822E+03  0.41800000000E+01 0. -1.
         -5    1    3    3    0  502  0.14789015879E+03 -0.44198328658E+02  0.56922571649E+03  0.58979689728E+03  0.41800000000E+01 0. -1.
        -11    1    4    4    0    0 -0.14661411280E+03  0.14938092707E+02  0.51814258357E+03  0.53869340222E+03  0.00000000000E+00 0.  1.
         11    1    4    4    0    0  0.93828942381E+01  0.97248650276E+01  0.14175800205E+02  0.19584815944E+02  0.00000000000E+00 0. -1.
</event>
<event>
 8    1  0.6597859E-009  0.1371024E+03  0.7561462E-02  0.1217282E+00
         -3   -1    0    0    0  501 -0.00000000000E+00  0.00000000000E+00  0.19098321014E+03  0.19098321014E+03  0.00000000000E+00 0.  1.
          3   -1    0    0  501    0  0.00000000000E+00 -0.00000000000E+00 -0.11814884788E+03  0.11814884788E+03  0.00000000000E+00 0. -1.
         25    2    1    2    0    0  0.77125893707E+02 -0.68429840110E+02  0.52751963421E+02  0.17047596630E+03  0.12509292123E+03 0.  0.
         23    2    1    2    0    0 -0.77125893707E+02  0.68429840110E+02  0.20082398847E+02  0.13865609173E+03  0.90505041471E+02 0.  0.
          5    1    3    3  502    0 -0.23583329318E+02 -0.28385652916E+02  0.49609143391E+02  0.61971430685E+02  0.41800000000E+01 0. -1.
         -5    1    3    3    0  502  0.10070922302E+03 -0.40044187194E+02  0.31428200301E+01  0.10850453561E+03  0.41800000000E+01 0. -1.
        -11    1    4    4    0    0 -0.63005254457E+02  0.45340007138E+01 -0.14254991569E+02  0.64756652449E+02  0.00000000000E+00 0. -1.
         11    1    4    4    0    0 -0.14120639250E+02  0.63895839396E+02  0.34337390416E+02  0.73899439278E+02  0.00000000000E+00 0.  1.
</event>
<event>
 8    1  0.6597859E-009  0.1260900E+03  0.7561462E-02  0.1233376E+00
         -2   -1    0    0    0  501 -0.00000000000E+00  0.00000000000E+00  0.15330272017E+02  0.15330272017E+02  0.00000000000E+00 0.  1.
          2   -1    0    0  501    0  0.00000000000E+00 -0.00000000000E+00 -0.11182589112E+04  0.11182589112E+04  0.00000000000E+00 0. -1.
         25    2    1    2    0    0  0.57813253810E+02  0.43366462517E+02 -0.59310899154E+03  0.61045000191E+03  0.12509159282E+03 0.  0.
         23    2    1    2    0    0 -0.57813253810E+02 -0.43366462517E+02 -0.50981964762E+03  0.52313918129E+03  0.92387810411E+02 0.  0.
          5    1    3    3  502    0  0.22502935763E+02 -0.41078523644E+02 -0.12713055487E+03  0.13554880156E+03  0.41800000000E+01 0. -1.
         -5    1    3    3    0  502  0.35310318047E+02  0.84444986161E+02 -0.46597843668E+03  0.47490120035E+03  0.41800000000E+01 0. -1.
        -11    1    4    4    0    0 -0.74695749733E+02 -0.89940877162E+01 -0.39502089576E+03  0.40212169393E+03  0.00000000000E+00 0. -1.
         11    1    4    4    0    0  0.16882495923E+02 -0.34372374801E+02 -0.11479875187E+03  0.12101748736E+03  0.00000000000E+00 0.  1.
</event>
<event>
 8    1  0.6597859E-009  0.1863532E+03  0.7561462E-02  0.1161792E+00
         -2   -1    0    0    0  501 -0.00000000000E+00  0.00000000000E+00  0.23592733624E+02  0.23592733624E+02  0.00000000000E+00 0.  1.
          2   -1    0    0  501    0  0.00000000000E+00 -0.00000000000E+00 -0.16479915625E+04  0.16479915625E+04  0.00000000000E+00 0. -1.
         25    2    1    2    0    0  0.68975877175E+00 -0.16257946709E+03 -0.74981083507E+03  0.77736485987E+03  0.12508908064E+03 0.  0.
         23    2    1    2    0    0 -0.68975877175E+00  0.16257946709E+03 -0.87458799378E+03  0.89421943622E+03  0.91058675404E+02 0.  0.
          5    1    3    3  502    0 -0.91222511184E+01 -0.17275339871E+03 -0.54026440296E+03  0.56730066961E+03  0.41800000000E+01 0.  1.
         -5    1    3    3    0  502  0.98120098901E+01  0.10173931623E+02 -0.20954643211E+03  0.21006419026E+03  0.41800000000E+01 0.  1.
        -11    1    4    4    0    0 -0.43300220222E+02  0.61362367232E+02 -0.30227074819E+03  0.31146083926E+03  0.00000000000E+00 0.  1.
         11    1    4    4    0    0  0.42610461450E+02  0.10121709986E+03 -0.57231724559E+03  0.58275859696E+03  0.00000000000E+00 0. -1.
</event>
<event>
 8    1  0.6597859E-009  0.1540062E+03  0.7561462E-02  0.1195635E+00
          3   -1    0    0  501    0  0.00000000000E+00  0.00000000000E+00  0.70964342231E+02  0.70964342231E+02  0.00000000000E+00 0. -1.
         -3   -1    0    0    0  501 -0.00000000000E+00 -0.00000000000E+00 -0.35964621710E+03  0.35964621710E+03  0.00000000000E+00 0.  1.
         25    2    1    2    0    0 -0.38083369975E+02 -0.11001289569E+03 -0.16687501387E+03  0.23885761423E+03  0.12510998894E+03 0.  0.
         23    2    1    2    0    0  0.38083369975E+02  0.11001289569E+03 -0.12180686100E+03  0.19175294511E+03  0.91537425585E+02 0.  0.
          5    1    3    3  502    0  0.34967105257E+02 -0.52277477446E+01 -0.69840174798E+02  0.78391008491E+02  0.41800000000E+01 0.  1.
         -5    1    3    3    0  502 -0.73050475232E+02 -0.10478514795E+03 -0.97034839071E+02  0.16046660573E+03  0.41800000000E+01 0.  1.
        -11    1    4    4    0    0 -0.16001534691E+02  0.82288596512E+02 -0.90596526438E+02  0.12343092332E+03  0.00000000000E+00 0.  1.
         11    1    4    4    0    0  0.54084904666E+02  0.27724299181E+02 -0.31210334562E+02  0.68322021788E+02  0.00000000000E+00 0. -1.
</event>
<event>
 7    1  0.6597859E-009  0.9085945E+02  0.7561462E-02  0.1300784E+00
         -2   -1    0    0    0  501 -0.00000000000E+00  0.00000000000E+00  0.23844399181E+02  0.23844399181E+02  0.00000000000E+00 0.  1.
          2   -1    0    0  501    0  0.00000000000E+00 -0.00000000000E+00 -0.47840035868E+03  0.47840035868E+03  0.00000000000E+00 0. -1.
         25    2    1    2    0    0  0.46731095506E+02 -0.41884050723E+02 -0.27206012620E+03  0.30594559631E+03  0.12509167295E+03 0.  0.
          5    1    3    3  502    0 -0.91011345784E+01 -0.56083265020E+02 -0.22299794870E+03  0.23016020680E+03  0.41800000000E+01 0.  1.
         -5    1    3    3    0  502  0.55832230084E+02  0.14199214297E+02 -0.49062177493E+02  0.75785389510E+02  0.41800000000E+01 0.  1.
        -11    1    1    2    0    0 -0.15635520932E+01  0.13611558607E+02 -0.14044162875E+02  0.19620339796E+02  0.00000000000E+00 0.  1.
         11    1    1    2    0    0 -0.45167543413E+02  0.28272492116E+02 -0.16845167043E+03  0.17667882176E+03  0.00000000000E+00 0. -1.
</event>
<event>
 8    1  0.6597859E-009  0.1401590E+03  0.7561462E-02  0.1213115E+00
          1   -1    0    0  501    0  0.00000000000E+00  0.00000000000E+00  0.48648122624E+03  0.48648122624E+03  0.00000000000E+00 0. -1.
         -1   -1    0    0    0  501 -0.00000000000E+00 -0.00000000000E+00 -0.64468899193E+02  0.64468899193E+02  0.00000000000E+00 0.  1.
         25    2    1    2    0    0  0.12103898715E+03  0.61714663109E+02  0.22894985155E+03  0.29415014527E+03  0.12508851819E+03 0.  0.
         23    2    1    2    0    0 -0.12103898715E+03 -0.61714663109E+02  0.19306247549E+03  0.25679998016E+03  0.10106420887E+03 0.  0.
          5    1    3    3  502    0  0.30545570233E+02  0.39798190489E+02  0.38172231193E+01  0.50487339199E+02  0.41800000000E+01 0. -1.
         -5    1    3    3    0  502  0.90493416918E+02  0.21916472620E+02  0.22513262843E+03  0.24366280607E+03  0.41800000000E+01 0. -1.
        -11    1    4    4    0    0 -0.46695171094E+02 -0.15342151582E+02  0.50961766455E+01  0.49414488108E+02  0.00000000000E+00 0.  1.
         11    1    4    4    0    0 -0.74343816057E+02 -0.46372511527E+02  0.18796629885E+03  0.20738549205E+03  0.00000000000E+00 0. -1.
</event>
<event>
 7    1  0.6597859E-009  0.1296847E+03  0.7561462E-02  0.1227924E+00
         -1   -1    0    0    0  501 -0.00000000000E+00  0.00000000000E+00  0.35359633828E+02  0.35359633828E+02  0.00000000000E+00 0.  1.
          1   -1    0    0  501    0  0.00000000000E+00 -0.00000000000E+00 -0.61856073552E+03  0.61856073552E+03  0.00000000000E+00 0. -1.
         25    2    1    2    0    0  0.63781862401E+01  0.60231904951E+02 -0.36144174865E+03  0.38724093464E+03  0.12508733015E+03 0.  0.
          5    1    3    3  502    0  0.41531814115E+02 -0.17192935494E+02 -0.67392259706E+02  0.81115212401E+02  0.41800000000E+01 0.  1.
         -5    1    3    3    0  502 -0.35153627875E+02  0.77424840445E+02 -0.29404948894E+03  0.30612572224E+03  0.41800000000E+01 0.  1.
        -11    1    1    2    0    0  0.34081506608E+02  0.19798472556E+02 -0.16582283655E+02  0.42760972153E+02  0.00000000000E+00 0.  1.
         11    1    1    2    0    0 -0.40459692848E+02 -0.80030377508E+02 -0.20517706939E+03  0.22391846255E+03  0.00000000000E+00 0. -1.
</event>
<event>
 8    1  0.6597859E-009  0.1191518E+03  0.7561462E-02  0.1244503E+00
          1   -1    0    0  501    0  0.00000000000E+00  0.00000000000E+00  0.72037359975E+03  0.72037359975E+03  0.00000000000E+00 0. -1.
         -1   -1    0    0    0  501 -0.00000000000E+00 -0.00000000000E+00 -0.21115157872E+02  0.21115157872E+02  0.00000000000E+00 0.  1.
         25    2    1    2    0    0  0.47840501379E+02 -0.38183301117E+02  0.40982839793E+03  0.43284389596E+03  0.12509134450E+03 0.  0.
         23    2    1    2    0    0 -0.47840501379E+02  0.38183301117E+02  0.28943004395E+03  0.30864486166E+03  0.88006944222E+02 0.  0.
          5    1    3    3  502    0  0.54801732556E+02 -0.79654820115E+02  0.29642198204E+03  0.31181979427E+03  0.41800000000E+01 0.  1.
         -5    1    3    3    0  502 -0.69612311767E+01  0.41471518998E+02  0.11340641589E+03  0.12102410170E+03  0.41800000000E+01 0.  1.
        -11    1    4    4    0    0  0.18939276720E+02  0.24726668965E+02  0.43811751336E+02  0.53754757147E+02  0.00000000000E+00 0.  1.
         11    1    4    4    0    0 -0.66779778099E+02  0.13456632151E+02  0.24561829261E+03  0.25489010451E+03  0.00000000000E+00 0. -1.
</event>
<event>
 8    1  0.6597859E-009  0.1073168E+03  0.7561462E-02  0.1265621E+00
          1   -1    0    0  501    0  0.00000000000E+00  0.00000000000E+00  0.48220715700E+03  0.48220715700E+03  0.00000000000E+00 0. -1.
         -1   -1    0    0    0  501 -0.00000000000E+00 -0.00000000000E+00 -0.55573238677E+02  0.55573238677E+02  0.00000000000E+00 0.  1.
         25    2    1    2    0    0  0.44469530482E+02 -0.57067814399E+02  0.39352273862E+03  0.41921557607E+03  0.12508908358E+03 0.  0.
         23    2    1    2    0    0 -0.44469530482E+02  0.57067814399E+02  0.33111179707E+02  0.11856481961E+03  0.87903308500E+02 0.  0.
          5    1    3    3  502    0  0.69315494110E+02 -0.65022130234E+02  0.17574215495E+03  0.19983816595E+03  0.41800000000E+01 0. -1.
         -5    1    3    3    0  502 -0.24845963628E+02  0.79543158352E+01  0.21778058367E+03  0.21937741012E+03  0.41800000000E+01 0. -1.
        -11    1    4    4    0    0  0.49025717107E+01  0.40806656840E+02  0.49240122881E+02  0.64138975305E+02  0.00000000000E+00 0. -1.
         11    1    4    4    0    0 -0.49372102193E+02  0.16261157559E+02 -0.16128943174E+02  0.54425844302E+02  0.00000000000E+00 0.  1.
</event>
<event>
 8    1  0.6597859E-009  0.1022018E+03  0.7561462E-02  0.1275733E+00
          1   -1    0    0  501    0  0.00000000000E+00  0.00000000000E+00  0.26023091675E+03  0.26023091675E+03  0.00000000000E+00 0. -1.
         -1   -1    0    0    0  501 -0.00000000000E+00 -0.00000000000E+00 -0.65819407886E+02  0.65819407886E+02  0.00000000000E+00 0.  1.
         25    2    1    2    0    0 -0.69633000368E+01 -0.64775269918E+02  0.14773175277E+03  0.20424617224E+03  0.12508998745E+03 0.  0.
         23    2    1    2    0    0  0.69633000368E+01  0.64775269918E+02  0.46679756092E+02  0.12180415239E+03  0.91722019005E+02 0.  0.
          5    1    3    3  502    0 -0.51854129584E+02  0.93252434451E+00  0.96136311251E+02  0.10931323386E+03  0.41800000000E+01 0. -1.
         -5    1    3    3    0  502  0.44890829547E+02 -0.65707794262E+02  0.51595441520E+02  0.94932938382E+02  0.41800000000E+01 0. -1.
        -11    1    4    4    0    0  0.19420538027E+02  0.48082613701E+02  0.72181288964E+02  0.88877632248E+02  0.00000000000E+00 0. -1.
         11    1    4    4    0    0 -0.12457237990E+02  0.16692656216E+02 -0.25501532871E+02  0.32926520142E+02  0.00000000000E+00 0.  1.
</event>
<event>
 8    1  0.6597859E-009  0.1078259E+03  0.7561462E-02  0.1264650E+00
         -1   -1    0    0    0  501 -0.00000000000E+00  0.00000000000E+00  0.98882171188E+02  0.98882171188E+02  0.00000000000E+00 0.  1.
          1   -1    0    0  501    0  0.00000000000E+00 -0.00000000000E+00 -0.30676643289E+03  0.30676643289E+03  0.00000000000E+00 0. -1.
         25    2    1    2    0    0  0.24784296789E+02 -0.91705672164E+02 -0.22325015934E+03  0.27296858673E+03  0.12508806507E+03 0.  0.
         23    2    1    2    0    0 -0.24784296789E+02  0.91705672164E+02  0.15365897643E+02  0.13268001734E+03  0.91343771094E+02 0.  0.
          5    1    3    3  502    0  0.13382980610E+02 -0.18595402645E+02  0.12086372473E+02  0.26238253926E+02  0.41800000000E+01 0.  1.
         -5    1    3    3    0  502  0.11401316179E+02 -0.73110269519E+02 -0.23533653182E+03  0.24673033281E+03  0.41800000000E+01 0.  1.
        -11    1    4    4    0    0 -0.49697640084E+02  0.59142778182E+02 -0.18576410062E+02  0.79453172698E+02  0.00000000000E+00 0. -1.
         11    1    4    4    0    0  0.24913343294E+02  0.32562893982E+02  0.33942307705E+02  0.53226844646E+02  0.00000000000E+00 0.  1.
</event>
<event>
 8    1  0.6597859E-009  0.1958884E+03  0.7561462E-02  0.1153255E+00
          2   -1    0    0  501    0  0.00000000000E+00  0.00000000000E+00  0.90644626452E+03  0.90644626452E+03  0.00000000000E+00 0.  1.
         -2   -1    0    0    0  501 -0.00000000000E+00 -0.00000000000E+00 -0.50908551164E+02  0.50908551164E+02  0.00000000000E+00 0. -1.
         25    2    1    2    0    0  0.50891443299E+01  0.18490686217E+03  0.45793941349E+03  0.50948292810E+03  0.12509156854E+03 0.  0.
         23    2    1    2    0    0 -0.50891443299E+01 -0.18490686217E+03  0.39759829986E+03  0.44787188759E+03  0.91040499615E+02 0.  0.
          5    1    3    3  502    0 -0.83219076401E+00  0.14578985672E+03  0.19479019355E+03  0.24334351598E+03  0.41800000000E+01 0.  1.
         -5    1    3    3    0  502  0.59213350939E+01  0.39117005450E+02  0.26314921994E+03  0.26613941212E+03  0.41800000000E+01 0.  1.
        -11    1    4    4    0    0 -0.40076077490E+02 -0.38358621130E+02  0.10391429004E+03  0.11779497220E+03  0.00000000000E+00 0. -1.
         11    1    4    4    0    0  0.34986933160E+02 -0.14654824104E+03  0.29368400982E+03  0.33007691538E+03  0.00000000000E+00 0.  1.
</event>
<event>
 8    1  0.6597859E-009  0.9983979E+02  0.7561462E-02  0.1280633E+00
         -2   -1    0    0    0  501 -0.00000000000E+00  0.00000000000E+00  0.43117791804E+02  0.43117791804E+02  0.00000000000E+00 0.  1.
          2   -1    0    0  501    0  0.00000000000E+00 -0.00000000000E+00 -0.43649735646E+03  0.43649735646E+03  0.00000000000E+00 0. -1.
         25    2    1    2    0    0  0.57314670139E+02  0.51449114956E+02 -0.16399720363E+03  0.22013863815E+03  0.12503581233E+03 0.  0.
         23    2    1    2    0    0 -0.57314670139E+02 -0.51449114956E+02 -0.22938236103E+03  0.25947651012E+03  0.93700634509E+02 0.  0.
          5    1    3    3  502    0 -0.21368475815E+02  0.25618592342E+02  0.29320632649E+01  0.33748976684E+02  0.41800000000E+01 0.  1.
         -5    1    3    3    0  502  0.78683145954E+02  0.25830522614E+02 -0.16692926689E+03  0.18638966146E+03  0.41800000000E+01 0.  1.
        -11    1    4    4    0    0 -0.44687820967E+02 -0.19448443998E+02 -0.30177553657E+02  0.57323015111E+02  0.00000000000E+00 0.  1.
         11    1    4    4    0    0 -0.12626849172E+02 -0.32000670958E+02 -0.19920480738E+03  0.20215349501E+03  0.00000000000E+00 0. -1.
</event>
<event>
 8    1  0.6597859E-009  0.1080938E+03  0.7561462E-02  0.1264141E+00
         -1   -1    0    0    0  501 -0.00000000000E+00  0.00000000000E+00  0.20924938649E+02  0.20924938649E+02  0.00000000000E+00 0.  1.
          1   -1    0    0  501    0  0.00000000000E+00 -0.00000000000E+00 -0.80560313006E+03  0.80560313006E+03  0.00000000000E+00 0. -1.
         25    2    1    2    0    0  0.14249261010E+02  0.38238121806E+02 -0.61722015869E+03  0.63108916276E+03  0.12509041396E+03 0.  0.
         23    2    1    2    0    0 -0.14249261010E+02 -0.38238121806E+02 -0.16745803272E+03  0.19543890595E+03  0.92135649107E+02 0.  0.
          5    1    3    3  502    0  0.36060635191E+02 -0.27922528079E+02 -0.11094031998E+03  0.12002193125E+03  0.41800000000E+01 0.  1.
         -5    1    3    3    0  502 -0.21811374181E+02  0.66160649885E+02 -0.50627983871E+03  0.51106723151E+03  0.41800000000E+01 0.  1.
        -11    1    4    4    0    0 -0.17397409163E+01  0.30592675437E+02 -0.56300612865E+02  0.64099122442E+02  0.00000000000E+00 0. -1.
         11    1    4    4    0    0 -0.12509520094E+02 -0.68830797243E+02 -0.11115741986E+03  0.13133978351E+03  0.00000000000E+00 0.  1.
</event>
<event>
 8    1  0.6597859E-009  0.3263597E+03  0.7561462E-02  0.1072759E+00
         -4   -1    0    0    0  501 -0.00000000000E+00  0.00000000000E+00  0.53819687478E+03  0.53819687478E+03  0.00000000000E+00 0.  1.
          4   -1    0    0  501    0  0.00000000000E+00 -0.00000000000E+00 -0.22521929022E+03  0.22521929022E+03  0.00000000000E+00 0. -1.
         25    2    1    2    0    0  0.54735531401E+02 -0.31099638755E+03  0.51611094243E+02  0.34354946725E+03  0.12509116650E+03 0.  0.
         23    2    1    2    0    0 -0.54735531401E+02  0.31099638755E+03  0.26136649032E+03  0.41986669775E+03  0.90889329151E+02 0.  0.
          5    1    3    3  502    0 -0.20633573620E+02 -0.11532277803E+03 -0.25722130528E+02  0.12001744828E+03  0.41800000000E+01 0.  1.
         -5    1    3    3    0  502  0.75369105021E+02 -0.19567360952E+03  0.77333224771E+02  0.22353201897E+03  0.41800000000E+01 0.  1.
        -11    1    4    4    0    0  0.18947019315E+01  0.20971585139E+03  0.19399332224E+03  0.28568818193E+03  0.00000000000E+00 0. -1.
         11    1    4    4    0    0 -0.56630233333E+02  0.10128053616E+03  0.67373168082E+02  0.13417851583E+03  0.00000000000E+00 0.  1.
</event>
<event>
 8    1  0.6597859E-009  0.2326954E+03  0.7561462E-02  0.1124757E+00
          1   -1    0    0  501    0  0.00000000000E+00  0.00000000000E+00  0.32775111370E+03  0.32775111370E+03  0.00000000000E+00 0. -1.
         -1   -1    0    0    0  501 -0.00000000000E+00 -0.00000000000E+00 -0.19398672604E+03  0.19398672604E+03  0.00000000000E+00 0.  1.
         25    2    1    2    0    0  0.16445714853E+03  0.14446563485E+03  0.40650899679E+01  0.25215085311E+03  0.12508818655E+03 0.  0.
         23    2    1    2    0    0 -0.16445714853E+03 -0.14446563485E+03  0.12969929769E+03  0.26958698663E+03  0.89099731683E+02 0.  0.
          5    1    3    3  502    0  0.80111608135E+02  0.12430635861E+03  0.47084105624E+02  0.15525567929E+03  0.41800000000E+01 0.  1.
         -5    1    3    3    0  502  0.84345540390E+02  0.20159276240E+02 -0.43019015656E+02  0.96895173824E+02  0.41800000000E+01 0.  1.
        -11    1    4    4    0    0 -0.13750648292E+03 -0.14959420622E+03  0.13160357518E+03  0.24208667947E+03  0.00000000000E+00 0.  1.
         11    1    4    4    0    0 -0.26950665609E+02  0.51285713696E+01 -0.19042774880E+01  0.27500307159E+02  0.00000000000E+00 0. -1.
</event>
<event>
 8    1  0.6597859E-009  0.7096313E+02  0.7561462E-02  0.1356848E+00
         -1   -1    0    0    0  501 -0.00000000000E+00  0.00000000000E+00  0.46338484042E+02  0.46338484042E+02  0.00000000000E+00 0.  1.
          1   -1    0    0  501    0  0.00000000000E+00 -0.00000000000E+00 -0.76391308191E+03  0.76391308191E+03  0.00000000000E+00 0. -1.
         25    2    1    2    0    0  0.14899182615E+02  0.40188956495E+02 -0.69937858809E+03  0.71176771876E+03  0.12508292503E+03 0.  0.
         23    2    1    2    0    0 -0.14899182615E+02 -0.40188956495E+02 -0.18196009781E+02  0.98483847187E+02  0.86780386713E+02 0.  0.
          5    1    3    3  502    0  0.13974255835E+02  0.47402396793E+02 -0.70139037260E+03  0.70314166014E+03  0.41800000000E+01 0.  1.
         -5    1    3    3    0  502  0.92492677985E+00 -0.72134402983E+01  0.20117845122E+01  0.86260586254E+01  0.41800000000E+01 0.  1.
        -11    1    4    4    0    0  0.26945294042E+02 -0.31050062198E+02  0.15552139482E+02  0.43954798100E+02  0.00000000000E+00 0.  1.
         11    1    4    4    0    0 -0.41844476657E+02 -0.91388942974E+01 -0.33748149263E+02  0.54529049087E+02  0.00000000000E+00 0. -1.
</event>
<event>
 8    1  0.6597859E-009  0.7430464E+02  0.7561462E-02  0.1346038E+00
         -2   -1    0    0    0  501 -0.00000000000E+00  0.00000000000E+00  0.25522369889E+02  0.25522369889E+02  0.00000000000E+00 0.  1.
          2   -1    0    0  501    0  0.00000000000E+00 -0.00000000000E+00 -0.10031963030E+04  0.10031963030E+04  0.00000000000E+00 0. -1.
         25    2    1    2    0    0 -0.69595033203E+01 -0.66586681203E+02 -0.83553383531E+03  0.84749442112E+03  0.12509109911E+03 0.  0.
         23    2    1    2    0    0  0.69595033203E+01  0.66586681203E+02 -0.14214009782E+03  0.18122425179E+03  0.90311689324E+02 0.  0.
          5    1    3    3  502    0 -0.73080509626E+00 -0.93999408502E+01 -0.70152443699E+03  0.70160024305E+03  0.41800000000E+01 0. -1.
         -5    1    3    3    0  502 -0.62286982241E+01 -0.57186740353E+02 -0.13400939833E+03  0.14589417807E+03  0.41800000000E+01 0. -1.
        -11    1    4    4    0    0  0.20876576102E+02  0.11567178256E+02 -0.11655112206E+03  0.11896972344E+03  0.00000000000E+00 0. -1.
         11    1    4    4    0    0 -0.13917072782E+02  0.55019502948E+02 -0.25588975762E+02  0.62254528349E+02  0.00000000000E+00 0.  1.
</event>
<event>
 8    1  0.6597859E-009  0.1144276E+03  0.7561462E-02  0.1252584E+00
          1   -1    0    0  501    0  0.00000000000E+00  0.00000000000E+00  0.16120366365E+04  0.16120366365E+04  0.00000000000E+00 0. -1.
         -1   -1    0    0    0  501 -0.00000000000E+00 -0.00000000000E+00 -0.13363090736E+02  0.13363090736E+02  0.00000000000E+00 0.  1.
         25    2    1    2    0    0 -0.82511443667E+02 -0.12218847542E+02  0.11607962150E+04  0.11704925707E+04  0.12509023448E+03 0.  0.
         23    2    1    2    0    0  0.82511443667E+02  0.12218847542E+02  0.43787733077E+03  0.45490715653E+03  0.90810383154E+02 0.  0.
          5    1    3    3  502    0 -0.61943844384E+02 -0.48582246376E+02  0.35699865476E+03  0.36559921557E+03  0.41800000000E+01 0. -1.
         -5    1    3    3    0  502 -0.20567599284E+02  0.36363398834E+02  0.80379756023E+03  0.80489335514E+03  0.41800000000E+01 0. -1.
        -11    1    4    4    0    0  0.21575583119E+02  0.36532918890E+02  0.75200363766E+02  0.86343816571E+02  0.00000000000E+00 0.  1.
         11    1    4    4    0    0  0.60935860548E+02 -0.24314071347E+02  0.36267696701E+03  0.36856333996E+03  0.00000000000E+00 0. -1.
</event>
<event>
 8    1  0.6597859E-009  0.2092561E+03  0.7561462E-02  0.1142156E+00
          1   -1    0    0  501    0  0.00000000000E+00  0.00000000000E+00  0.30723127708E+03  0.30723127708E+03  0.00000000000E+00 0. -1.
         -1   -1    0    0    0  501 -0.00000000000E+00 -0.00000000000E+00 -0.15910726878E+03  0.15910726878E+03  0.00000000000E+00 0.  1.
         25    2    1    2    0    0 -0.13804809652E+03  0.12501579715E+03  0.26847177029E+02  0.22595062593E+03  0.12508672172E+03 0.  0.
         23    2    1    2    0    0  0.13804809652E+03 -0.12501579715E+03  0.12127683127E+03  0.24038791993E+03  0.91608164247E+02 0.  0.
          5    1    3    3  502    0 -0.14576354406E+03  0.13506479784E+03  0.31879258980E+01  0.19878919906E+03  0.41800000000E+01 0.  1.
         -5    1    3    3    0  502  0.77154475312E+01 -0.10049000687E+02  0.23659251131E+02  0.27161426868E+02  0.41800000000E+01 0.  1.
        -11    1    4    4    0    0  0.15508612162E+02 -0.70680364942E+02  0.30675606970E+02  0.78595317306E+02  0.00000000000E+00 0.  1.
         11    1    4    4    0    0  0.12253948436E+03 -0.54335432212E+02  0.90601224295E+02  0.16179260263E+03  0.00000000000E+00 0. -1.
</event>
<event>
 8    1  0.6597859E-009  0.1035240E+03  0.7561462E-02  0.1273055E+00
         -1   -1    0    0    0  501 -0.00000000000E+00  0.00000000000E+00  0.43275287207E+02  0.43275287207E+02  0.00000000000E+00 0.  1.
          1   -1    0    0  501    0  0.00000000000E+00 -0.00000000000E+00 -0.41280285646E+03  0.41280285646E+03  0.00000000000E+00 0. -1.
         25    2    1    2    0    0  0.16096657839E+02  0.74621901002E+02 -0.20027433061E+03  0.24816214418E+03  0.12508841594E+03 0.  0.
         23    2    1    2    0    0 -0.16096657839E+02 -0.74621901002E+02 -0.16925323864E+03  0.20791599948E+03  0.93567481247E+02 0.  0.
          5    1    3    3  502    0 -0.13376098283E+02  0.28026266717E+02  0.82737694457E+01  0.32408629903E+02  0.41800000000E+01 0. -1.
         -5    1    3    3    0  502  0.29472756122E+02  0.46595634285E+02 -0.20854810005E+03  0.21575351428E+03  0.41800000000E+01 0. -1.
        -11    1    4    4    0    0  0.26027590688E+02 -0.73835904623E+02 -0.10248999967E+03  0.12897044747E+03  0.00000000000E+00 0.  1.
         11    1    4    4    0    0 -0.42124248526E+02 -0.78599637908E+00 -0.66763238973E+02  0.78945552011E+02  0.00000000000E+00 0. -1.
</event>
<event>
 8    1  0.6597859E-009  0.2094616E+03  0.7561462E-02  0.1141993E+00
          1   -1    0    0  501    0  0.00000000000E+00  0.00000000000E+00  0.48582280605E+03  0.48582280605E+03  0.00000000000E+00 0. -1.
         -1   -1    0    0    0  501 -0.00000000000E+00 -0.00000000000E+00 -0.11835898514E+03  0.11835898514E+03  0.00000000000E+00 0.  1.
         25    2    1    2    0    0  0.18794206237E+03  0.13833979557E+02  0.62515673407E+02  0.23463923628E+03  0.12503505101E+03 0.  0.
         23    2    1    2    0    0 -0.18794206237E+03 -0.13833979557E+02  0.30494814751E+03  0.36954255491E+03  0.89748144394E+02 0.  0.
          5    1    3    3  502    0  0.18263393227E+03 -0.23811725751E+02  0.67212073040E+02  0.19610478490E+03  0.41800000000E+01 0. -1.
         -5    1    3    3    0  502  0.53081301006E+01  0.37645705308E+02 -0.46963996322E+01  0.38534451375E+02  0.41800000000E+01 0. -1.
        -11    1    4    4    0    0 -0.17359530002E+03  0.38989255798E+01  0.21300387402E+03  0.27481117182E+03  0.00000000000E+00 0.  1.
         11    1    4    4    0    0 -0.14346762348E+02 -0.17732905136E+02  0.91944273488E+02  0.94731383088E+02  0.00000000000E+00 0. -1.
</event>
<event>
 8    1  0.6597859E-009  0.8335210E+02  0.7561462E-02  0.1319799E+00
          1   -1    0    0  501    0  0.00000000000E+00  0.00000000000E+00  0.73828784393E+03  0.73828784393E+03  0.00000000000E+00 0. -1.
         -1   -1    0    0    0  501 -0.00000000000E+00 -0.00000000000E+00 -0.20225483668E+02  0.20225483668E+02  0.00000000000E+00 0.  1.
         25    2    1    2    0    0  0.40548763273E+02 -0.14023541134E+02  0.52202468890E+03  0.53851477085E+03  0.12509005035E+03 0.  0.
         23    2    1    2    0    0 -0.40548763273E+02  0.14023541134E+02  0.19603767136E+03  0.21999855674E+03  0.90153948710E+02 0.  0.
          5    1    3    3  502    0  0.44417867543E+02  0.77243581859E+01  0.56301014971E+02  0.72248801743E+02  0.41800000000E+01 0. -1.
         -5    1    3    3    0  502 -0.38691042702E+01 -0.21747899320E+02  0.46572367393E+03  0.46626596911E+03  0.41800000000E+01 0. -1.
        -11    1    4    4    0    0 -0.56514037844E+02 -0.21130663912E+02  0.10478903003E+03  0.12091766722E+03  0.00000000000E+00 0.  1.
         11    1    4    4    0    0  0.15965274571E+02  0.35154205046E+02  0.91248641332E+02  0.99080889527E+02  0.00000000000E+00 0. -1.
</event>
<event>
 8    1  0.6597859E-009  0.1157406E+03  0.7561462E-02  0.1250294E+00
         -2   -1    0    0    0  501 -0.00000000000E+00  0.00000000000E+00  0.33294141574E+03  0.33294141574E+03  0.00000000000E+00 0. -1.
          2   -1    0    0  501    0  0.00000000000E+00 -0.00000000000E+00 -0.50636938467E+02  0.50636938467E+02  0.00000000000E+00 0.  1.
         25    2    1    2    0    0 -0.63127610432E+02  0.33433382728E+02  0.15860813187E+03  0.21425971815E+03  0.12509117095E+03 0.  0.
         23    2    1    2    0    0  0.63127610432E+02 -0.33433382728E+02  0.12369634541E+03  0.16931863606E+03  0.90912751414E+02 0.  0.
          5    1    3    3  502    0  0.32247784450E+02 -0.29232734714E+01  0.10417828988E+02  0.34270522180E+02  0.41800000000E+01 0. -1.
         -5    1    3    3    0  502 -0.95375394882E+02  0.36356656199E+02  0.14819030288E+03  0.17998919597E+03  0.41800000000E+01 0. -1.
        -11    1    4    4    0    0 -0.38384236588E+01  0.14062968936E+02  0.69339714919E+02  0.70855463138E+02  0.00000000000E+00 0. -1.
         11    1    4    4    0    0  0.66966034091E+02 -0.47496351664E+02  0.54356630488E+02  0.98463172919E+02  0.00000000000E+00 0.  1.
</event>
<event>
 8    1  0.6597859E-009  0.1557956E+03  0.7561462E-02  0.1193527E+00
          2   -1    0    0  501    0  0.00000000000E+00  0.00000000000E+00  0.24954492874E+04  0.24954492874E+04  0.00000000000E+00 0. -1.
         -2   -1    0    0    0  501 -0.00000000000E+00 -0.00000000000E+00 -0.19049842097E+02  0.19049842097E+02  0.00000000000E+00 0.  1.
         25    2    1    2    0    0  0.13053337824E+03 -0.81303621325E+01  0.20746308419E+04  0.20825097582E+04  0.12509475208E+03 0.  0.
         23    2    1    2    0    0 -0.13053337824E+03  0.81303621325E+01  0.40176860340E+03  0.43198937134E+03  0.89954103044E+02 0.  0.
          5    1    3    3  502    0 -0.20830852463E+02  0.10660587060E+02  0.15356550094E+03  0.15539436286E+03  0.41800000000E+01 0.  1.
         -5    1    3    3    0  502  0.15136423070E+03 -0.18790949192E+02  0.19210653410E+04  0.19271153953E+04  0.41800000000E+01 0.  1.
        -11    1    4    4    0    0 -0.27215113061E+02  0.16085065515E+02  0.22456341823E+02  0.38777300056E+02  0.00000000000E+00 0.  1.
         11    1    4    4    0    0 -0.10331826518E+03 -0.79547033826E+01  0.37931226157E+03  0.39321207129E+03  0.00000000000E+00 0. -1.
</event>
<event>
 8    1  0.6597859E-009  0.1020917E+03  0.7561462E-02  0.1275958E+00
          4   -1    0    0  501    0  0.00000000000E+00  0.00000000000E+00  0.27044328192E+02  0.27044328192E+02  0.00000000000E+00 0. -1.
         -4   -1    0    0    0  501 -0.00000000000E+00 -0.00000000000E+00 -0.54329662090E+03  0.54329662090E+03  0.00000000000E+00 0.  1.
         25    2    1    2    0    0  0.22396770873E+02 -0.31880019885E+01 -0.40776016415E+03  0.42711456680E+03  0.12508686181E+03 0.  0.
         23    2    1    2    0    0 -0.22396770873E+02  0.31880019885E+01 -0.10849212855E+03  0.14322638229E+03  0.90727481639E+02 0.  0.
          5    1    3    3  502    0 -0.34940679579E+02 -0.42004580100E+02 -0.22650967374E+03  0.23304364514E+03  0.41800000000E+01 0. -1.
         -5    1    3    3    0  502  0.57337450452E+02  0.38816578111E+02 -0.18125049041E+03  0.19407092166E+03  0.41800000000E+01 0. -1.
        -11    1    4    4    0    0  0.16708243051E+02  0.28784227672E+02 -0.10902355616E+02  0.35022257301E+02  0.00000000000E+00 0. -1.
         11    1    4    4    0    0 -0.39105013925E+02 -0.25596225683E+02 -0.97589772936E+02  0.10820412499E+03  0.00000000000E+00 0.  1.
</event>
<event>
 8    1  0.6597859E-009  0.5181788E+02  0.7561462E-02  0.1435776E+00
          2   -1    0    0  501    0  0.00000000000E+00  0.00000000000E+00  0.72415685755E+02  0.72415685755E+02  0.00000000000E+00 0. -1.
         -2   -1    0    0    0  501 -0.00000000000E+00 -0.00000000000E+00 -0.18546901477E+03  0.18546901477E+03  0.00000000000E+00 0.  1.
         25    2    1    2    0    0 -0.24987106355E+02 -0.23971491072E+02 -0.43570095846E+02  0.13690165900E+03  0.12507886758E+03 0.  0.
         23    2    1    2    0    0  0.24987106355E+02  0.23971491072E+02 -0.69483233165E+02  0.12098304152E+03  0.92790025202E+02 0.  0.
          5    1    3    3  502    0  0.87397548173E+01  0.58410132203E+00 -0.80467288122E+02  0.81050486404E+02  0.41800000000E+01 0.  1.
         -5    1    3    3    0  502 -0.33726861172E+02 -0.24555592394E+02  0.36897192275E+02  0.55851172594E+02  0.41800000000E+01 0.  1.
        -11    1    4    4    0    0 -0.29636393644E+01  0.23868104385E+02 -0.85465604515E+02  0.88785354199E+02  0.00000000000E+00 0.  1.
         11    1    4    4    0    0  0.27950745719E+02  0.10338668731E+00  0.15982371350E+02  0.32197687324E+02  0.00000000000E+00 0. -1.
</event>
<event>
 7    1  0.6597859E-009  0.1684971E+03  0.7561462E-02  0.1179424E+00
          2   -1    0    0  501    0  0.00000000000E+00  0.00000000000E+00  0.71285642145E+02  0.71285642145E+02  0.00000000000E+00 0. -1.
         -2   -1    0    0    0  501 -0.00000000000E+00 -0.00000000000E+00 -0.53527016271E+03  0.53527016271E+03  0.00000000000E+00 0.  1.
         23    2    1    2    0    0  0.58922976114E+02 -0.14628886926E+03 -0.15964900708E+03  0.24170582436E+03  0.89786133032E+02 0.  0.
          5    1    1    2  502    0 -0.10204045260E+02  0.99153002537E+02 -0.72647121800E+02  0.12341198142E+03  0.41800000000E+01 0. -1.
         -5    1    1    2    0  502 -0.48718930854E+02  0.47135866725E+02 -0.23168839168E+03  0.24143799907E+03  0.41800000000E+01 0. -1.
        -11    1    3    3    0    0  0.12577425698E+02 -0.10928481328E+03 -0.14240050591E+03  0.17994239671E+03  0.00000000000E+00 0.  1.
         11    1    3    3    0    0  0.46345550416E+02 -0.37004055984E+02 -0.17248501169E+02  0.61763427652E+02  0.00000000000E+00 0. -1.
</event>
<event>
 8    1  0.6597859E-009  0.2515355E+03  0.7561462E-02  0.1112338E+00
         -2   -1    0    0    0  501 -0.00000000000E+00  0.00000000000E+00  0.66707230079E+02  0.66707230079E+02  0.00000000000E+00 0. -1.
          2   -1    0    0  501    0  0.00000000000E+00 -0.00000000000E+00 -0.10754308155E+04  0.10754308155E+04  0.00000000000E+00 0.  1.
         25    2    1    2    0    0  0.21593786750E+03  0.10720830685E+03 -0.48378982318E+03  0.55481778282E+03  0.12508954968E+03 0.  0.
         23    2    1    2    0    0 -0.21593786750E+03 -0.10720830685E+03 -0.52493376227E+03  0.58732026280E+03  0.10614543155E+03 0.  0.
          5    1    3    3  502    0  0.14506439320E+03  0.27127028772E+02 -0.18043934681E+03  0.23314241171E+03  0.41800000000E+01 0.  1.
         -5    1    3    3    0  502  0.70873474300E+02  0.80081278075E+02 -0.30335047637E+03  0.32167537110E+03  0.41800000000E+01 0.  1.
        -11    1    4    4    0    0 -0.13383053605E+03 -0.97820616612E+02 -0.24786258473E+03  0.29818676417E+03  0.00000000000E+00 0. -1.
         11    1    4    4    0    0 -0.82107331442E+02 -0.93876902349E+01 -0.27707117754E+03  0.28913349863E+03  0.00000000000E+00 0.  1.
</event>
<event>
 8    1  0.6597859E-009  0.1529228E+03  0.7561462E-02  0.1196927E+00
         -2   -1    0    0    0  501 -0.00000000000E+00  0.00000000000E+00  0.14809874210E+03  0.14809874210E+03  0.00000000000E+00 0.  1.
          2   -1    0    0  501    0  0.00000000000E+00 -0.00000000000E+00 -0.25466184439E+03  0.25466184439E+03  0.00000000000E+00 0. -1.
         25    2    1    2    0    0  0.45157342481E+02 -0.12336169920E+03 -0.15139840125E+03  0.23624417007E+03  0.12503014668E+03 0.  0.
         23    2    1    2    0    0 -0.45157342481E+02  0.12336169920E+03  0.44835298958E+02  0.16651641642E+03  0.91979446050E+02 0.  0.
          5    1    3    3  502    0  0.31766634356E+02  0.48872859558E+01  0.57543251129E+01  0.32917917307E+02  0.41800000000E+01 0.  1.
         -5    1    3    3    0  502  0.13390708125E+02 -0.12824898516E+03 -0.15715272637E+03  0.20332625276E+03  0.41800000000E+01 0.  1.
        -11    1    4    4    0    0 -0.22704642964E+02  0.11950050976E+03  0.63362150583E+02  0.13715186755E+03  0.00000000000E+00 0.  1.
         11    1    4    4    0    0 -0.22452699517E+02  0.38611894408E+01 -0.18526851625E+02  0.29364548875E+02  0.00000000000E+00 0. -1.
</event>
<event>
 8    1  0.6597859E-009  0.1263892E+03  0.7561462E-02  0.1232914E+00
          2   -1    0    0  501    0  0.00000000000E+00  0.00000000000E+00  0.45510650930E+03  0.45510650930E+03  0.00000000000E+00 0. -1.
         -2   -1    0    0    0  501 -0.00000000000E+00 -0.00000000000E+00 -0.44157935445E+02  0.44157935445E+02  0.00000000000E+00 0.  1.
         25    2    1    2    0    0  0.61912907921E+02 -0.59377849888E+02  0.21273059765E+03  0.26126942486E+03  0.12509383664E+03 0.  0.
         23    2    1    2    0    0 -0.61912907921E+02  0.59377849888E+02  0.19821797620E+03  0.23799501989E+03  0.99961623515E+02 0.  0.
          5    1    3    3  502    0  0.57468773002E+02  0.21066322112E+02  0.48185892643E+02  0.78011553294E+02  0.41800000000E+01 0. -1.
         -5    1    3    3    0  502  0.44441349191E+01 -0.80444172001E+02  0.16454470501E+03  0.18325787156E+03  0.41800000000E+01 0. -1.
        -11    1    4    4    0    0  0.47124878600E+01  0.41504459017E+02  0.14492706527E+03  0.15082666180E+03  0.00000000000E+00 0. -1.
         11    1    4    4    0    0 -0.66625395781E+02  0.17873390871E+02  0.53290910931E+02  0.87168358089E+02  0.00000000000E+00 0.  1.
</event>
<event>
 8    1  0.6597859E-009  0.1270456E+03  0.7561462E-02  0.1231907E+00
         -2   -1    0    0    0  501 -0.00000000000E+00  0.00000000000E+00  0.50432308892E+03  0.50432308892E+03  0.00000000000E+00 0. -1.
          2   -1    0    0  501    0  0.00000000000E+00 -0.00000000000E+00 -0.72499457176E+02  0.72499457176E+02  0.00000000000E+00 0.  1.
         25    2    1    2    0    0  0.10489024749E+03 -0.48046232051E+02  0.38745196912E+03  0.42317463212E+03  0.12508931395E+03 0.  0.
         23    2    1    2    0    0 -0.10489024749E+03  0.48046232051E+02  0.44371662624E+02  0.15364791397E+03  0.91260246503E+02 0.  0.
          5    1    3    3  502    0  0.54731036675E+02 -0.24831888741E+02  0.42330718606E+02  0.73630640440E+02  0.41800000000E+01 0. -1.
         -5    1    3    3    0  502  0.50159210813E+02 -0.23214343310E+02  0.34512125052E+03  0.34954399168E+03  0.41800000000E+01 0. -1.
        -11    1    4    4    0    0 -0.10873295252E+03  0.61158669859E+02  0.54998448034E+02  0.13633806200E+03  0.00000000000E+00 0.  1.
         11    1    4    4    0    0  0.38427050342E+01 -0.13112437808E+02 -0.10626785410E+02  0.17309851975E+02  0.00000000000E+00 0. -1.
</event>
<event>
 8    1  0.6597859E-009  0.8472753E+02  0.7561462E-02  0.1316147E+00
         -1   -1    0    0    0  501 -0.00000000000E+00  0.00000000000E+00  0.21250510319E+03  0.21250510319E+03  0.00000000000E+00 0.  1.
          1   -1    0    0  501    0  0.00000000000E+00 -0.00000000000E+00 -0.78697218992E+02  0.78697218992E+02  0.00000000000E+00 0. -1.
         25    2    1    2    0    0  0.26572384389E+02  0.65160045907E+02  0.79701973501E+02  0.16417229632E+03  0.12509282594E+03 0.  0.
         23    2    1    2    0    0 -0.26572384389E+02 -0.65160045907E+02  0.54105910698E+02  0.12703002587E+03  0.90869437682E+02 0.  0.
          5    1    3    3  502    0  0.11159996890E+02  0.12041879870E+02 -0.33819024181E+02  0.37825271949E+02  0.41800000000E+01 0. -1.
         -5    1    3    3    0  502  0.15412387499E+02  0.53118166037E+02  0.11352099768E+03  0.12634702437E+03  0.41800000000E+01 0. -1.
        -11    1    4    4    0    0 -0.45173471522E+02 -0.22413492174E+02 -0.61980936629E+01  0.50807711283E+02  0.00000000000E+00 0. -1.
         11    1    4    4    0    0  0.18601087133E+02 -0.42746553733E+02  0.60304004361E+02  0.76222314584E+02  0.00000000000E+00 0.  1.
</event>
<event>
 8    1  0.6597859E-009  0.8669814E+02  0.7561462E-02  0.1311051E+00
         -1   -1    0    0    0  501 -0.00000000000E+00  0.00000000000E+00  0.14194424184E+03  0.14194424184E+03  0.00000000000E+00 0.  1.
          1   -1    0    0  501    0  0.00000000000E+00 -0.00000000000E+00 -0.10485407133E+03  0.10485407133E+03  0.00000000000E+00 0. -1.
         25    2    1    2    0    0 -0.55169959806E+01 -0.52718161601E+02  0.17880144023E+02  0.13702747902E+03  0.12508872311E+03 0.  0.
         23    2    1    2    0    0  0.55169959806E+01  0.52718161601E+02  0.19210026486E+02  0.10977083416E+03  0.94185822220E+02 0.  0.
          5    1    3    3  502    0 -0.17421240173E+02 -0.57955525555E+02 -0.43178483653E+02  0.74459360742E+02  0.41800000000E+01 0.  1.
         -5    1    3    3    0  502  0.11904244193E+02  0.52373639532E+01  0.61058627676E+02  0.62568118277E+02  0.41800000000E+01 0.  1.
        -11    1    4    4    0    0 -0.39085436875E+02  0.21253417384E+02  0.30617633088E+02  0.54007578932E+02  0.00000000000E+00 0.  1.
         11    1    4    4    0    0  0.44602432855E+02  0.31464744217E+02 -0.11407606602E+02  0.55763255228E+02  0.00000000000E+00 0. -1.
</event>
<event>
 8    1  0.6597859E-009  0.1891012E+03  0.7561462E-02  0.1159275E+00
         -2   -1    0    0    0  501 -0.00000000000E+00  0.00000000000E+00  0.81644566665E+02  0.81644566665E+02  0.00000000000E+00 0. -1.
          2   -1    0    0  501    0  0.00000000000E+00 -0.00000000000E+00 -0.51319958349E+03  0.51319958349E+03  0.00000000000E+00 0.  1.
         25    2    1    2    0    0  0.11826041887E+03 -0.12064304898E+03 -0.16827833426E+03  0.26926225912E+03  0.12507715407E+03 0.  0.
         23    2    1    2    0    0 -0.11826041887E+03  0.12064304898E+03 -0.26327668256E+03  0.32558189103E+03  0.90270062867E+02 0.  0.
          5    1    3    3  502    0  0.11601655561E+03 -0.43186289108E+02 -0.64421806863E+02  0.13961568086E+03  0.41800000000E+01 0. -1.
         -5    1    3    3    0  502  0.22438632538E+01 -0.77456759869E+02 -0.10385652740E+03  0.12964657826E+03  0.41800000000E+01 0. -1.
        -11    1    4    4    0    0 -0.52862273757E+02  0.90314669804E+02 -0.21413294583E+03  0.23833606118E+03  0.00000000000E+00 0.  1.
         11    1    4    4    0    0 -0.65398145108E+02  0.30328379173E+02 -0.49143736736E+02  0.87245829856E+02  0.00000000000E+00 0. -1.
</event>
<event>
 8    1  0.6597859E-009  0.1187332E+03  0.7561462E-02  0.1245202E+00
         -2   -1    0    0    0  501 -0.00000000000E+00  0.00000000000E+00  0.10231322040E+03  0.10231322040E+03  0.00000000000E+00 0.  1.
          2   -1    0    0  501    0  0.00000000000E+00 -0.00000000000E+00 -0.20266068056E+03  0.20266068056E+03  0.00000000000E+00 0. -1.
         25    2    1    2    0    0 -0.87156458513E+02  0.96272666885E+01 -0.16115575065E+02  0.15361015275E+03  0.12508970679E+03 0.  0.
         23    2    1    2    0    0  0.87156458513E+02 -0.96272666885E+01 -0.84231885096E+02  0.15136374821E+03  0.90150104173E+02 0.  0.
          5    1    3    3  502    0 -0.92299842393E+02 -0.14623645421E+02  0.32376164540E+02  0.98988889990E+02  0.41800000000E+01 0.  1.
         -5    1    3    3    0  502  0.51433838801E+01  0.24250912109E+02 -0.48491739605E+02  0.54621262762E+02  0.41800000000E+01 0.  1.
        -11    1    4    4    0    0  0.80710722820E+02  0.24266968467E+02 -0.35028661182E+02  0.91269456232E+02  0.00000000000E+00 0. -1.
         11    1    4    4    0    0  0.64457356931E+01 -0.33894235155E+02 -0.49203223914E+02  0.60094291983E+02  0.00000000000E+00 0.  1.
</event>
<event>
 8    1  0.6597859E-009  0.1164682E+03  0.7561462E-02  0.1249040E+00
          1   -1    0    0  501    0  0.00000000000E+00  0.00000000000E+00  0.35661477900E+03  0.35661477900E+03  0.00000000000E+00 0. -1.
         -1   -1    0    0    0  501 -0.00000000000E+00 -0.00000000000E+00 -0.38451161821E+02  0.38451161821E+02  0.00000000000E+00 0.  1.
         25    2    1    2    0    0  0.40431032423E+02 -0.13772356230E+02  0.20010582190E+03  0.23981938526E+03  0.12508657566E+03 0.  0.
         23    2    1    2    0    0 -0.40431032423E+02  0.13772356230E+02  0.11805779527E+03  0.15524655556E+03  0.91320883748E+02 0.  0.
          5    1    3    3  502    0  0.20042717915E+02 -0.69624910527E+02  0.10943454122E+03  0.13131157572E+03  0.41800000000E+01 0. -1.
         -5    1    3    3    0  502  0.20388314507E+02  0.55852554297E+02  0.90671280686E+02  0.10850780954E+03  0.41800000000E+01 0. -1.
        -11    1    4    4    0    0 -0.65808060214E+02 -0.92998480914E+01  0.75389057951E+02  0.10050222894E+03  0.00000000000E+00 0. -1.
         11    1    4    4    0    0  0.25377027791E+02  0.23072204321E+02  0.42668737323E+02  0.54744326615E+02  0.00000000000E+00 0.  1.
</event>
<event>
 8    1  0.6597859E-009  0.9379353E+02  0.7561462E-02  0.1293917E+00
         -1   -1    0    0    0  501 -0.00000000000E+00  0.00000000000E+00  0.99895664655E+02  0.99895664655E+02  0.00000000000E+00 0.  1.
          1   -1    0    0  501    0  0.00000000000E+00 -0.00000000000E+00 -0.21596578623E+03  0.21596578623E+03  0.00000000000E+00 0. -1.
         25    2    1    2    0    0  0.20354518276E+02  0.39558974134E+02  0.31411246733E+02  0.13642794115E+03  0.12508676132E+03 0.  0.
         23    2    1    2    0    0 -0.20354518276E+02 -0.39558974134E+02 -0.14748136831E+03  0.17943350973E+03  0.92013105412E+02 0.  0.
          5    1    3    3  502    0 -0.30382304270E+02  0.92030206774E+01 -0.34984035809E+02  0.47425047853E+02  0.41800000000E+01 0. -1.
         -5    1    3    3    0  502  0.50736822545E+02  0.30355953457E+02  0.66395282542E+02  0.89002893302E+02  0.41800000000E+01 0. -1.
        -11    1    4    4    0    0 -0.34396401344E+01 -0.65356512790E+02 -0.12554799795E+03  0.14158250131E+03  0.00000000000E+00 0. -1.
         11    1    4    4    0    0 -0.16914878141E+02  0.25797538656E+02 -0.21933370363E+02  0.37851008424E+02  0.00000000000E+00 0.  1.
</event>
<event>
 8    1  0.6597859E-009  0.9673602E+02  0.7561462E-02  0.1287313E+00
         -2   -1    0    0    0  501 -0.00000000000E+00  0.00000000000E+00  0.30157656732E+02  0.30157656732E+02  0.00000000000E+00 0.  1.
          2   -1    0    0  501    0  0.00000000000E+00 -0.00000000000E+00 -0.46200035779E+03  0.46200035779E+03  0.00000000000E+00 0. -1.
         25    2    1    2    0    0 -0.21820230319E+02  0.14478613080E+02 -0.31657614835E+03  0.34139994827E+03  0.12509082414E+03 0.  0.
         23    2    1    2    0    0  0.21820230319E+02 -0.14478613080E+02 -0.11526655270E+03  0.15075806625E+03  0.93572772106E+02 0.  0.
          5    1    3    3  502    0  0.45727071514E+02 -0.21814030314E+02 -0.11749105283E+03  0.12801733040E+03  0.41800000000E+01 0.  1.
         -5    1    3    3    0  502 -0.67547301834E+02  0.36292643394E+02 -0.19908509552E+03  0.21338261787E+03  0.41800000000E+01 0.  1.
        -11    1    4    4    0    0  0.14235957264E+01 -0.36094531625E+02 -0.48920776323E+01  0.36452356050E+02  0.00000000000E+00 0.  1.
         11    1    4    4    0    0  0.20396634593E+02  0.21615918545E+02 -0.11037447507E+03  0.11430571020E+03  0.00000000000E+00 0. -1.
</event>
<event>
 8    1  0.6597859E-009  0.1588259E+03  0.7561462E-02  0.1190029E+00
          1   -1    0    0  501    0  0.00000000000E+00  0.00000000000E+00  0.15411636564E+03  0.15411636564E+03  0.00000000000E+00 0. -1.
         -1   -1    0    0    0  501 -0.00000000000E+00 -0.00000000000E+00 -0.19397276347E+03  0.19397276347E+03  0.00000000000E+00 0.  1.
         25    2    1    2    0    0 -0.13297916390E+03 -0.15127578243E+02 -0.32728472751E+02  0.18609116606E+03  0.12508584054E+03 0.  0.
         23    2    1    2    0    0  0.13297916390E+03  0.15127578243E+02 -0.71279250865E+01  0.16199796304E+03  0.90995774947E+02 0.  0.
          5    1    3    3  502    0  0.23682264087E+02  0.65828888598E+01 -0.30678770317E+01  0.25121073375E+02  0.41800000000E+01 0. -1.
         -5    1    3    3    0  502 -0.15666142799E+03 -0.21710467103E+02 -0.29660595720E+02  0.16097009269E+03  0.41800000000E+01 0. -1.
        -11    1    4    4    0    0  0.63015097012E+02  0.13900628667E+02  0.41556496395E+02  0.76753321240E+02  0.00000000000E+00 0. -1.
         11    1    4    4    0    0  0.69964066892E+02  0.12269495769E+01 -0.48684421481E+02  0.85244641804E+02  0.00000000000E+00 0.  1.
</event>
<event>
 8    1  0.6597859E-009  0.1106821E+03  0.7561462E-02  0.1259312E+00
         -4   -1    0    0    0  501 -0.00000000000E+00  0.00000000000E+00  0.21376189355E+02  0.21376189355E+02  0.00000000000E+00 0.  1.
          4   -1    0    0  501    0  0.00000000000E+00 -0.00000000000E+00 -0.63390249439E+03  0.63390249439E+03  0.00000000000E+00 0. -1.
         25    2    1    2    0    0  0.27070191942E+02  0.16041655653E+02 -0.27237387744E+03  0.30137310399E+03  0.12509232067E+03 0.  0.
         23    2    1    2    0    0 -0.27070191942E+02 -0.16041655653E+02 -0.34015242760E+03  0.35390557976E+03  0.92495164051E+02 0.  0.
          5    1    3    3  502    0 -0.53753797959E+01 -0.52532914446E+02 -0.10826795312E+03  0.12053225245E+03  0.41800000000E+01 0. -1.
         -5    1    3    3    0  502  0.32445571738E+02  0.68574570099E+02 -0.16410592431E+03  0.18084085154E+03  0.41800000000E+01 0. -1.
        -11    1    4    4    0    0 -0.62539691903E+01  0.35908097028E+02 -0.81675742679E+02  0.89439535469E+02  0.00000000000E+00 0.  1.
         11    1    4    4    0    0 -0.20816222752E+02 -0.51949752681E+02 -0.25847668492E+03  0.26446604429E+03  0.00000000000E+00 0. -1.
</event>
<event>
 8    1  0.6597859E-009  0.8910175E+02  0.7561462E-02  0.1305042E+00
          1   -1    0    0  501    0  0.00000000000E+00  0.00000000000E+00  0.12597226926E+04  0.12597226926E+04  0.00000000000E+00 0. -1.
         -1   -1    0    0    0  501 -0.00000000000E+00 -0.00000000000E+00 -0.14674116665E+02  0.14674116665E+02  0.00000000000E+00 0.  1.
         25    2    1    2    0    0 -0.17044806173E+02  0.50106772586E+02  0.97509192378E+03  0.98450724310E+03  0.12509611434E+03 0.  0.
         23    2    1    2    0    0  0.17044806173E+02 -0.50106772586E+02  0.26995665218E+03  0.28988956619E+03  0.91422931764E+02 0.  0.
          5    1    3    3  502    0  0.20659513664E+02  0.21147090895E+02  0.85145885813E+03  0.85198220313E+03  0.41800000000E+01 0. -1.
         -5    1    3    3    0  502 -0.37704319836E+02  0.28959681691E+02  0.12363306564E+03  0.13252503997E+03  0.41800000000E+01 0. -1.
        -11    1    4    4    0    0 -0.35066074671E+02 -0.18058920474E+02  0.15172493862E+03  0.15676801715E+03  0.00000000000E+00 0.  1.
         11    1    4    4    0    0  0.52110880844E+02 -0.32047852112E+02  0.11823171356E+03  0.13312154904E+03  0.00000000000E+00 0. -1.
</event>
<event>
 8    1  0.6597859E-009  0.3031894E+03  0.7561462E-02  0.1083657E+00
         -1   -1    0    0    0  501 -0.00000000000E+00  0.00000000000E+00  0.13870820605E+03  0.13870820605E+03  0.00000000000E+00 0.  1.
          1   -1    0    0  501    0  0.00000000000E+00 -0.00000000000E+00 -0.71453171791E+03  0.71453171791E+03  0.00000000000E+00 0. -1.
         25    2    1    2    0    0 -0.17203822082E+03 -0.24008724425E+03 -0.29718938531E+03  0.43727325771E+03  0.12508931567E+03 0.  0.
         23    2    1    2    0    0  0.17203822082E+03  0.24008724425E+03 -0.27863412655E+03  0.41596666624E+03  0.90289848096E+02 0.  0.
          5    1    3    3  502    0 -0.16365460595E+03 -0.24020761097E+03 -0.30763042355E+03  0.42324517281E+03  0.41800000000E+01 0. -1.
         -5    1    3    3    0  502 -0.83836148770E+01  0.12036672299E+00  0.10441038237E+02  0.14028084902E+02  0.41800000000E+01 0. -1.
        -11    1    4    4    0    0  0.46398701042E+02  0.15391580386E+02 -0.26407013358E+02  0.55561412506E+02  0.00000000000E+00 0.  1.
         11    1    4    4    0    0  0.12563951978E+03  0.22469566386E+03 -0.25222711320E+03  0.36040525374E+03  0.00000000000E+00 0. -1.
</event>
<event>
 8    1  0.6597859E-009  0.8701248E+02  0.7561462E-02  0.1310252E+00
          1   -1    0    0  501    0  0.00000000000E+00  0.00000000000E+00  0.60944534723E+02  0.60944534723E+02  0.00000000000E+00 0. -1.
         -1   -1    0    0    0  501 -0.00000000000E+00 -0.00000000000E+00 -0.21434058069E+03  0.21434058069E+03  0.00000000000E+00 0.  1.
         25    2    1    2    0    0 -0.35012954227E+02  0.91179150977E+01 -0.93494243640E+02  0.16030468414E+03  0.12508946728E+03 0.  0.
         23    2    1    2    0    0  0.35012954227E+02 -0.91179150977E+01 -0.59901802323E+02  0.11498043127E+03  0.91231739617E+02 0.  0.
          5    1    3    3  502    0  0.24879216930E+02  0.54753555932E+01 -0.96684801648E+02  0.10007186530E+03  0.41800000000E+01 0. -1.
         -5    1    3    3    0  502 -0.59892171157E+02  0.36425595046E+01  0.31905580087E+01  0.60232818845E+02  0.41800000000E+01 0. -1.
        -11    1    4    4    0    0  0.11088260994E+02 -0.44215813595E+02 -0.56170643382E+02  0.72340368272E+02  0.00000000000E+00 0.  1.
         11    1    4    4    0    0  0.23924693233E+02  0.35097898498E+02 -0.37311589404E+01  0.42640062996E+02  0.00000000000E+00 0. -1.
</event>
<event>
 8    1  0.6597859E-009  0.1363412E+03  0.7561462E-02  0.1218339E+00
         -1   -1    0    0    0  501 -0.00000000000E+00  0.00000000000E+00  0.26581293024E+02  0.26581293024E+02  0.00000000000E+00 0. -1.
          1   -1    0    0  501    0  0.00000000000E+00 -0.00000000000E+00 -0.91170498621E+03  0.91170498621E+03  0.00000000000E+00 0.  1.
         25    2    1    2    0    0  0.97837203307E+02  0.50555251758E+02 -0.53414956104E+03  0.55954564890E+03  0.12509047851E+03 0.  0.
         23    2    1    2    0    0 -0.97837203307E+02 -0.50555251758E+02 -0.35097413214E+03  0.37874063033E+03  0.90186871535E+02 0.  0.
          5    1    3    3  502    0 -0.88638634647E+01  0.52749897688E+02 -0.25673056084E+03  0.26227690148E+03  0.41800000000E+01 0. -1.
         -5    1    3    3    0  502  0.10670106677E+03 -0.21946459298E+01 -0.27741900020E+03  0.29726874742E+03  0.41800000000E+01 0. -1.
        -11    1    4    4    0    0 -0.47871800500E+02 -0.36853525411E+02 -0.30012937644E+03  0.30614952919E+03  0.00000000000E+00 0.  1.
         11    1    4    4    0    0 -0.49965402807E+02 -0.13701726348E+02 -0.50844755699E+02  0.72591101139E+02  0.00000000000E+00 0. -1.
</event>
<event>
 8    1  0.6597859E-009  0.1147737E+03  0.7561462E-02  0.1251977E+00
          1   -1    0    0  501    0  0.00000000000E+00  0.00000000000E+00  0.28842675009E+03  0.28842675009E+03  0.00000000000E+00 0. -1.
         -1   -1    0    0    0  501 -0.00000000000E+00 -0.00000000000E+00 -0.62063208754E+02  0.62063208754E+02  0.00000000000E+00 0.  1.
         25    2    1    2    0    0  0.49774737159E+02  0.49517631056E+02  0.17049626554E+03  0.22281645044E+03  0.12509465927E+03 0.  0.
         23    2    1    2    0    0 -0.49774737159E+02 -0.49517631056E+02  0.55867275801E+02  0.12767350841E+03  0.90828695905E+02 0.  0.
          5    1    3    3  502    0  0.64252045957E+02  0.80811231119E+02  0.15105403639E+03  0.18301249901E+03  0.41800000000E+01 0. -1.
         -5    1    3    3    0  502 -0.14477308798E+02 -0.31293600063E+02  0.19442229149E+02  0.39803951427E+02  0.41800000000E+01 0. -1.
        -11    1    4    4    0    0  0.58936537877E+01 -0.32856106583E+02  0.60795381365E+02  0.69356595145E+02  0.00000000000E+00 0. -1.
         11    1    4    4    0    0 -0.55668390946E+02 -0.16661524473E+02 -0.49281055642E+01  0.58316913265E+02  0.00000000000E+00 0.  1.
</event>
<event>
 8    1  0.6597859E-009  0.9176838E+02  0.7561462E-02  0.1298625E+00
         -2   -1    0    0    0  501 -0.00000000000E+00  0.00000000000E+00  0.40080414802E+02  0.40080414802E+02  0.00000000000E+00 0.  1.
          2   -1    0    0  501    0  0.00000000000E+00 -0.00000000000E+00 -0.32650901107E+03  0.32650901107E+03  0.00000000000E+00 0. -1.
         25    2    1    2    0    0 -0.17406108760E+02  0.29372658593E+02 -0.18471242043E+03  0.22568152991E+03  0.12509096284E+03 0.  0.
         23    2    1    2    0    0  0.17406108760E+02 -0.29372658593E+02 -0.10171617583E+03  0.14090789596E+03  0.91340730363E+02 0.  0.
          5    1    3    3  502    0  0.25778532845E+02  0.66632496533E+02 -0.11578414680E+03  0.13611709445E+03  0.41800000000E+01 0.  1.
         -5    1    3    3    0  502 -0.43184641605E+02 -0.37259837940E+02 -0.68928273633E+02  0.89564435464E+02  0.41800000000E+01 0.  1.
        -11    1    4    4    0    0  0.27923513221E+02 -0.51804861493E+01  0.68237938729E+01  0.29208289751E+02  0.00000000000E+00 0.  1.
         11    1    4    4    0    0 -0.10517404460E+02 -0.24192172443E+02 -0.10853996970E+03  0.11169960621E+03  0.00000000000E+00 0. -1.
</event>
<event>
 7    1  0.6597859E-009  0.1465020E+03  0.7561462E-02  0.1204838E+00
          1   -1    0    0  501    0  0.00000000000E+00  0.00000000000E+00  0.67893257480E+03  0.67893257480E+03  0.00000000000E+00 0. -1.
         -1   -1    0    0    0  501 -0.00000000000E+00 -0.00000000000E+00 -0.56690512257E+02  0.56690512257E+02  0.00000000000E+00 0.  1.
         23    2    1    2    0    0  0.10100491189E+03 -0.60007754582E+02  0.10412486354E+03  0.19014482248E+03  0.10728533672E+03 0.  0.
          5    1    1    2  502    0  0.25574811098E+01 -0.31370151162E+02  0.11685941567E+03  0.12109592282E+03  0.41800000000E+01 0. -1.
         -5    1    1    2    0  502 -0.10356239300E+03  0.91377905744E+02  0.40125778334E+03  0.42438234175E+03  0.41800000000E+01 0. -1.
        -11    1    3    3    0    0  0.30640338085E+02 -0.39094430309E+02  0.10562671622E+03  0.11672278261E+03  0.00000000000E+00 0. -1.
         11    1    3    3    0    0  0.70364573800E+02 -0.20913324273E+02 -0.15018526876E+01  0.73422039877E+02  0.00000000000E+00 0.  1.
</event>
<event>
 8    1  0.6597859E-009  0.1053665E+03  0.7561462E-02  0.1269399E+00
         -1   -1    0    0    0  501 -0.00000000000E+00  0.00000000000E+00  0.87522615160E+02  0.87522615160E+02  0.00000000000E+00 0.  1.
          1   -1    0    0  501    0  0.00000000000E+00 -0.00000000000E+00 -0.16759682878E+03  0.16759682878E+03  0.00000000000E+00 0. -1.
         25    2    1    2    0    0  0.63403652499E+01  0.17055012539E+01  0.12361787837E+02  0.12586159094E+03  0.12508084310E+03 0.  0.
         23    2    1    2    0    0 -0.63403652499E+01 -0.17055012539E+01 -0.92436001453E+02  0.12925785300E+03  0.90111426748E+02 0.  0.
          5    1    3    3  502    0  0.64825544692E+02  0.40179504496E+01  0.16154534432E+02  0.67059201853E+02  0.41800000000E+01 0.  1.
         -5    1    3    3    0  502 -0.58485179442E+02 -0.23124491956E+01 -0.37927465950E+01  0.58802389087E+02  0.41800000000E+01 0.  1.
        -11    1    4    4    0    0  0.32736178008E+02 -0.25254018953E+02 -0.26614978702E+02  0.49170925507E+02  0.00000000000E+00 0. -1.
         11    1    4    4    0    0 -0.39076543258E+02  0.23548517699E+02 -0.65821022751E+02  0.80086927490E+02  0.00000000000E+00 0.  1.
</event>
<event>
 8    1  0.6597859E-009  0.1022147E+03  0.7561462E-02  0.1275706E+00
         -1   -1    0    0    0  501 -0.00000000000E+00  0.00000000000E+00  0.12041250926E+03  0.12041250926E+03  0.00000000000E+00 0.  1.
          1   -1    0    0  501    0  0.00000000000E+00 -0.00000000000E+00 -0.14118673405E+03  0.14118673405E+03  0.00000000000E+00 0. -1.
         25    2    1    2    0    0  0.32357505905E+02 -0.59788444864E+02 -0.82205696704E+01  0.14260724174E+03  0.12509029260E+03 0.  0.
         23    2    1    2    0    0 -0.32357505905E+02  0.59788444864E+02 -0.12553655122E+02  0.11899200156E+03  0.96849552664E+02 0.  0.
          5    1    3    3  502    0 -0.86166875269E+01 -0.53707008433E+02 -0.56714182309E+02  0.78693461823E+02  0.41800000000E+01 0.  1.
         -5    1    3    3    0  502  0.40974193432E+02 -0.60814364306E+01  0.48493612638E+02  0.63913779916E+02  0.41800000000E+01 0.  1.
        -11    1    4    4    0    0 -0.32383711622E+01  0.75217769512E+02  0.14114228252E+02  0.76599029611E+02  0.00000000000E+00 0.  1.
         11    1    4    4    0    0 -0.29119134743E+02 -0.15429324648E+02 -0.26667883373E+02  0.42392971952E+02  0.00000000000E+00 0. -1.
</event>
<event>
 8    1  0.6597859E-009  0.1138328E+03  0.7561462E-02  0.1253632E+00
          1   -1    0    0  501    0  0.00000000000E+00  0.00000000000E+00  0.22247199635E+03  0.22247199635E+03  0.00000000000E+00 0. -1.
         -1   -1    0    0    0  501 -0.00000000000E+00 -0.00000000000E+00 -0.12415075349E+03  0.12415075349E+03  0.00000000000E+00 0.  1.
         25    2    1    2    0    0 -0.73046067171E+02 -0.62816915586E+02 -0.32680631850E+02  0.16119911042E+03  0.12504173978E+03 0.  0.
         23    2    1    2    0    0  0.73046067171E+02  0.62816915586E+02  0.13100187470E+03  0.18542363942E+03  0.89099618788E+02 0.  0.
          5    1    3    3  502    0  0.34361578225E+01  0.11122778852E+02  0.33590832227E+02  0.35795807012E+02  0.41800000000E+01 0.  1.
         -5    1    3    3    0  502 -0.76482224993E+02 -0.73939694438E+02 -0.66271464077E+02  0.12540330340E+03  0.41800000000E+01 0.  1.
        -11    1    4    4    0    0  0.50331931371E+02  0.68894673492E+02  0.45394680759E+02  0.96646036609E+02  0.00000000000E+00 0.  1.
         11    1    4    4    0    0  0.22714135800E+02 -0.60777579055E+01  0.85607193945E+02  0.88777602814E+02  0.00000000000E+00 0. -1.
</event>
<event>
 8    1  0.6597859E-009  0.2882343E+03  0.7561462E-02  0.1091275E+00
          2   -1    0    0  501    0  0.00000000000E+00  0.00000000000E+00  0.21702793900E+03  0.21702793900E+03  0.00000000000E+00 0. -1.
         -2   -1    0    0    0  501 -0.00000000000E+00 -0.00000000000E+00 -0.41887397147E+03  0.41887397147E+03  0.00000000000E+00 0.  1.
         25    2    1    2    0    0  0.27885282911E+03 -0.36149693715E+02 -0.10601528974E+03  0.32550382220E+03  0.12509115055E+03 0.  0.
         23    2    1    2    0    0 -0.27885282911E+03  0.36149693715E+02 -0.95830742727E+02  0.31039808828E+03  0.89987450770E+02 0.  0.
          5    1    3    3  502    0  0.15153549630E+03 -0.13783465434E+02 -0.12214649507E+03  0.19516718273E+03  0.41800000000E+01 0. -1.
         -5    1    3    3    0  502  0.12731733281E+03 -0.22366228280E+02  0.16131205327E+02  0.13033663946E+03  0.41800000000E+01 0. -1.
        -11    1    4    4    0    0 -0.20262388079E+03  0.65923740400E+02 -0.75652146600E+02  0.22610976073E+03  0.00000000000E+00 0.  1.
         11    1    4    4    0    0 -0.76228948320E+02 -0.29774046686E+02 -0.20178596127E+02  0.84288327541E+02  0.00000000000E+00 0. -1.
</event>
<event>
 8    1  0.6597859E-009  0.9432182E+02  0.7561462E-02  0.1292711E+00
          2   -1    0    0  501    0  0.00000000000E+00  0.00000000000E+00  0.12034324686E+03  0.12034324686E+03  0.00000000000E+00 0. -1.
         -2   -1    0    0    0  501 -0.00000000000E+00 -0.00000000000E+00 -0.11125251816E+03  0.11125251816E+03  0.00000000000E+00 0.  1.
         25    2    1    2    0    0 -0.20388210923E+02 -0.31023209880E+02 -0.12996052536E+02  0.13112796051E+03  0.12509007135E+03 0.  0.
         23    2    1    2    0    0  0.20388210923E+02  0.31023209880E+02  0.22086781240E+02  0.10046780451E+03  0.90707415035E+02 0.  0.
          5    1    3    3  502    0 -0.31405082409E+02 -0.71025804940E+02  0.17188387208E+02  0.79648334718E+02  0.41800000000E+01 0. -1.
         -5    1    3    3    0  502  0.11016871486E+02  0.40002595060E+02 -0.30184439744E+02  0.51479625791E+02  0.41800000000E+01 0. -1.
        -11    1    4    4    0    0  0.37109965225E+02  0.36021355888E+02 -0.19575079504E+02  0.55298022899E+02  0.00000000000E+00 0.  1.
         11    1    4    4    0    0 -0.16721754302E+02 -0.49981460074E+01  0.41661860744E+02  0.45169781615E+02  0.00000000000E+00 0. -1.
</event>
<event>
 8    1  0.6597859E-009  0.9127745E+02  0.7561462E-02  0.1299787E+00
          2   -1    0    0  501    0  0.00000000000E+00  0.00000000000E+00  0.48702511979E+03  0.48702511979E+03  0.00000000000E+00 0. -1.
         -2   -1    0    0    0  501 -0.00000000000E+00 -0.00000000000E+00 -0.35373681688E+02  0.35373681688E+02  0.00000000000E+00 0.  1.
         25    2    1    2    0    0 -0.26213303202E+02  0.32275289837E+02  0.37259109712E+03  0.39522210025E+03  0.12509017260E+03 0.  0.
         23    2    1    2    0    0  0.26213303202E+02 -0.32275289837E+02  0.79060340986E+02  0.12717670122E+03  0.90523721855E+02 0.  0.
          5    1    3    3  502    0  0.55494813075E+01  0.47279364119E+02  0.44720953524E+02  0.65448996160E+02  0.41800000000E+01 0. -1.
         -5    1    3    3    0  502 -0.31762784510E+02 -0.15004074282E+02  0.32787014359E+03  0.32977310409E+03  0.41800000000E+01 0. -1.
        -11    1    4    4    0    0  0.23838867599E+02  0.29298803053E+02  0.25945840695E+02  0.45824645313E+02  0.00000000000E+00 0. -1.
         11    1    4    4    0    0  0.23744356027E+01 -0.61574092890E+02  0.53114500291E+02  0.81352055911E+02  0.00000000000E+00 0.  1.
</event>
<event>
 8    1  0.6597859E-009  0.9112930E+02  0.7561462E-02  0.1300140E+00
         -2   -1    0    0    0  501 -0.00000000000E+00  0.00000000000E+00  0.45402202744E+02  0.45402202744E+02  0.00000000000E+00 0.  1.
          2   -1    0    0  501    0  0.00000000000E+00 -0.00000000000E+00 -0.28290698349E+03  0.28290698349E+03  0.00000000000E+00 0. -1.
         25    2    1    2    0    0  0.11921106306E+02 -0.24052038197E+02 -0.12808759745E+03  0.18103765155E+03  0.12509030873E+03 0.  0.
         23    2    1    2    0    0 -0.11921106306E+02  0.24052038197E+02 -0.10941718329E+03  0.14727153469E+03  0.94848150291E+02 0.  0.
          5    1    3    3  502    0  0.48981552114E+02  0.18545706895E+01 -0.12635544809E+03  0.13559426073E+03  0.41800000000E+01 0.  1.
         -5    1    3    3    0  502 -0.37060445808E+02 -0.25906608886E+02 -0.17321493626E+01  0.45443390816E+02  0.41800000000E+01 0.  1.
        -11    1    4    4    0    0 -0.37859123412E+02  0.41668444951E+02 -0.34428452339E+02  0.65991596894E+02  0.00000000000E+00 0.  1.
         11    1    4    4    0    0  0.25938017105E+02 -0.17616406754E+02 -0.74988730953E+02  0.81279937797E+02  0.00000000000E+00 0. -1.
</event>
<event>
 8    1  0.6597859E-009  0.9504934E+02  0.7561462E-02  0.1291065E+00
         -2   -1    0    0    0  501 -0.00000000000E+00  0.00000000000E+00  0.44909055436E+02  0.44909055436E+02  0.00000000000E+00 0.  1.
          2   -1    0    0  501    0  0.00000000000E+00 -0.00000000000E+00 -0.44015386956E+03  0.44015386956E+03  0.00000000000E+00 0. -1.
         25    2    1    2    0    0  0.40810929004E+02  0.77932271075E+02 -0.15877556252E+03  0.22044450686E+03  0.12508849089E+03 0.  0.
         23    2    1    2    0    0 -0.40810929004E+02 -0.77932271075E+02 -0.23646925160E+03  0.26461841813E+03  0.79788654951E+02 0.  0.
          5    1    3    3  502    0  0.19190590148E+02  0.60115454936E+02 -0.42947097672E+01  0.63388197674E+02  0.41800000000E+01 0.  1.
         -5    1    3    3    0  502  0.21620338856E+02  0.17816816139E+02 -0.15448085275E+03  0.15705630919E+03  0.41800000000E+01 0.  1.
        -11    1    4    4    0    0 -0.82495981262E+01 -0.61512548162E+02 -0.67239360759E+02  0.91503994918E+02  0.00000000000E+00 0.  1.
         11    1    4    4    0    0 -0.32561330878E+02 -0.16419722913E+02 -0.16922989084E+03  0.17311442321E+03  0.00000000000E+00 0. -1.
</event>
<event>
 8    1  0.6597859E-009  0.1323137E+03  0.7561462E-02  0.1224062E+00
          2   -1    0    0  501    0  0.00000000000E+00  0.00000000000E+00  0.60682946176E+03  0.60682946176E+03  0.00000000000E+00 0. -1.
         -2   -1    0    0    0  501 -0.00000000000E+00 -0.00000000000E+00 -0.33286915215E+02  0.33286915215E+02  0.00000000000E+00 0.  1.
         25    2    1    2    0    0  0.86097915087E+02 -0.21251978724E+01  0.33212383101E+03  0.36520142888E+03  0.12509387309E+03 0.  0.
         23    2    1    2    0    0 -0.86097915087E+02  0.21251978724E+01  0.24141871554E+03  0.27491494810E+03  0.99387449040E+02 0.  0.
          5    1    3    3  502    0  0.11592393822E+03  0.15152010553E+02  0.24868189700E+03  0.27482376384E+03  0.41800000000E+01 0. -1.
         -5    1    3    3    0  502 -0.29826023132E+02 -0.17277208425E+02  0.83441934011E+02  0.90377665042E+02  0.41800000000E+01 0. -1.
        -11    1    4    4    0    0 -0.65768305291E+02  0.34823372889E+02  0.21679378471E+03  0.22921099966E+03  0.00000000000E+00 0. -1.
         11    1    4    4    0    0 -0.20329609797E+02 -0.32698175017E+02  0.24624930836E+02  0.45703948435E+02  0.00000000000E+00 0.  1.
</event>
<event>
 8    1  0.6597859E-009  0.1587928E+03  0.7561462E-02  0.1190066E+00
         -2   -1    0    0    0  501 -0.00000000000E+00  0.00000000000E+00  0.22837008689E+03  0.22837008689E+03  0.00000000000E+00 0. -1.
          2   -1    0    0  501    0  0.00000000000E+00 -0.00000000000E+00 -0.21648835941E+03  0.21648835941E+03  0.00000000000E+00 0.  1.
         25    2    1    2    0    0  0.53334676215E+02  0.14423600955E+03  0.12212189512E+03  0.23282967481E+03  0.12508911251E+03 0.  0.
         23    2    1    2    0    0 -0.53334676215E+02 -0.14423600955E+03 -0.11024016764E+03  0.21202877149E+03  0.95680150708E+02 0.  0.
          5    1    3    3  502    0  0.23017186530E+02  0.12481723201E+03  0.25354398655E+02  0.12949691199E+03  0.41800000000E+01 0. -1.
         -5    1    3    3    0  502  0.30317489685E+02  0.19418777534E+02  0.96767496460E+02  0.10333276282E+03  0.41800000000E+01 0. -1.
        -11    1    4    4    0    0 -0.31519533410E+01 -0.21832402687E+02 -0.70540714055E+02  0.73909275171E+02  0.00000000000E+00 0.  1.
         11    1    4    4    0    0 -0.50182722874E+02 -0.12240360686E+03 -0.39699453588E+02  0.13811949632E+03  0.00000000000E+00 0. -1.
</event>
<event>
 8    1  0.6597859E-009  0.1119752E+03  0.7561462E-02  0.1256955E+00
         -2   -1    0    0    0  501 -0.00000000000E+00  0.00000000000E+00  0.67981005155E+02  0.67981005155E+02  0.00000000000E+00 0.  1.
          2   -1    0    0  501    0  0.00000000000E+00 -0.00000000000E+00 -0.35710998910E+03  0.35710998910E+03  0.00000000000E+00 0. -1.
         25    2    1    2    0    0 -0.69129354974E+02  0.44283258034E+02 -0.25955024849E+03  0.29958903442E+03  0.12508950153E+03 0.  0.
         23    2    1    2    0    0  0.69129354974E+02 -0.44283258034E+02 -0.29578735461E+02  0.12550195984E+03  0.90199587973E+02 0.  0.
          5    1    3    3  502    0 -0.69187182875E+02  0.60781398603E+02 -0.26589684879E+03  0.28142468137E+03  0.41800000000E+01 0. -1.
         -5    1    3    3    0  502  0.57827900642E-01 -0.16498140569E+02  0.63466002994E+01  0.18164353048E+02  0.41800000000E+01 0. -1.
        -11    1    4    4    0    0  0.39105001662E+02 -0.66669000547E+02  0.77424231462E+00  0.77295253671E+02  0.00000000000E+00 0.  1.
         11    1    4    4    0    0  0.30024353312E+02  0.22385742513E+02 -0.30352977776E+02  0.48206706167E+02  0.00000000000E+00 0. -1.
</event>
<event>
 8    1  0.6597859E-009  0.2886581E+03  0.7561462E-02  0.1091052E+00
          1   -1    0    0  501    0  0.00000000000E+00  0.00000000000E+00  0.20341764812E+03  0.20341764812E+03  0.00000000000E+00 0. -1.
         -1   -1    0    0    0  501 -0.00000000000E+00 -0.00000000000E+00 -0.52288870322E+03  0.52288870322E+03  0.00000000000E+00 0.  1.
         25    2    1    2    0    0  0.26976260993E+03  0.78221150463E+02 -0.23892828270E+02  0.30839806632E+03  0.12509230982E+03 0.  0.
         23    2    1    2    0    0 -0.26976260993E+03 -0.78221150463E+02 -0.29557822683E+03  0.41790828502E+03  0.91599303605E+02 0.  0.
          5    1    3    3  502    0  0.18267696381E+03  0.24673149201E+02  0.38773027278E+02  0.18841565074E+03  0.41800000000E+01 0. -1.
         -5    1    3    3    0  502  0.87085646117E+02  0.53548001263E+02 -0.62665855548E+02  0.11998241559E+03  0.41800000000E+01 0. -1.
        -11    1    4    4    0    0 -0.44295267300E+02 -0.44237571926E+02 -0.35254828527E+02  0.71846617245E+02  0.00000000000E+00 0. -1.
         11    1    4    4    0    0 -0.22546734263E+03 -0.33983578537E+02 -0.26032339830E+03  0.34606166778E+03  0.00000000000E+00 0.  1.
</event>
<event>
 8    1  0.6597859E-009  0.7780708E+02  0.7561462E-02  0.1335392E+00
          1   -1    0    0  501    0  0.00000000000E+00  0.00000000000E+00  0.11287422945E+03  0.11287422945E+03  0.00000000000E+00 0. -1.
         -1   -1    0    0    0  501 -0.00000000000E+00 -0.00000000000E+00 -0.12807481033E+03  0.12807481033E+03  0.00000000000E+00 0.  1.
         25    2    1    2    0    0  0.35995169374E+02  0.67721578995E+01 -0.45786154062E+02  0.13815722857E+03  0.12509809576E+03 0.  0.
         23    2    1    2    0    0 -0.35995169374E+02 -0.67721578995E+01  0.30585573188E+02  0.10279181121E+03  0.91044850618E+02 0.  0.
          5    1    3    3  502    0  0.33721912915E+01  0.21037822259E+02  0.39815868342E+02  0.45351266920E+02  0.41800000000E+01 0. -1.
         -5    1    3    3    0  502  0.32622978082E+02 -0.14265664359E+02 -0.85602022403E+02  0.92805961652E+02  0.41800000000E+01 0. -1.
        -11    1    4    4    0    0 -0.11945278674E+02  0.42003396553E+02  0.15746081900E+02  0.46421052334E+02  0.00000000000E+00 0.  1.
         11    1    4    4    0    0 -0.24049890700E+02 -0.48775554452E+02  0.14839491288E+02  0.56370758878E+02  0.00000000000E+00 0. -1.
</event>
<event>
 8    1  0.6597859E-009  0.1845578E+03  0.7561462E-02  0.1163463E+00
         -1   -1    0    0    0  501 -0.00000000000E+00  0.00000000000E+00  0.22991778356E+03  0.22991778356E+03  0.00000000000E+00 0.  1.
          1   -1    0    0  501    0  0.00000000000E+00 -0.00000000000E+00 -0.18698466473E+03  0.18698466473E+03  0.00000000000E+00 0. -1.
         25    2    1    2    0    0  0.51592437749E+02  0.15583594055E+03 -0.42542554291E+02  0.21072837711E+03  0.12509980013E+03 0.  0.
         23    2    1    2    0    0 -0.51592437749E+02 -0.15583594055E+03  0.85475673117E+02  0.20617407118E+03  0.90857233800E+02 0.  0.
          5    1    3    3  502    0 -0.10024795526E+02  0.13541081964E+03 -0.56879872619E+01  0.13596474616E+03  0.41800000000E+01 0. -1.
         -5    1    3    3    0  502  0.61617233276E+02  0.20425120909E+02 -0.36854567029E+02  0.74763630942E+02  0.41800000000E+01 0. -1.
        -11    1    4    4    0    0 -0.21307457682E+02 -0.20605677883E+02  0.57656277514E+02  0.64829376448E+02  0.00000000000E+00 0.  1.
         11    1    4    4    0    0 -0.30284980068E+02 -0.13523026266E+03  0.27819395603E+02  0.14134469473E+03  0.00000000000E+00 0. -1.
</event>
<event>
 8    1  0.6597859E-009  0.7633602E+02  0.7561462E-02  0.1339783E+00
          1   -1    0    0  501    0  0.00000000000E+00  0.00000000000E+00  0.18647258833E+03  0.18647258833E+03  0.00000000000E+00 0. -1.
         -1   -1    0    0    0  501 -0.00000000000E+00 -0.00000000000E+00 -0.65370034066E+02  0.65370034066E+02  0.00000000000E+00 0.  1.
         25    2    1    2    0    0 -0.32795987126E+01  0.19442184992E+02  0.78130666980E+02  0.14879928134E+03  0.12509224868E+03 0.  0.
         23    2    1    2    0    0  0.32795987126E+01 -0.19442184992E+02  0.42971887288E+02  0.10304334106E+03  0.91556500119E+02 0.  0.
          5    1    3    3  502    0 -0.38903744142E+02 -0.21805993964E+02 -0.92413039053E+01  0.45737039463E+02  0.41800000000E+01 0.  1.
         -5    1    3    3    0  502  0.35624145429E+02  0.41248178956E+02  0.87371970886E+02  0.10306224188E+03  0.41800000000E+01 0.  1.
        -11    1    4    4    0    0  0.25297577511E+02 -0.24737359205E+01  0.63558361427E+02  0.68452553674E+02  0.00000000000E+00 0. -1.
         11    1    4    4    0    0 -0.22017978798E+02 -0.16968449072E+02 -0.20586474139E+02  0.34590787382E+02  0.00000000000E+00 0.  1.
</event>
<event>
 8    1  0.6597859E-009  0.1252494E+03  0.7561462E-02  0.1234680E+00
          2   -1    0    0  501    0  0.00000000000E+00  0.00000000000E+00  0.24232623403E+03  0.24232623403E+03  0.00000000000E+00 0.  1.
         -2   -1    0    0    0  501 -0.00000000000E+00 -0.00000000000E+00 -0.70457521094E+02  0.70457521094E+02  0.00000000000E+00 0. -1.
         25    2    1    2    0    0  0.50549513319E+01 -0.71140390996E+02  0.81277883768E+02  0.16534813981E+03  0.12508958863E+03 0.  0.
         23    2    1    2    0    0 -0.50549513319E+01  0.71140390996E+02  0.90590829163E+02  0.14743561531E+03  0.91891536989E+02 0.  0.
          5    1    3    3  502    0 -0.69196325388E+01 -0.10247478539E+03  0.36152197287E+02  0.10896520878E+03  0.41800000000E+01 0.  1.
         -5    1    3    3    0  502  0.11974583871E+02  0.31334394395E+02  0.45125686481E+02  0.56382931028E+02  0.41800000000E+01 0.  1.
        -11    1    4    4    0    0  0.19089313334E+02  0.84279180720E+02  0.80659399438E+02  0.11820880214E+03  0.00000000000E+00 0.  1.
         11    1    4    4    0    0 -0.24144264666E+02 -0.13138789724E+02  0.99314297254E+01  0.29226813170E+02  0.00000000000E+00 0. -1.
</event>
<event>
 8    1  0.6597859E-009  0.5600586E+02  0.7561462E-02  0.1415401E+00
         -2   -1    0    0    0  501 -0.00000000000E+00  0.00000000000E+00  0.35262997836E+02  0.35262997836E+02  0.00000000000E+00 0. -1.
          2   -1    0    0  501    0  0.00000000000E+00 -0.00000000000E+00 -0.34405698678E+03  0.34405698678E+03  0.00000000000E+00 0.  1.
         25    2    1    2    0    0 -0.24710008570E+01 -0.17399956554E+02 -0.20559098499E+03  0.24129795035E+03  0.12509269922E+03 0.  0.
         23    2    1    2    0    0  0.24710008570E+01  0.17399956554E+02 -0.10320300395E+03  0.13802203427E+03  0.89946415081E+02 0.  0.
          5    1    3    3  502    0 -0.14850229255E+02 -0.31715485451E+02 -0.47856269910E+00  0.35271840731E+02  0.41800000000E+01 0. -1.
         -5    1    3    3    0  502  0.12379228398E+02  0.14315528897E+02 -0.20511242229E+03  0.20602610961E+03  0.41800000000E+01 0. -1.
        -11    1    4    4    0    0  0.18542430424E+02  0.31123161431E+02 -0.11000822789E+03  0.11582004622E+03  0.00000000000E+00 0.  1.
         11    1    4    4    0    0 -0.16071429567E+02 -0.13723204877E+02  0.68052239384E+01  0.22201988048E+02  0.00000000000E+00 0. -1.
</event>
<event>
 8    1  0.6597859E-009  0.1656902E+03  0.7561462E-02  0.1182418E+00
          1   -1    0    0  501    0  0.00000000000E+00  0.00000000000E+00  0.15081452904E+03  0.15081452904E+03  0.00000000000E+00 0. -1.
         -1   -1    0    0    0  501 -0.00000000000E+00 -0.00000000000E+00 -0.22052959002E+03  0.22052959002E+03  0.00000000000E+00 0.  1.
         25    2    1    2    0    0  0.11927985455E+03  0.57479485939E+02 -0.99329917036E+02  0.20747365231E+03  0.12508920409E+03 0.  0.
         23    2    1    2    0    0 -0.11927985455E+03 -0.57479485939E+02  0.29614856063E+02  0.16387046675E+03  0.91896219544E+02 0.  0.
          5    1    3    3  502    0  0.14477152728E+03  0.47837741691E+02 -0.72058964880E+02  0.16869265385E+03  0.41800000000E+01 0. -1.
         -5    1    3    3    0  502 -0.25491672731E+02  0.96417442483E+01 -0.27270952155E+02  0.38780998469E+02  0.41800000000E+01 0. -1.
        -11    1    4    4    0    0 -0.50952646945E+02  0.13547596611E+02  0.37951389887E+02  0.64961662532E+02  0.00000000000E+00 0. -1.
         11    1    4    4    0    0 -0.68327207608E+02 -0.71027082550E+02 -0.83365338241E+01  0.98908804215E+02  0.00000000000E+00 0.  1.
</event>
<event>
 8    1  0.6597859E-009  0.1990100E+03  0.7561462E-02  0.1150577E+00
          1   -1    0    0  501    0  0.00000000000E+00  0.00000000000E+00  0.69647063656E+03  0.69647063656E+03  0.00000000000E+00 0. -1.
         -1   -1    0    0    0  501 -0.00000000000E+00 -0.00000000000E+00 -0.84340460970E+02  0.84340460970E+02  0.00000000000E+00 0.  1.
         25    2    1    2    0    0  0.10827051650E+02  0.18733609340E+03  0.15106132733E+03  0.27144369133E+03  0.12510042370E+03 0.  0.
         23    2    1    2    0    0 -0.10827051650E+02 -0.18733609340E+03  0.46106884826E+03  0.50936740620E+03  0.10797515792E+03 0.  0.
          5    1    3    3  502    0  0.41611366782E+02  0.14601521865E+03  0.15813796652E+03  0.21926476867E+03  0.41800000000E+01 0.  1.
         -5    1    3    3    0  502 -0.30784315132E+02  0.41320874747E+02 -0.70766391862E+01  0.52178922662E+02  0.41800000000E+01 0.  1.
        -11    1    4    4    0    0 -0.29430321705E+02 -0.14833399266E+03  0.43090058065E+03  0.45666664824E+03  0.00000000000E+00 0.  1.
         11    1    4    4    0    0  0.18603270055E+02 -0.39002100739E+02  0.30168267611E+02  0.52700757959E+02  0.00000000000E+00 0. -1.
</event>
<event>
 8    1  0.6597859E-009  0.1993361E+03  0.7561462E-02  0.1150300E+00
          2   -1    0    0  501    0  0.00000000000E+00  0.00000000000E+00  0.25466457416E+03  0.25466457416E+03  0.00000000000E+00 0.  1.
         -2   -1    0    0    0  501 -0.00000000000E+00 -0.00000000000E+00 -0.22462757379E+03  0.22462757379E+03  0.00000000000E+00 0. -1.
         25    2    1    2    0    0  0.48075757589E+02 -0.17149731734E+03 -0.10133533854E+03  0.24008097471E+03  0.12508962891E+03 0.  0.
         23    2    1    2    0    0 -0.48075757589E+02  0.17149731734E+03  0.13137233891E+03  0.23921117324E+03  0.90778222346E+02 0.  0.
          5    1    3    3  502    0 -0.16170531915E+02 -0.14472783637E+03 -0.84241270472E+02  0.16829051302E+03  0.41800000000E+01 0.  1.
         -5    1    3    3    0  502  0.64246289504E+02 -0.26769480965E+02 -0.17094068067E+02  0.71790461687E+02  0.41800000000E+01 0.  1.
        -11    1    4    4    0    0 -0.75959436454E+01  0.10592831773E+03  0.12174219851E+03  0.16155392213E+03  0.00000000000E+00 0.  1.
         11    1    4    4    0    0 -0.40479813944E+02  0.65568999611E+02  0.96301403975E+01  0.77657251116E+02  0.00000000000E+00 0. -1.
</event>
<event>
 8    1  0.6597859E-009  0.2145263E+03  0.7561462E-02  0.1138031E+00
         -1   -1    0    0    0  501 -0.00000000000E+00  0.00000000000E+00  0.18464092459E+03  0.18464092459E+03  0.00000000000E+00 0.  1.
          1   -1    0    0  501    0  0.00000000000E+00 -0.00000000000E+00 -0.36338299637E+03  0.36338299637E+03  0.00000000000E+00 0. -1.
         25    2    1    2    0    0  0.43245285881E+02 -0.20065608905E+03  0.29404163548E+02  0.24219391990E+03  0.12514099720E+03 0.  0.
         23    2    1    2    0    0 -0.43245285881E+02  0.20065608905E+03 -0.20814623533E+03  0.30583000107E+03  0.89856070733E+02 0.  0.
          5    1    3    3  502    0  0.28579768997E+02 -0.12219814550E+03 -0.44616972538E+02  0.13325665686E+03  0.41800000000E+01 0. -1.
         -5    1    3    3    0  502  0.14665516885E+02 -0.78457943549E+02  0.74021136086E+02  0.10893726304E+03  0.41800000000E+01 0. -1.
        -11    1    4    4    0    0 -0.46659372212E+02  0.36163584376E+02 -0.64268846818E+02  0.87266182003E+02  0.00000000000E+00 0. -1.
         11    1    4    4    0    0  0.34140863304E+01  0.16449250467E+03 -0.14387738851E+03  0.21856381906E+03  0.00000000000E+00 0.  1.
</event>
<event>
 8    1  0.6597859E-009  0.1644463E+03  0.7561462E-02  0.1183766E+00
          2   -1    0    0  501    0  0.00000000000E+00  0.00000000000E+00  0.24642290124E+04  0.24642290124E+04  0.00000000000E+00 0. -1.
         -2   -1    0    0    0  501 -0.00000000000E+00 -0.00000000000E+00 -0.14647763438E+02  0.14647763438E+02  0.00000000000E+00 0.  1.
         25    2    1    2    0    0 -0.14141557846E+03  0.51315783305E+02  0.15534208406E+04  0.15656931608E+04  0.12508832952E+03 0.  0.
         23    2    1    2    0    0  0.14141557846E+03 -0.51315783305E+02  0.89616040831E+03  0.91318361503E+03  0.90383415999E+02 0.  0.
          5    1    3    3  502    0 -0.15372911531E+02 -0.40757815079E+01  0.77535203855E+03  0.77552639832E+03  0.41800000000E+01 0. -1.
         -5    1    3    3    0  502 -0.12604266693E+03  0.55391564813E+02  0.77806880207E+03  0.79016676246E+03  0.41800000000E+01 0. -1.
        -11    1    4    4    0    0  0.95904575042E+02 -0.76513850958E+02  0.66738851410E+03  0.67857165109E+03  0.00000000000E+00 0.  1.
         11    1    4    4    0    0  0.45511003423E+02  0.25198067653E+02  0.22877189421E+03  0.23461196395E+03  0.00000000000E+00 0. -1.
</event>
<event>
 8    1  0.6597859E-009  0.3352747E+03  0.7561462E-02  0.1068827E+00
          2   -1    0    0  501    0  0.00000000000E+00  0.00000000000E+00  0.22692994739E+04  0.22692994739E+04  0.00000000000E+00 0. -1.
         -2   -1    0    0    0  501 -0.00000000000E+00 -0.00000000000E+00 -0.59164826341E+02  0.59164826341E+02  0.00000000000E+00 0.  1.
         25    2    1    2    0    0  0.27180313346E+03 -0.16352052630E+03  0.65249318576E+03  0.73621387965E+03  0.12509042029E+03 0.  0.
         23    2    1    2    0    0 -0.27180313346E+03  0.16352052630E+03  0.15576414618E+04  0.15922504206E+04  0.91643725773E+02 0.  0.
          5    1    3    3  502    0  0.12174188006E+03 -0.47976792561E+01  0.21313428190E+03  0.24553573591E+03  0.41800000000E+01 0. -1.
         -5    1    3    3    0  502  0.15006125340E+03 -0.15872284705E+03  0.43935890387E+03  0.49067814375E+03  0.41800000000E+01 0. -1.
        -11    1    4    4    0    0 -0.85185344826E+02  0.10369753263E+03  0.63521578796E+03  0.64923710501E+03  0.00000000000E+00 0.  1.
         11    1    4    4    0    0 -0.18661778863E+03  0.59822993673E+02  0.92242567387E+03  0.94301331561E+03  0.00000000000E+00 0. -1.
</event>
<event>
 8    1  0.6597859E-009  0.2585093E+03  0.7561462E-02  0.1108042E+00
         -2   -1    0    0    0  501 -0.00000000000E+00  0.00000000000E+00  0.61992249330E+02  0.61992249330E+02  0.00000000000E+00 0.  1.
          2   -1    0    0  501    0  0.00000000000E+00 -0.00000000000E+00 -0.11884227515E+04  0.11884227515E+04  0.00000000000E+00 0. -1.
         25    2    1    2    0    0 -0.16429396701E+03  0.18581349816E+03 -0.62196342817E+03  0.68117865006E+03  0.12508670441E+03 0.  0.
         23    2    1    2    0    0  0.16429396701E+03 -0.18581349816E+03 -0.50446707405E+03  0.56923635082E+03  0.89575837125E+02 0.  0.
          5    1    3    3  502    0 -0.15605511712E+03  0.10623947997E+03 -0.50728909826E+03  0.54129449314E+03  0.41800000000E+01 0.  1.
         -5    1    3    3    0  502 -0.82388498902E+01  0.79574018190E+02 -0.11467432991E+03  0.13988415692E+03  0.41800000000E+01 0.  1.
        -11    1    4    4    0    0  0.77636901196E+02 -0.84151502659E+02 -0.13877487085E+03  0.17990950115E+03  0.00000000000E+00 0. -1.
         11    1    4    4    0    0  0.86657065816E+02 -0.10166199550E+03 -0.36569220320E+03  0.38932684966E+03  0.00000000000E+00 0.  1.
</event>
<event>
 8    1  0.6597859E-009  0.1220938E+03  0.7561462E-02  0.1239682E+00
         -2   -1    0    0    0  501 -0.00000000000E+00  0.00000000000E+00  0.49537880388E+02  0.49537880388E+02  0.00000000000E+00 0. -1.
          2   -1    0    0  501    0  0.00000000000E+00 -0.00000000000E+00 -0.31751610331E+03  0.31751610331E+03  0.00000000000E+00 0.  1.
         25    2    1    2    0    0  0.10476202010E+02 -0.58704284076E+02 -0.17797975371E+03  0.22556792609E+03  0.12509257679E+03 0.  0.
         23    2    1    2    0    0 -0.10476202010E+02  0.58704284076E+02 -0.89998469205E+02  0.14148605761E+03  0.91447450819E+02 0.  0.
          5    1    3    3  502    0  0.35604222756E+02  0.27827923035E+02 -0.38767904658E+02  0.59686487667E+02  0.41800000000E+01 0. -1.
         -5    1    3    3    0  502 -0.25128020745E+02 -0.86532207111E+02 -0.13921184906E+03  0.16588143842E+03  0.41800000000E+01 0. -1.
        -11    1    4    4    0    0 -0.37495640125E+02  0.69926188741E+02 -0.59120146973E+02  0.98948404123E+02  0.00000000000E+00 0.  1.
         11    1    4    4    0    0  0.27019438115E+02 -0.11221904665E+02 -0.30878322232E+02  0.42537653487E+02  0.00000000000E+00 0. -1.
</event>
<event>
 8    1  0.6597859E-009  0.1040689E+03  0.7561462E-02  0.1271965E+00
          2   -1    0    0  501    0  0.00000000000E+00  0.00000000000E+00  0.17367689188E+03  0.17367689188E+03  0.00000000000E+00 0. -1.
         -2   -1    0    0    0  501 -0.00000000000E+00 -0.00000000000E+00 -0.80211261527E+02  0.80211261527E+02  0.00000000000E+00 0.  1.
         25    2    1    2    0    0  0.43981465987E+02  0.19829955697E+01  0.45059836698E+02  0.14005866539E+03  0.12509092391E+03 0.  0.
         23    2    1    2    0    0 -0.43981465987E+02 -0.19829955697E+01  0.48405793659E+02  0.11382948802E+03  0.93143598075E+02 0.  0.
          5    1    3    3  502    0  0.71955249479E+02  0.19016894875E+02  0.67153667651E+02  0.10033089104E+03  0.41800000000E+01 0. -1.
         -5    1    3    3    0  502 -0.27973783491E+02 -0.17033899305E+02 -0.22093830953E+02  0.39727774346E+02  0.41800000000E+01 0. -1.
        -11    1    4    4    0    0 -0.40638650857E+02  0.40845585602E+02  0.15358724113E+02  0.59630128400E+02  0.00000000000E+00 0. -1.
         11    1    4    4    0    0 -0.33428151307E+01 -0.42828581171E+02  0.33047069546E+02  0.54199359625E+02  0.00000000000E+00 0.  1.
</event>
<event>
 8    1  0.6597859E-009  0.5187481E+03  0.7561462E-02  0.1008998E+00
         -1   -1    0    0    0  501 -0.00000000000E+00  0.00000000000E+00  0.16395833056E+04  0.16395833056E+04  0.00000000000E+00 0.  1.
          1   -1    0    0  501    0  0.00000000000E+00 -0.00000000000E+00 -0.17145634216E+03  0.17145634216E+03  0.00000000000E+00 0. -1.
         25    2    1    2    0    0 -0.13105323148E+03  0.49921235430E+03  0.64825388109E+03  0.83801398292E+03  0.12508563885E+03 0.  0.
         23    2    1    2    0    0  0.13105323148E+03 -0.49921235430E+03  0.81987308235E+03  0.97302566485E+03  0.90549153107E+02 0.  0.
          5    1    3    3  502    0 -0.68479222541E+02  0.35071595225E+03  0.35701834342E+03  0.50514419033E+03  0.41800000000E+01 0. -1.
         -5    1    3    3    0  502 -0.62574008939E+02  0.14849640205E+03  0.29123553767E+03  0.33286979259E+03  0.41800000000E+01 0. -1.
        -11    1    4    4    0    0  0.45616532705E+02 -0.89994325530E+02  0.11046968952E+03  0.14961082510E+03  0.00000000000E+00 0.  1.
         11    1    4    4    0    0  0.85436698775E+02 -0.40921802877E+03  0.70940339282E+03  0.82341483975E+03  0.00000000000E+00 0. -1.
</event>
<event>
 8    1  0.6597859E-009  0.1723104E+03  0.7561462E-02  0.1175460E+00
          3   -1    0    0  501    0  0.00000000000E+00  0.00000000000E+00  0.15682403542E+03  0.15682403542E+03  0.00000000000E+00 0.  1.
         -3   -1    0    0    0  501 -0.00000000000E+00 -0.00000000000E+00 -0.23548380595E+03  0.23548380595E+03  0.00000000000E+00 0. -1.
         25    2    1    2    0    0  0.10187354565E+03 -0.10317940549E+03 -0.10623873097E+03  0.21899372342E+03  0.12508946366E+03 0.  0.
         23    2    1    2    0    0 -0.10187354565E+03  0.10317940549E+03  0.27578960450E+02  0.17331411795E+03  0.90845888201E+02 0.  0.
          5    1    3    3  502    0 -0.17039904741E+02 -0.25287337824E+01 -0.50430492871E+02  0.53455213584E+02  0.41800000000E+01 0. -1.
         -5    1    3    3    0  502  0.11891345039E+03 -0.10065067171E+03 -0.55808238104E+02  0.16553850984E+03  0.41800000000E+01 0. -1.
        -11    1    4    4    0    0 -0.41956584991E+02 -0.98690141143E+01  0.49804558031E+01  0.43388447814E+02  0.00000000000E+00 0. -1.
         11    1    4    4    0    0 -0.59916960655E+02  0.11304841960E+03  0.22598504647E+02  0.12992567014E+03  0.00000000000E+00 0.  1.
</event>
<event>
 8    1  0.6597859E-009  0.1001857E+03  0.7561462E-02  0.1279906E+00
          2   -1    0    0  501    0  0.00000000000E+00  0.00000000000E+00  0.29324779176E+03  0.29324779176E+03  0.00000000000E+00 0. -1.
         -2   -1    0    0    0  501 -0.00000000000E+00 -0.00000000000E+00 -0.60286543095E+02  0.60286543095E+02  0.00000000000E+00 0.  1.
         25    2    1    2    0    0 -0.25139208429E+02 -0.70995932910E+01  0.33275674553E+02  0.13204886963E+03  0.12508896606E+03 0.  0.
         23    2    1    2    0    0  0.25139208429E+02  0.70995932910E+01  0.19968557411E+03  0.22148546522E+03  0.92190556844E+02 0.  0.
          5    1    3    3  502    0  0.24550231517E+02  0.32714164171E+02  0.51299953992E+02  0.65742589579E+02  0.41800000000E+01 0. -1.
         -5    1    3    3    0  502 -0.49689439945E+02 -0.39813757462E+02 -0.18024279439E+02  0.66306280054E+02  0.41800000000E+01 0. -1.
        -11    1    4    4    0    0  0.56887999849E+02 -0.12352191572E+02  0.11209778052E+03  0.12631204836E+03  0.00000000000E+00 0.  1.
         11    1    4    4    0    0 -0.31748791420E+02  0.19451784863E+02  0.87587793586E+02  0.95173416857E+02  0.00000000000E+00 0. -1.
</event>
<event>
 8    1  0.6597859E-009  0.1227334E+03  0.7561462E-02  0.1238655E+00
          2   -1    0    0  501    0  0.00000000000E+00  0.00000000000E+00  0.11512597662E+04  0.11512597662E+04  0.00000000000E+00 0. -1.
         -2   -1    0    0    0  501 -0.00000000000E+00 -0.00000000000E+00 -0.17694593014E+02  0.17694593014E+02  0.00000000000E+00 0.  1.
         25    2    1    2    0    0 -0.37042517509E+02  0.86173230289E+02  0.75510153520E+03  0.77111976437E+03  0.12509751726E+03 0.  0.
         23    2    1    2    0    0  0.37042517509E+02 -0.86173230289E+02  0.37846363796E+03  0.39783459481E+03  0.78991555572E+02 0.  0.
          5    1    3    3  502    0 -0.29108534227E+02  0.10206878951E+03  0.73955774507E+03  0.74714689001E+03  0.41800000000E+01 0. -1.
         -5    1    3    3    0  502 -0.79339832810E+01 -0.15895559224E+02  0.15543790133E+02  0.23972874367E+02  0.41800000000E+01 0. -1.
        -11    1    4    4    0    0  0.11980366620E+02 -0.93983856539E+02  0.32035351387E+03  0.33407015479E+03  0.00000000000E+00 0. -1.
         11    1    4    4    0    0  0.25062150888E+02  0.78106262502E+01  0.58110124091E+02  0.63764440023E+02  0.00000000000E+00 0.  1.
</event>
<event>
 8    1  0.6597859E-009  0.1465698E+03  0.7561462E-02  0.1204752E+00
         -2   -1    0    0    0  501 -0.00000000000E+00  0.00000000000E+00  0.12952347533E+04  0.12952347533E+04  0.00000000000E+00 0.  1.
          2   -1    0    0  501    0  0.00000000000E+00 -0.00000000000E+00 -0.21931550116E+02  0.21931550116E+02  0.00000000000E+00 0. -1.
         25    2    1    2    0    0 -0.98918490362E+02 -0.25367295337E+02  0.98088931006E+03  0.99409228378E+03  0.12508901894E+03 0.  0.
         23    2    1    2    0    0  0.98918490362E+02  0.25367295337E+02  0.29241389312E+03  0.32307401964E+03  0.91883458078E+02 0.  0.
          5    1    3    3  502    0  0.20403659853E+02 -0.29901143365E+02  0.13603150948E+03  0.14082766660E+03  0.41800000000E+01 0.  1.
         -5    1    3    3    0  502 -0.11932215021E+03  0.45338480280E+01  0.84485780059E+03  0.85326461718E+03  0.41800000000E+01 0.  1.
        -11    1    4    4    0    0  0.44068892733E+02 -0.34541803293E+02  0.11188518152E+03  0.12511393737E+03  0.00000000000E+00 0.  1.
         11    1    4    4    0    0  0.54849597628E+02  0.59909098630E+02  0.18052871160E+03  0.19796008227E+03  0.00000000000E+00 0. -1.
</event>
<event>
 8    1  0.6597859E-009  0.1171201E+03  0.7561462E-02  0.1247925E+00
         -1   -1    0    0    0  501 -0.00000000000E+00  0.00000000000E+00  0.16588245912E+02  0.16588245912E+02  0.00000000000E+00 0.  1.
          1   -1    0    0  501    0  0.00000000000E+00 -0.00000000000E+00 -0.88720916171E+03  0.88720916171E+03  0.00000000000E+00 0. -1.
         25    2    1    2    0    0  0.47887002659E+02 -0.18671962652E+01 -0.56811821376E+03  0.58369673954E+03  0.12508767920E+03 0.  0.
         23    2    1    2    0    0 -0.47887002659E+02  0.18671962652E+01 -0.30250270203E+03  0.32010066809E+03  0.93058591898E+02 0.  0.
          5    1    3    3  502    0 -0.37215567387E+02 -0.21378964577E+02 -0.25438800515E+03  0.25801703073E+03  0.41800000000E+01 0. -1.
         -5    1    3    3    0  502  0.85102570046E+02  0.19511768312E+02 -0.31373020861E+03  0.32567970880E+03  0.41800000000E+01 0. -1.
        -11    1    4    4    0    0  0.90481184373E+01 -0.34819574710E+02 -0.12646364637E+03  0.13148127275E+03  0.00000000000E+00 0.  1.
         11    1    4    4    0    0 -0.56935121096E+02  0.36686770975E+02 -0.17603905566E+03  0.18861939534E+03  0.00000000000E+00 0. -1.
</event>
<event>
 8    1  0.6597859E-009  0.1619528E+03  0.7561462E-02  0.1186510E+00
          2   -1    0    0  501    0  0.00000000000E+00  0.00000000000E+00  0.12557012731E+04  0.12557012731E+04  0.00000000000E+00 0. -1.
         -2   -1    0    0    0  501 -0.00000000000E+00 -0.00000000000E+00 -0.24611573299E+02  0.24611573299E+02  0.00000000000E+00 0.  1.
         25    2    1    2    0    0  0.13435386138E+03  0.32025944409E+02  0.62106294794E+03  0.64841680534E+03  0.12509415235E+03 0.  0.
         23    2    1    2    0    0 -0.13435386138E+03 -0.32025944409E+02  0.61002675189E+03  0.63189604109E+03  0.89907438781E+02 0.  0.
          5    1    3    3  502    0  0.15718264844E+02  0.60660971822E+02  0.25044697038E+03  0.25820142278E+03  0.41800000000E+01 0.  1.
         -5    1    3    3    0  502  0.11863559653E+03 -0.28635027413E+02  0.37061597756E+03  0.39021538256E+03  0.41800000000E+01 0.  1.
        -11    1    4    4    0    0 -0.32834466962E+02 -0.14806785986E+02  0.45378161588E+02  0.57935487234E+02  0.00000000000E+00 0.  1.
         11    1    4    4    0    0 -0.10151939442E+03 -0.17219158423E+02  0.56464859030E+03  0.57396055386E+03  0.00000000000E+00 0. -1.
</event>
<event>
 8    1  0.6597859E-009  0.1058847E+03  0.7561462E-02  0.1268386E+00
         -1   -1    0    0    0  501 -0.00000000000E+00  0.00000000000E+00  0.53478547180E+02  0.53478547180E+02  0.00000000000E+00 0.  1.
          1   -1    0    0  501    0  0.00000000000E+00 -0.00000000000E+00 -0.31934046620E+03  0.31934046620E+03  0.00000000000E+00 0. -1.
         25    2    1    2    0    0 -0.59732842430E+02  0.39250726814E+02 -0.17128437585E+03  0.22381707512E+03  0.12508842347E+03 0.  0.
         23    2    1    2    0    0  0.59732842430E+02 -0.39250726814E+02 -0.94577543177E+02  0.14900193826E+03  0.90266460613E+02 0.  0.
          5    1    3    3  502    0 -0.84402830952E+02  0.13607526875E+01 -0.60067561458E+02  0.10368834968E+03  0.41800000000E+01 0. -1.
         -5    1    3    3    0  502  0.24669988522E+02  0.37889974126E+02 -0.11121681439E+03  0.12012872544E+03  0.41800000000E+01 0. -1.
        -11    1    4    4    0    0  0.60467112902E+02 -0.21644234886E+02 -0.12979266861E+02  0.65522561113E+02  0.00000000000E+00 0.  1.
         11    1    4    4    0    0 -0.73427047276E+00 -0.17606491928E+02 -0.81598276316E+02  0.83479377147E+02  0.00000000000E+00 0. -1.
</event>
<event>
 8    1  0.6597859E-009  0.4254490E+03  0.7561462E-02  0.1035307E+00
         -1   -1    0    0    0  501 -0.00000000000E+00  0.00000000000E+00  0.88394089836E+02  0.88394089836E+02  0.00000000000E+00 0.  1.
          1   -1    0    0  501    0  0.00000000000E+00 -0.00000000000E+00 -0.20971752911E+04  0.20971752911E+04  0.00000000000E+00 0. -1.
         25    2    1    2    0    0 -0.18743939536E+03  0.36787692807E+03 -0.11108943400E+04  0.11917218296E+04  0.12509085977E+03 0.  0.
         23    2    1    2    0    0  0.18743939536E+03 -0.36787692807E+03 -0.89788686128E+03  0.99384755142E+03  0.10519115299E+03 0.  0.
          5    1    3    3  502    0 -0.73244214369E+02  0.26829358256E+03 -0.76817356122E+03  0.81697873530E+03  0.41800000000E+01 0. -1.
         -5    1    3    3    0  502 -0.11419518099E+03  0.99583345517E+02 -0.34272077880E+03  0.37474309425E+03  0.41800000000E+01 0. -1.
        -11    1    4    4    0    0  0.17307114382E+03 -0.25990579806E+03 -0.59479830636E+03  0.67178096872E+03  0.00000000000E+00 0.  1.
         11    1    4    4    0    0  0.14368251535E+02 -0.10797113001E+03 -0.30308855492E+03  0.32206658270E+03  0.00000000000E+00 0. -1.
</event>
<event>
 8    1  0.6597859E-009  0.1057850E+03  0.7561462E-02  0.1268581E+00
          2   -1    0    0  501    0  0.00000000000E+00  0.00000000000E+00  0.54791591823E+02  0.54791591823E+02  0.00000000000E+00 0. -1.
         -2   -1    0    0    0  501 -0.00000000000E+00 -0.00000000000E+00 -0.32357950342E+03  0.32357950342E+03  0.00000000000E+00 0.  1.
         25    2    1    2    0    0  0.15900543809E+02 -0.63576220974E+02 -0.20301306161E+03  0.24730390938E+03  0.12510058850E+03 0.  0.
         23    2    1    2    0    0 -0.15900543809E+02  0.63576220974E+02 -0.65774849983E+02  0.13106718586E+03  0.92506827597E+02 0.  0.
          5    1    3    3  502    0 -0.47591154983E+02  0.32088877465E+01 -0.55242154696E+02  0.73105287419E+02  0.41800000000E+01 0.  1.
         -5    1    3    3    0  502  0.63491698792E+02 -0.66785108721E+02 -0.14777090691E+03  0.17419862196E+03  0.41800000000E+01 0.  1.
        -11    1    4    4    0    0 -0.19302468021E+02  0.20217956617E+02 -0.80448981160E+02  0.85166833985E+02  0.00000000000E+00 0.  1.
         11    1    4    4    0    0  0.34019242118E+01  0.43358264357E+02  0.14674131177E+02  0.45900351874E+02  0.00000000000E+00 0. -1.
</event>
<event>
 8    1  0.6597859E-009  0.1580308E+03  0.7561462E-02  0.1190938E+00
         -1   -1    0    0    0  501 -0.00000000000E+00  0.00000000000E+00  0.15401164206E+02  0.15401164206E+02  0.00000000000E+00 0.  1.
          1   -1    0    0  501    0  0.00000000000E+00 -0.00000000000E+00 -0.23026121666E+04  0.23026121666E+04  0.00000000000E+00 0. -1.
         25    2    1    2    0    0  0.36175943804E+02  0.11922443357E+03 -0.17609481917E+04  0.17697764328E+04  0.12508766387E+03 0.  0.
         23    2    1    2    0    0 -0.36175943804E+02 -0.11922443357E+03 -0.52626281067E+03  0.54823689802E+03  0.89933230675E+02 0.  0.
          5    1    3    3  502    0  0.27548212900E+01 -0.19688081473E+02 -0.72605662478E+02  0.75394059555E+02  0.41800000000E+01 0. -1.
         -5    1    3    3    0  502  0.33421122514E+02  0.13891251505E+03 -0.16883425292E+04  0.16943823732E+04  0.41800000000E+01 0. -1.
        -11    1    4    4    0    0  0.25766868931E+02 -0.67017839146E+02 -0.27618645797E+03  0.28536692497E+03  0.00000000000E+00 0.  1.
         11    1    4    4    0    0 -0.61942812734E+02 -0.52206594428E+02 -0.25007635270E+03  0.26286997305E+03  0.00000000000E+00 0. -1.
</event>
<event>
 8    1  0.6597859E-009  0.7510333E+02  0.7561462E-02  0.1343551E+00
          2   -1    0    0  501    0  0.00000000000E+00  0.00000000000E+00  0.49465261373E+03  0.49465261373E+03  0.00000000000E+00 0.  1.
         -2   -1    0    0    0  501 -0.00000000000E+00 -0.00000000000E+00 -0.38333750942E+02  0.38333750942E+02  0.00000000000E+00 0. -1.
         25    2    1    2    0    0 -0.21461364428E+02  0.62477817488E+02  0.35768663216E+03  0.38464429600E+03  0.12508972691E+03 0.  0.
         23    2    1    2    0    0  0.21461364428E+02 -0.62477817488E+02  0.98632230631E+02  0.14834206868E+03  0.88954958144E+02 0.  0.
          5    1    3    3  502    0 -0.21494763481E+02  0.59572065337E+02  0.36784566303E+03  0.37328107377E+03  0.41800000000E+01 0. -1.
         -5    1    3    3    0  502  0.33399052781E-01  0.29057521517E+01 -0.10159030873E+02  0.11363222225E+02  0.41800000000E+01 0. -1.
        -11    1    4    4    0    0 -0.14933687109E+02 -0.10759590266E+02  0.80465565338E+02  0.82543873174E+02  0.00000000000E+00 0.  1.
         11    1    4    4    0    0  0.36395051537E+02 -0.51718227222E+02  0.18166665293E+02  0.65798195502E+02  0.00000000000E+00 0. -1.
</event>
<event>
 8    1  0.6597859E-009  0.1109193E+03  0.7561462E-02  0.1258877E+00
         -3   -1    0    0    0  501 -0.00000000000E+00  0.00000000000E+00  0.32238263088E+03  0.32238263088E+03  0.00000000000E+00 0.  1.
          3   -1    0    0  501    0  0.00000000000E+00 -0.00000000000E+00 -0.43872546922E+02  0.43872546922E+02  0.00000000000E+00 0. -1.
         25    2    1    2    0    0  0.47971957473E+02 -0.14161179477E+02  0.14883803363E+03  0.20075327419E+03  0.12508904482E+03 0.  0.
         23    2    1    2    0    0 -0.47971957473E+02  0.14161179477E+02  0.12967205033E+03  0.16550190361E+03  0.89856506469E+02 0.  0.
          5    1    3    3  502    0 -0.70337121815E+01 -0.58143966697E+02  0.39993909579E+02  0.71043501981E+02  0.41800000000E+01 0. -1.
         -5    1    3    3    0  502  0.55005669654E+02  0.43982787221E+02  0.10884412405E+03  0.12970977221E+03  0.41800000000E+01 0. -1.
        -11    1    4    4    0    0 -0.15385901762E+02  0.45089963156E+02  0.30342556976E+02  0.56484524556E+02  0.00000000000E+00 0. -1.
         11    1    4    4    0    0 -0.32586055711E+02 -0.30928783679E+02  0.99329493351E+02  0.10901737905E+03  0.00000000000E+00 0.  1.
</event>
<event>
 7    1  0.6597859E-009  0.9947329E+02  0.7561462E-02  0.1281407E+00
          2   -1    0    0  501    0  0.00000000000E+00  0.00000000000E+00  0.20948129970E+03  0.20948129970E+03  0.00000000000E+00 0. -1.
         -2   -1    0    0    0  501 -0.00000000000E+00 -0.00000000000E+00 -0.58276554955E+02  0.58276554955E+02  0.00000000000E+00 0.  1.
         23    2    1    2    0    0  0.71148212431E+01  0.13186001858E+02  0.48397744314E+02  0.10501507324E+03  0.91985502266E+02 0.  0.
          5    1    1    2  502    0 -0.40701059450E+02 -0.45343813605E+02  0.14375009881E+02  0.62743533386E+02  0.41800000000E+01 0.  1.
         -5    1    1    2    0  502  0.33586238207E+02  0.32157811747E+02  0.88431990552E+02  0.99999248029E+02  0.41800000000E+01 0.  1.
        -11    1    3    3    0    0  0.48620695296E+02  0.49684758436E+01  0.36691522171E+02  0.61114037360E+02  0.00000000000E+00 0. -1.
         11    1    3    3    0    0 -0.41505874052E+02  0.82175260142E+01  0.11706222142E+02  0.43901035882E+02  0.00000000000E+00 0.  1.
</event>
<event>
 8    1  0.6597859E-009  0.9893732E+02  0.7561462E-02  0.1282547E+00
          1   -1    0    0  501    0  0.00000000000E+00  0.00000000000E+00  0.79293051167E+03  0.79293051167E+03  0.00000000000E+00 0. -1.
         -1   -1    0    0    0  501 -0.00000000000E+00 -0.00000000000E+00 -0.20256881409E+02  0.20256881409E+02  0.00000000000E+00 0.  1.
         25    2    1    2    0    0  0.17316081194E+01 -0.65289991487E+02  0.46158836575E+03  0.48269059669E+03  0.12514236404E+03 0.  0.
         23    2    1    2    0    0 -0.17316081194E+01  0.65289991487E+02  0.31108526451E+03  0.33049679639E+03  0.90489276572E+02 0.  0.
          5    1    3    3  502    0  0.27791033024E+02 -0.59112667272E+02  0.44727302866E+03  0.45203681655E+03  0.41800000000E+01 0.  1.
         -5    1    3    3    0  502 -0.26059424904E+02 -0.61773242141E+01  0.14315337092E+02  0.30653780139E+02  0.41800000000E+01 0.  1.
        -11    1    4    4    0    0 -0.10892689356E+02 -0.18261485936E+02  0.27766353968E+02  0.34972888967E+02  0.00000000000E+00 0.  1.
         11    1    4    4    0    0  0.91610812366E+01  0.83551477422E+02  0.28331891054E+03  0.29552390742E+03  0.00000000000E+00 0. -1.
</event>
<event>
 8    1  0.6597859E-009  0.1366942E+03  0.7561462E-02  0.1217848E+00
          1   -1    0    0  501    0  0.00000000000E+00  0.00000000000E+00  0.24014243563E+03  0.24014243563E+03  0.00000000000E+00 0. -1.
         -1   -1    0    0    0  501 -0.00000000000E+00 -0.00000000000E+00 -0.13210859606E+03  0.13210859606E+03  0.00000000000E+00 0.  1.
         25    2    1    2    0    0 -0.85908243164E+02  0.73767196457E+01 -0.60549463556E+02  0.16354006067E+03  0.12507786243E+03 0.  0.
         23    2    1    2    0    0  0.85908243164E+02 -0.73767196457E+01  0.16858330313E+03  0.20871097102E+03  0.87779821670E+02 0.  0.
          5    1    3    3  502    0 -0.11276458977E+03  0.28898997563E+02 -0.39590121331E+02  0.12302786218E+03  0.41800000000E+01 0. -1.
         -5    1    3    3    0  502  0.26856346606E+02 -0.21522277917E+02 -0.20959342224E+02  0.40512198487E+02  0.41800000000E+01 0. -1.
        -11    1    4    4    0    0 -0.14956100956E+02 -0.14873617621E+02  0.38887261559E+02  0.44239445843E+02  0.00000000000E+00 0. -1.
         11    1    4    4    0    0  0.10086434412E+03  0.74968979753E+01  0.12969604158E+03  0.16447152518E+03  0.00000000000E+00 0.  1.
</event>
<event>
 8    1  0.6597859E-009  0.1117378E+03  0.7561462E-02  0.1257385E+00
          3   -1    0    0  501    0  0.00000000000E+00  0.00000000000E+00  0.87479647842E+02  0.87479647842E+02  0.00000000000E+00 0. -1.
         -3   -1    0    0    0  501 -0.00000000000E+00 -0.00000000000E+00 -0.19706282028E+03  0.19706282028E+03  0.00000000000E+00 0.  1.
         25    2    1    2    0    0  0.18331082198E+02  0.69056174853E+02 -0.78996798605E+02  0.16429455028E+03  0.12508965265E+03 0.  0.
         23    2    1    2    0    0 -0.18331082198E+02 -0.69056174853E+02 -0.30586373832E+02  0.12024791784E+03  0.91756479999E+02 0.  0.
          5    1    3    3  502    0  0.49894614686E+02  0.38419948428E+02 -0.97702300827E+02  0.11631327095E+03  0.41800000000E+01 0. -1.
         -5    1    3    3    0  502 -0.31563532488E+02  0.30636226425E+02  0.18705502222E+02  0.47981279329E+02  0.41800000000E+01 0. -1.
        -11    1    4    4    0    0  0.12094428482E+02 -0.82164820235E+02 -0.24249571969E+02  0.86518059532E+02  0.00000000000E+00 0.  1.
         11    1    4    4    0    0 -0.30425510680E+02  0.13108645382E+02 -0.63368018622E+01  0.33729858311E+02  0.00000000000E+00 0. -1.
</event>
<event>
 8    1  0.6597859E-009  0.1119041E+03  0.7561462E-02  0.1257084E+00
          1   -1    0    0  501    0  0.00000000000E+00  0.00000000000E+00  0.73230147774E+02  0.73230147774E+02  0.00000000000E+00 0. -1.
         -1   -1    0    0    0  501 -0.00000000000E+00 -0.00000000000E+00 -0.20512642989E+03  0.20512642989E+03  0.00000000000E+00 0.  1.
         25    2    1    2    0    0  0.65068265704E+02  0.32231813295E+02 -0.76968081064E+02  0.16384333593E+03  0.12509110374E+03 0.  0.
         23    2    1    2    0    0 -0.65068265704E+02 -0.32231813295E+02 -0.54928201048E+02  0.11451324173E+03  0.69450747093E+02 0.  0.
          5    1    3    3  502    0  0.10400718018E+02 -0.39678178688E+02  0.53285064656E+01  0.41574008472E+02  0.41800000000E+01 0.  1.
         -5    1    3    3    0  502  0.54667547686E+02  0.71909991984E+02 -0.82296587529E+02  0.12226932745E+03  0.41800000000E+01 0.  1.
        -11    1    4    4    0    0 -0.16894672432E+01 -0.28618483130E+02 -0.40149254368E+02  0.49333908243E+02  0.00000000000E+00 0.  1.
         11    1    4    4    0    0 -0.63378798461E+02 -0.36133301656E+01 -0.14778946680E+02  0.65179333490E+02  0.00000000000E+00 0. -1.
</event>
<event>
 8    1  0.6597859E-009  0.1268594E+03  0.7561462E-02  0.1232192E+00
          2   -1    0    0  501    0  0.00000000000E+00  0.00000000000E+00  0.73847897971E+02  0.73847897971E+02  0.00000000000E+00 0.  1.
         -2   -1    0    0    0  501 -0.00000000000E+00 -0.00000000000E+00 -0.29342702696E+03  0.29342702696E+03  0.00000000000E+00 0. -1.
         25    2    1    2    0    0  0.71273776906E+02 -0.36018491494E+02 -0.18849568072E+03  0.23990593305E+03  0.12508777741E+03 0.  0.
         23    2    1    2    0    0 -0.71273776906E+02  0.36018491494E+02 -0.31083448270E+02  0.12736899189E+03  0.94230548835E+02 0.  0.
          5    1    3    3  502    0  0.10702696550E+03 -0.24458772230E+02 -0.12937693343E+03  0.16973174772E+03  0.41800000000E+01 0.  1.
         -5    1    3    3    0  502 -0.35753188592E+02 -0.11559719264E+02 -0.59118747295E+02  0.70174185323E+02  0.41800000000E+01 0.  1.
        -11    1    4    4    0    0 -0.78584784445E+02  0.10238291602E+02  0.83550505743E+01  0.79688128547E+02  0.00000000000E+00 0.  1.
         11    1    4    4    0    0  0.73110075387E+01  0.25780199892E+02 -0.39438498845E+02  0.47680863340E+02  0.00000000000E+00 0. -1.
</event>
<event>
 8    1  0.6597859E-009  0.1003908E+03  0.7561462E-02  0.1279476E+00
          1   -1    0    0  501    0  0.00000000000E+00  0.00000000000E+00  0.64396333617E+03  0.64396333617E+03  0.00000000000E+00 0. -1.
         -1   -1    0    0    0  501 -0.00000000000E+00 -0.00000000000E+00 -0.34816291710E+02  0.34816291710E+02  0.00000000000E+00 0.  1.
         25    2    1    2    0    0 -0.45789738699E+02  0.35486312676E+02  0.52361984104E+03  0.54146186885E+03  0.12508892409E+03 0.  0.
         23    2    1    2    0    0  0.45789738699E+02 -0.35486312676E+02  0.85527203419E+02  0.13731775903E+03  0.90472569672E+02 0.  0.
          5    1    3    3  502    0  0.11746782827E+02 -0.17717217258E+02  0.13909171840E+02  0.25745371534E+02  0.41800000000E+01 0.  1.
         -5    1    3    3    0  502 -0.57536521526E+02  0.53203529934E+02  0.50971066920E+03  0.51571649732E+03  0.41800000000E+01 0.  1.
        -11    1    4    4    0    0  0.49793396162E+02 -0.58762711157E+02  0.41834737954E+02  0.87650349820E+02  0.00000000000E+00 0.  1.
         11    1    4    4    0    0 -0.40036574634E+01  0.23276398481E+02  0.43692465465E+02  0.49667409211E+02  0.00000000000E+00 0. -1.
</event>
<event>
 8    1  0.6597859E-009  0.1154355E+03  0.7561462E-02  0.1250823E+00
          2   -1    0    0  501    0  0.00000000000E+00  0.00000000000E+00  0.10091233767E+04  0.10091233767E+04  0.00000000000E+00 0. -1.
         -2   -1    0    0    0  501 -0.00000000000E+00 -0.00000000000E+00 -0.18364442542E+02  0.18364442542E+02  0.00000000000E+00 0.  1.
         25    2    1    2    0    0 -0.39060442691E+01  0.41493819927E+02  0.79581376772E+03  0.80666292621E+03  0.12509408205E+03 0.  0.
         23    2    1    2    0    0  0.39060442691E+01 -0.41493819927E+02  0.19494516647E+03  0.22082489306E+03  0.94989584640E+02 0.  0.
          5    1    3    3  502    0  0.59322713997E+02  0.30328851221E+02  0.36207686371E+03  0.36817950954E+03  0.41800000000E+01 0. -1.
         -5    1    3    3    0  502 -0.63228758266E+02  0.11164968706E+02  0.43373690401E+03  0.43848341667E+03  0.41800000000E+01 0. -1.
        -11    1    4    4    0    0 -0.54109285165E+01 -0.69780267446E+02  0.16166500994E+03  0.17616509107E+03  0.00000000000E+00 0. -1.
         11    1    4    4    0    0  0.93169727856E+01  0.28286447519E+02  0.33280156532E+02  0.44659801991E+02  0.00000000000E+00 0.  1.
</event>
<event>
 8    1  0.6597859E-009  0.1401147E+03  0.7561462E-02  0.1213175E+00
         -3   -1    0    0    0  501 -0.00000000000E+00  0.00000000000E+00  0.17888811341E+03  0.17888811341E+03  0.00000000000E+00 0.  1.
          3   -1    0    0  501    0  0.00000000000E+00 -0.00000000000E+00 -0.12410267776E+03  0.12410267776E+03  0.00000000000E+00 0. -1.
         25    2    1    2    0    0  0.67996161687E+02  0.74837363412E+02  0.47851774976E+02  0.16781132365E+03  0.12508692582E+03 0.  0.
         23    2    1    2    0    0 -0.67996161687E+02 -0.74837363412E+02  0.69336606717E+01  0.13517946752E+03  0.89450007383E+02 0.  0.
          5    1    3    3  502    0 -0.34267300580E+02  0.38735895433E+02  0.97936093564E+01  0.52802506269E+02  0.41800000000E+01 0.  1.
         -5    1    3    3    0  502  0.10226346227E+03  0.36101467979E+02  0.38058165620E+02  0.11500881738E+03  0.41800000000E+01 0.  1.
        -11    1    4    4    0    0 -0.28100457985E+02  0.68334032836E+01  0.29724490021E+02  0.41471393109E+02  0.00000000000E+00 0.  1.
         11    1    4    4    0    0 -0.39895703701E+02 -0.81670766695E+02 -0.22790829349E+02  0.93708074406E+02  0.00000000000E+00 0. -1.
</event>
<event>
 8    1  0.6597859E-009  0.1138566E+03  0.7561462E-02  0.1253590E+00
         -2   -1    0    0    0  501 -0.00000000000E+00  0.00000000000E+00  0.19853473306E+02  0.19853473306E+02  0.00000000000E+00 0.  1.
          2   -1    0    0  501    0  0.00000000000E+00 -0.00000000000E+00 -0.90376065887E+03  0.90376065887E+03  0.00000000000E+00 0. -1.
         25    2    1    2    0    0 -0.22806308841E+02  0.76554500699E+02 -0.46956228094E+03  0.49246139086E+03  0.12509502990E+03 0.  0.
         23    2    1    2    0    0  0.22806308841E+02 -0.76554500699E+02 -0.41434490462E+03  0.43115274131E+03  0.88488796226E+02 0.  0.
          5    1    3    3  502    0 -0.53924680110E+02  0.43400038994E+02 -0.41746451431E+03  0.42318498038E+03  0.41800000000E+01 0. -1.
         -5    1    3    3    0  502  0.31118371269E+02  0.33154461705E+02 -0.52097766634E+02  0.69276410484E+02  0.41800000000E+01 0. -1.
        -11    1    4    4    0    0 -0.23309651068E+02 -0.58865208934E+02 -0.16028417167E+03  0.17233533690E+03  0.00000000000E+00 0.  1.
         11    1    4    4    0    0  0.46115959910E+02 -0.17689291765E+02 -0.25406073295E+03  0.25881740442E+03  0.00000000000E+00 0. -1.
</event>
<event>
 8    1  0.6597859E-009  0.1546913E+03  0.7561462E-02  0.1194824E+00
         -2   -1    0    0    0  501 -0.00000000000E+00  0.00000000000E+00  0.16232924903E+03  0.16232924903E+03  0.00000000000E+00 0.  1.
          2   -1    0    0  501    0  0.00000000000E+00 -0.00000000000E+00 -0.15825541477E+03  0.15825541477E+03  0.00000000000E+00 0. -1.
         25    2    1    2    0    0 -0.11302264802E+03 -0.21091455774E+02 -0.12963732328E+02  0.17039348453E+03  0.12508762026E+03 0.  0.
         23    2    1    2    0    0  0.11302264802E+03  0.21091455774E+02  0.17037566581E+02  0.15019117927E+03  0.95121728228E+02 0.  0.
          5    1    3    3  502    0 -0.93136681463E+02 -0.65623404349E+02 -0.31127091691E+02  0.11818308199E+03  0.41800000000E+01 0. -1.
         -5    1    3    3    0  502 -0.19885966561E+02  0.44531948576E+02  0.18163359364E+02  0.52210402540E+02  0.41800000000E+01 0. -1.
        -11    1    4    4    0    0  0.28431213177E+02 -0.34873592050E+02 -0.80426701975E+01  0.45707612595E+02  0.00000000000E+00 0. -1.
         11    1    4    4    0    0  0.84591434847E+02  0.55965047824E+02  0.25080236778E+02  0.10448356667E+03  0.00000000000E+00 0.  1.
</event>
<event>
 8    1  0.6597859E-009  0.1443387E+03  0.7561462E-02  0.1207607E+00
         -2   -1    0    0    0  501 -0.00000000000E+00  0.00000000000E+00  0.23617324400E+02  0.23617324400E+02  0.00000000000E+00 0.  1.
          2   -1    0    0  501    0  0.00000000000E+00 -0.00000000000E+00 -0.13161903157E+04  0.13161903157E+04  0.00000000000E+00 0. -1.
         25    2    1    2    0    0  0.85280676339E+02  0.10714458305E+03 -0.68711317026E+03  0.71170499771E+03  0.12508692815E+03 0.  0.
         23    2    1    2    0    0 -0.85280676339E+02 -0.10714458305E+03 -0.60545982109E+03  0.62810264243E+03  0.95804900936E+02 0.  0.
          5    1    3    3  502    0  0.27234988715E+02  0.59679231536E+01 -0.20268261257E+02  0.34722262764E+02  0.41800000000E+01 0. -1.
         -5    1    3    3    0  502  0.58045687625E+02  0.10117665990E+03 -0.66684490900E+03  0.67698273495E+03  0.41800000000E+01 0. -1.
        -11    1    4    4    0    0 -0.47090216312E+02 -0.25317820564E+02 -0.89127528270E+02  0.10393361730E+03  0.00000000000E+00 0.  1.
         11    1    4    4    0    0 -0.38190460028E+02 -0.81826762486E+02 -0.51633229282E+03  0.52416902513E+03  0.00000000000E+00 0. -1.
</event>
<event>
 8    1  0.6597859E-009  0.9460919E+02  0.7561462E-02  0.1292059E+00
          1   -1    0    0  501    0  0.00000000000E+00  0.00000000000E+00  0.96383837127E+03  0.96383837127E+03  0.00000000000E+00 0. -1.
         -1   -1    0    0    0  501 -0.00000000000E+00 -0.00000000000E+00 -0.17671844372E+02  0.17671844372E+02  0.00000000000E+00 0.  1.
         25    2    1    2    0    0  0.24060844260E+02  0.31303429844E+02  0.75269756437E+03  0.76404187530E+03  0.12509010693E+03 0.  0.
         23    2    1    2    0    0 -0.24060844260E+02 -0.31303429844E+02  0.19346896252E+03  0.21746834034E+03  0.91123052211E+02 0.  0.
          5    1    3    3  502    0  0.85411406341E+01  0.59741535623E+02  0.69587178001E+03  0.69849624822E+03  0.41800000000E+01 0. -1.
         -5    1    3    3    0  502  0.15519703626E+02 -0.28438105779E+02  0.56825784362E+02  0.65545627080E+02  0.41800000000E+01 0. -1.
        -11    1    4    4    0    0  0.36674806249E+01  0.29239351554E+02  0.87347336187E+02  0.92184311205E+02  0.00000000000E+00 0. -1.
         11    1    4    4    0    0 -0.27728324885E+02 -0.60542781397E+02  0.10612162634E+03  0.12528402914E+03  0.00000000000E+00 0.  1.
</event>
<event>
 8    1  0.6597859E-009  0.1013733E+03  0.7561462E-02  0.1277434E+00
         -2   -1    0    0    0  501 -0.00000000000E+00  0.00000000000E+00  0.16030245768E+03  0.16030245768E+03  0.00000000000E+00 0.  1.
          2   -1    0    0  501    0  0.00000000000E+00 -0.00000000000E+00 -0.10841608371E+03  0.10841608371E+03  0.00000000000E+00 0. -1.
         25    2    1    2    0    0 -0.55601300368E+02 -0.13706585026E+02 -0.20797563453E+02  0.13913692877E+03  0.12508865346E+03 0.  0.
         23    2    1    2    0    0  0.55601300368E+02  0.13706585026E+02  0.72683937423E+02  0.12958161262E+03  0.90714191257E+02 0.  0.
          5    1    3    3  502    0 -0.95287768653E+02 -0.18191427533E+02 -0.10390356635E+02  0.97653053211E+02  0.41800000000E+01 0.  1.
         -5    1    3    3    0  502  0.39686468285E+02  0.44848425065E+01 -0.10407206818E+02  0.41483875554E+02  0.41800000000E+01 0.  1.
        -11    1    4    4    0    0  0.36395509813E+02 -0.72006119313E+01 -0.13003379602E+02  0.39313735867E+02  0.00000000000E+00 0. -1.
         11    1    4    4    0    0  0.19205790555E+02  0.20907196957E+02  0.85687317024E+02  0.90267876757E+02  0.00000000000E+00 0.  1.
</event>
<event>
 8    1  0.6597859E-009  0.9021949E+02  0.7561462E-02  0.1302321E+00
          1   -1    0    0  501    0  0.00000000000E+00  0.00000000000E+00  0.80800396715E+03  0.80800396715E+03  0.00000000000E+00 0. -1.
         -1   -1    0    0    0  501 -0.00000000000E+00 -0.00000000000E+00 -0.16511941421E+02  0.16511941421E+02  0.00000000000E+00 0.  1.
         25    2    1    2    0    0 -0.18861460686E+02 -0.26753302369E+02  0.52713691375E+03  0.54276266955E+03  0.12508595339E+03 0.  0.
         23    2    1    2    0    0  0.18861460686E+02  0.26753302369E+02  0.26435511199E+03  0.28175323903E+03  0.91813771190E+02 0.  0.
          5    1    3    3  502    0 -0.52046440857E+02  0.30875766132E+01  0.96193888224E+02  0.10949475634E+03  0.41800000000E+01 0. -1.
         -5    1    3    3    0  502  0.33184980172E+02 -0.29840878982E+02  0.43094302552E+03  0.43326791321E+03  0.41800000000E+01 0. -1.
        -11    1    4    4    0    0 -0.30016618676E+02  0.10501897138E+02  0.18096194668E+03  0.18373489975E+03  0.00000000000E+00 0. -1.
         11    1    4    4    0    0  0.48878079361E+02  0.16251405230E+02  0.83393165307E+02  0.98018339273E+02  0.00000000000E+00 0.  1.
</event>
<event>
 8    1  0.6597859E-009  0.9372420E+02  0.7561462E-02  0.1294076E+00
         -1   -1    0    0    0  501 -0.00000000000E+00  0.00000000000E+00  0.12383949682E+03  0.12383949682E+03  0.00000000000E+00 0.  1.
          1   -1    0    0  501    0  0.00000000000E+00 -0.00000000000E+00 -0.11159538688E+03  0.11159538688E+03  0.00000000000E+00 0. -1.
         25    2    1    2    0    0  0.42495201473E+01 -0.40532755564E+02 -0.17072458386E+02  0.13266832939E+03  0.12509378119E+03 0.  0.
         23    2    1    2    0    0 -0.42495201473E+01  0.40532755564E+02  0.29316568322E+02  0.10276655432E+03  0.89669062744E+02 0.  0.
          5    1    3    3  502    0  0.10677349610E+02 -0.64477911164E+02 -0.56106882272E+02  0.86237239410E+02  0.41800000000E+01 0.  1.
         -5    1    3    3    0  502 -0.64278294627E+01  0.23945155600E+02  0.39034423886E+02  0.46431089976E+02  0.41800000000E+01 0.  1.
        -11    1    4    4    0    0  0.12699429057E+02  0.65455595504E+02  0.28778823594E+02  0.72621836720E+02  0.00000000000E+00 0. -1.
         11    1    4    4    0    0 -0.16948949204E+02 -0.24922839939E+02  0.53774472771E+00  0.30144717600E+02  0.00000000000E+00 0.  1.
</event>
<event>
 8    1  0.6597859E-009  0.1048818E+03  0.7561462E-02  0.1270353E+00
          1   -1    0    0  501    0  0.00000000000E+00  0.00000000000E+00  0.44003649100E+03  0.44003649100E+03  0.00000000000E+00 0. -1.
         -1   -1    0    0    0  501 -0.00000000000E+00 -0.00000000000E+00 -0.49436606621E+02  0.49436606621E+02  0.00000000000E+00 0.  1.
         25    2    1    2    0    0  0.16703659368E+02  0.73411434080E+02  0.10599964013E+03  0.18042577728E+03  0.12509710832E+03 0.  0.
         23    2    1    2    0    0 -0.16703659368E+02 -0.73411434080E+02  0.28460024425E+03  0.30904732034E+03  0.94046245499E+02 0.  0.
          5    1    3    3  502    0  0.56243565792E+02  0.67377868167E+02  0.27239079466E+02  0.91992150001E+02  0.41800000000E+01 0. -1.
         -5    1    3    3    0  502 -0.39539906425E+02  0.60335659130E+01  0.78760560664E+02  0.88433627280E+02  0.41800000000E+01 0. -1.
        -11    1    4    4    0    0 -0.10230236733E+02 -0.25746336540E+01 -0.43939646602E+01  0.11427747263E+02  0.00000000000E+00 0.  1.
         11    1    4    4    0    0 -0.64734226341E+01 -0.70836800426E+02  0.28899420891E+03  0.29761957307E+03  0.00000000000E+00 0. -1.
</event>
<event>
 8    1  0.6597859E-009  0.1033117E+03  0.7561462E-02  0.1273482E+00
         -3   -1    0    0    0  501 -0.00000000000E+00  0.00000000000E+00  0.15488072219E+03  0.15488072219E+03  0.00000000000E+00 0.  1.
          3   -1    0    0  501    0  0.00000000000E+00 -0.00000000000E+00 -0.12207744980E+03  0.12207744980E+03  0.00000000000E+00 0. -1.
         25    2    1    2    0    0 -0.37290881163E+02  0.54294075638E+02  0.70554044653E+02  0.15800874783E+03  0.12510169745E+03 0.  0.
         23    2    1    2    0    0  0.37290881163E+02 -0.54294075638E+02 -0.37750772262E+02  0.11894942417E+03  0.91571765501E+02 0.  0.
          5    1    3    3  502    0 -0.62041627151E+02  0.39625198878E+02 -0.80764061119E+01  0.74175606647E+02  0.41800000000E+01 0. -1.
         -5    1    3    3    0  502  0.24750745988E+02  0.14668876760E+02  0.78630450765E+02  0.83833141179E+02  0.41800000000E+01 0. -1.
        -11    1    4    4    0    0  0.62558525221E+02 -0.44241836998E+02 -0.47395759670E+02  0.90095878115E+02  0.00000000000E+00 0.  1.
         11    1    4    4    0    0 -0.25267644058E+02 -0.10052238640E+02  0.96449874074E+01  0.28853546056E+02  0.00000000000E+00 0. -1.
</event>
<event>
 8    1  0.6597859E-009  0.1198073E+03  0.7561462E-02  0.1243415E+00
         -1   -1    0    0    0  501 -0.00000000000E+00  0.00000000000E+00  0.15142319499E+03  0.15142319499E+03  0.00000000000E+00 0.  1.
          1   -1    0    0  501    0  0.00000000000E+00 -0.00000000000E+00 -0.11465676158E+03  0.11465676158E+03  0.00000000000E+00 0. -1.
         25    2    1    2    0    0 -0.43458297411E+02 -0.43904831496E+02 -0.22141680940E+02  0.14126225191E+03  0.12509401239E+03 0.  0.
         23    2    1    2    0    0  0.43458297411E+02  0.43904831496E+02  0.58908114346E+02  0.12481770466E+03  0.91066105762E+02 0.  0.
          5    1    3    3  502    0 -0.15353768584E+02  0.40591806091E+02 -0.28177329410E+02  0.51912110573E+02  0.41800000000E+01 0.  1.
         -5    1    3    3    0  502 -0.28104528827E+02 -0.84496637587E+02  0.60356484698E+01  0.89350141334E+02  0.41800000000E+01 0.  1.
        -11    1    4    4    0    0 -0.23623384807E+02  0.30301821574E+02  0.73351393270E+01  0.39116096039E+02  0.00000000000E+00 0. -1.
         11    1    4    4    0    0  0.67081682218E+02  0.13603009922E+02  0.51572975019E+02  0.85701608622E+02  0.00000000000E+00 0.  1.
</event>
<event>
 8    1  0.6597859E-009  0.1014378E+03  0.7561462E-02  0.1277301E+00
         -1   -1    0    0    0  501 -0.00000000000E+00  0.00000000000E+00  0.10049116044E+03  0.10049116044E+03  0.00000000000E+00 0.  1.
          1   -1    0    0  501    0  0.00000000000E+00 -0.00000000000E+00 -0.13904288556E+03  0.13904288556E+03  0.00000000000E+00 0. -1.
         25    2    1    2    0    0  0.12397864886E+02 -0.30315626062E+02 -0.54610168415E+02  0.14036513786E+03  0.12508939681E+03 0.  0.
         23    2    1    2    0    0 -0.12397864886E+02  0.30315626062E+02  0.16058443296E+02  0.99168908148E+02  0.92216346192E+02 0.  0.
          5    1    3    3  502    0  0.52837068479E+02 -0.35855539261E+02  0.90502529818E+01  0.64627818934E+02  0.41800000000E+01 0.  1.
         -5    1    3    3    0  502 -0.40439203593E+02  0.55399131990E+01 -0.63660421397E+02  0.75737318925E+02  0.41800000000E+01 0.  1.
        -11    1    4    4    0    0  0.36931439165E+01  0.62110154764E+02  0.96903739774E+01  0.62969945090E+02  0.00000000000E+00 0. -1.
         11    1    4    4    0    0 -0.16091008802E+02 -0.31794528702E+02  0.63680693184E+01  0.36198963058E+02  0.00000000000E+00 0.  1.
</event>
<event>
 8    1  0.6597859E-009  0.1104342E+03  0.7561462E-02  0.1259768E+00
          2   -1    0    0  501    0  0.00000000000E+00  0.00000000000E+00  0.84123321875E+03  0.84123321875E+03  0.00000000000E+00 0. -1.
         -2   -1    0    0    0  501 -0.00000000000E+00 -0.00000000000E+00 -0.18867075658E+02  0.18867075658E+02  0.00000000000E+00 0.  1.
         25    2    1    2    0    0 -0.14484987365E+02 -0.62789942033E+02  0.45167129126E+03  0.47308227851E+03  0.12508994850E+03 0.  0.
         23    2    1    2    0    0  0.14484987365E+02  0.62789942033E+02  0.37069485183E+03  0.38701801589E+03  0.90641490347E+02 0.  0.
          5    1    3    3  502    0  0.27014303462E+02  0.74301092611E+01  0.22409385314E+02  0.36119690825E+02  0.41800000000E+01 0.  1.
         -5    1    3    3    0  502 -0.41499290827E+02 -0.70220051294E+02  0.42926190594E+03  0.43696258768E+03  0.41800000000E+01 0.  1.
        -11    1    4    4    0    0  0.95653288565E+01  0.86310034032E+02  0.30227278177E+03  0.31449920841E+03  0.00000000000E+00 0. -1.
         11    1    4    4    0    0  0.49196585085E+01 -0.23520091999E+02  0.68422070065E+02  0.72518807488E+02  0.00000000000E+00 0.  1.
</event>
<event>
 8    1  0.6597859E-009  0.1322518E+03  0.7561462E-02  0.1224152E+00
          3   -1    0    0  501    0  0.00000000000E+00  0.00000000000E+00  0.71179019701E+02  0.71179019701E+02  0.00000000000E+00 0. -1.
         -3   -1    0    0    0  501 -0.00000000000E+00 -0.00000000000E+00 -0.27354005561E+03  0.27354005561E+03  0.00000000000E+00 0.  1.
         25    2    1    2    0    0 -0.24598348853E+02  0.81264195250E+02 -0.14374149637E+03  0.20861143415E+03  0.12509262362E+03 0.  0.
         23    2    1    2    0    0  0.24598348853E+02 -0.81264195250E+02 -0.58619539538E+02  0.13610764116E+03  0.88769878733E+02 0.  0.
          5    1    3    3  502    0  0.46797892382E+02  0.60673558549E+02 -0.71127761788E+02  0.10463247266E+03  0.41800000000E+01 0. -1.
         -5    1    3    3    0  502 -0.71396241234E+02  0.20590636702E+02 -0.72613734581E+02  0.10397896149E+03  0.41800000000E+01 0. -1.
        -11    1    4    4    0    0 -0.24988574959E+02 -0.46478183292E+02 -0.14081988693E+01  0.52788572860E+02  0.00000000000E+00 0. -1.
         11    1    4    4    0    0  0.49586923811E+02 -0.34786011959E+02 -0.57211340669E+02  0.83319068299E+02  0.00000000000E+00 0.  1.
</event>
<event>
 7    1  0.6597859E-009  0.1071977E+03  0.7561462E-02  0.1265849E+00
          1   -1    0    0  501    0  0.00000000000E+00  0.00000000000E+00  0.43165760345E+03  0.43165760345E+03  0.00000000000E+00 0. -1.
         -1   -1    0    0    0  501 -0.00000000000E+00 -0.00000000000E+00 -0.29748057662E+02  0.29748057662E+02  0.00000000000E+00 0.  1.
         25    2    1    2    0    0  0.29054443660E+02  0.49995585934E+02  0.32221554117E+03  0.35044872638E+03  0.12509090911E+03 0.  0.
          5    1    3    3  502    0 -0.47451797828E+02  0.25929464994E+01  0.11300024387E+03  0.12265775150E+03  0.41800000000E+01 0.  1.
         -5    1    3    3    0  502  0.76506241488E+02  0.47402639434E+02  0.20921529730E+03  0.22779097488E+03  0.41800000000E+01 0.  1.
        -11    1    1    2    0    0 -0.42654976565E+01 -0.51575746489E+02  0.47093365617E+02  0.69971688427E+02  0.00000000000E+00 0.  1.
         11    1    1    2    0    0 -0.24788946004E+02  0.15801605556E+01  0.32600639003E+02  0.40985246306E+02  0.00000000000E+00 0. -1.
</event>
<event>
 8    1  0.6597859E-009  0.7565039E+02  0.7561462E-02  0.1341869E+00
          2   -1    0    0  501    0  0.00000000000E+00  0.00000000000E+00  0.39154162670E+02  0.39154162670E+02  0.00000000000E+00 0. -1.
         -2   -1    0    0    0  501 -0.00000000000E+00 -0.00000000000E+00 -0.34325622294E+03  0.34325622294E+03  0.00000000000E+00 0.  1.
         25    2    1    2    0    0  0.17895073178E+02  0.21298062429E+02 -0.21919546221E+03  0.25390634239E+03  0.12509172212E+03 0.  0.
         23    2    1    2    0    0 -0.17895073178E+02 -0.21298062429E+02 -0.84906598054E+02  0.12850404322E+03  0.92359718620E+02 0.  0.
          5    1    3    3  502    0  0.55663457006E+02 -0.14325978419E+01 -0.38400876303E+02  0.67768521330E+02  0.41800000000E+01 0. -1.
         -5    1    3    3    0  502 -0.37768383828E+02  0.22730660271E+02 -0.18079458591E+03  0.18613782106E+03  0.41800000000E+01 0. -1.
        -11    1    4    4    0    0  0.14267867264E+02 -0.81950012725E+01 -0.91658986089E+02  0.93124109730E+02  0.00000000000E+00 0.  1.
         11    1    4    4    0    0 -0.32162940442E+02 -0.13103061157E+02  0.67523880355E+01  0.35379933489E+02  0.00000000000E+00 0. -1.
</event>
<event>
 8    1  0.6597859E-009  0.1097268E+03  0.7561462E-02  0.1261077E+00
         -2   -1    0    0    0  501 -0.00000000000E+00  0.00000000000E+00  0.47710022475E+03  0.47710022475E+03  0.00000000000E+00 0. -1.
          2   -1    0    0  501    0  0.00000000000E+00 -0.00000000000E+00 -0.48367765031E+02  0.48367765031E+02  0.00000000000E+00 0.  1.
         25    2    1    2    0    0 -0.41565482453E+02 -0.69781025232E+02  0.34425765976E+03  0.37517698165E+03  0.12508936980E+03 0.  0.
         23    2    1    2    0    0  0.41565482453E+02  0.69781025232E+02  0.84474799952E+02  0.15029100813E+03  0.94097367040E+02 0.  0.
          5    1    3    3  502    0 -0.49134724180E+01  0.82970882865E+01  0.23810179725E+03  0.23833363619E+03  0.41800000000E+01 0.  1.
         -5    1    3    3    0  502 -0.36652010035E+02 -0.78078113518E+02  0.10615586251E+03  0.13684334546E+03  0.41800000000E+01 0.  1.
        -11    1    4    4    0    0  0.13399116580E+02 -0.22454957732E+02  0.84253117620E+01  0.27472665145E+02  0.00000000000E+00 0.  1.
         11    1    4    4    0    0  0.28166365872E+02  0.92235982963E+02  0.76049488190E+02  0.12281834299E+03  0.00000000000E+00 0. -1.
</event>
<event>
 8    1  0.6597859E-009  0.1447487E+03  0.7561462E-02  0.1207078E+00
         -2   -1    0    0    0  501 -0.00000000000E+00  0.00000000000E+00  0.29798090522E+02  0.29798090522E+02  0.00000000000E+00 0. -1.
          2   -1    0    0  501    0  0.00000000000E+00 -0.00000000000E+00 -0.12264793674E+04  0.12264793674E+04  0.00000000000E+00 0.  1.
         25    2    1    2    0    0 -0.73005312528E+02  0.65299265476E+02 -0.10361893585E+04  0.10482987913E+04  0.12509276388E+03 0.  0.
         23    2    1    2    0    0  0.73005312528E+02 -0.65299265476E+02 -0.16049191842E+03  0.20797866660E+03  0.88902756731E+02 0.  0.
          5    1    3    3  502    0 -0.99557361556E+02  0.80379863208E+02 -0.84344976271E+03  0.85311052347E+03  0.41800000000E+01 0. -1.
         -5    1    3    3    0  502  0.26552049028E+02 -0.15080597733E+02 -0.19273959577E+03  0.19518826786E+03  0.41800000000E+01 0. -1.
        -11    1    4    4    0    0  0.58552296669E+02  0.51109486891E+01 -0.88563314197E+02  0.10629183347E+03  0.00000000000E+00 0.  1.
         11    1    4    4    0    0  0.14453015859E+02 -0.70410214165E+02 -0.71928604227E+02  0.10168683313E+03  0.00000000000E+00 0. -1.
</event>
<event>
 8    1  0.6597859E-009  0.1770585E+03  0.7561462E-02  0.1170681E+00
         -1   -1    0    0    0  501 -0.00000000000E+00  0.00000000000E+00  0.70200312536E+02  0.70200312536E+02  0.00000000000E+00 0.  1.
          1   -1    0    0  501    0  0.00000000000E+00 -0.00000000000E+00 -0.48195269078E+03  0.48195269078E+03  0.00000000000E+00 0. -1.
         25    2    1    2    0    0  0.14348998133E+03 -0.37058920862E+02 -0.21857563306E+03  0.29220733000E+03  0.12508828075E+03 0.  0.
         23    2    1    2    0    0 -0.14348998133E+03  0.37058920862E+02 -0.19317674519E+03  0.25994567332E+03  0.91059100815E+02 0.  0.
          5    1    3    3  502    0 -0.19687328644E+02  0.11520626412E+02 -0.32947419534E+02  0.40290452914E+02  0.41800000000E+01 0. -1.
         -5    1    3    3    0  502  0.16317730997E+03 -0.48579547274E+02 -0.18562821352E+03  0.25191687708E+03  0.41800000000E+01 0. -1.
        -11    1    4    4    0    0 -0.10686825820E+03  0.54606863863E+02 -0.18168275797E+03  0.21774149521E+03  0.00000000000E+00 0. -1.
         11    1    4    4    0    0 -0.36621723124E+02 -0.17547943002E+02 -0.11493987220E+02  0.42204178115E+02  0.00000000000E+00 0.  1.
</event>
<event>
 8    1  0.6597859E-009  0.8390497E+02  0.7561462E-02  0.1318321E+00
         -1   -1    0    0    0  501 -0.00000000000E+00  0.00000000000E+00  0.25643450996E+03  0.25643450996E+03  0.00000000000E+00 0.  1.
          1   -1    0    0  501    0  0.00000000000E+00 -0.00000000000E+00 -0.11537777110E+03  0.11537777110E+03  0.00000000000E+00 0. -1.
         25    2    1    2    0    0  0.46629630118E+02  0.98805924394E+01  0.20902609558E+03  0.24821730485E+03  0.12509185937E+03 0.  0.
         23    2    1    2    0    0 -0.46629630118E+02 -0.98805924394E+01 -0.67969356721E+02  0.12359497622E+03  0.91563836644E+02 0.  0.
          5    1    3    3  502    0  0.49997867973E+02  0.23290352269E+02  0.22200876239E+03  0.22879595777E+03  0.41800000000E+01 0. -1.
         -5    1    3    3    0  502 -0.33682378550E+01 -0.13409759829E+02 -0.12982666813E+02  0.19421347083E+02  0.41800000000E+01 0. -1.
        -11    1    4    4    0    0 -0.35691130898E+02 -0.47192291403E+02 -0.21382052626E+02  0.62913920297E+02  0.00000000000E+00 0. -1.
         11    1    4    4    0    0 -0.10938499220E+02  0.37311698963E+02 -0.46587304095E+02  0.60681055920E+02  0.00000000000E+00 0.  1.
</event>
<event>
 8    1  0.6597859E-009  0.1441934E+03  0.7561462E-02  0.1207795E+00
         -1   -1    0    0    0  501 -0.00000000000E+00  0.00000000000E+00  0.14653051174E+03  0.14653051174E+03  0.00000000000E+00 0.  1.
          1   -1    0    0  501    0  0.00000000000E+00 -0.00000000000E+00 -0.20812873763E+03  0.20812873763E+03  0.00000000000E+00 0. -1.
         25    2    1    2    0    0  0.11975777154E+03 -0.60375445599E+02 -0.56410846307E+02  0.19188174554E+03  0.12509717189E+03 0.  0.
         23    2    1    2    0    0 -0.11975777154E+03  0.60375445599E+02 -0.51873795802E+01  0.16277750383E+03  0.92100426550E+02 0.  0.
          5    1    3    3  502    0  0.11977475592E+03 -0.48227376529E+02  0.48598843247E+01  0.12927862499E+03  0.41800000000E+01 0.  1.
         -5    1    3    3    0  502 -0.16984379242E-01 -0.12148069069E+02 -0.61270730632E+02  0.62603120551E+02  0.41800000000E+01 0.  1.
        -11    1    4    4    0    0 -0.11307678620E+03  0.32452641648E+02  0.25901512804E+02  0.12045921257E+03  0.00000000000E+00 0.  1.
         11    1    4    4    0    0 -0.66809853410E+01  0.27922803950E+02 -0.31088892384E+02  0.42318291261E+02  0.00000000000E+00 0. -1.
</event>
<event>
 8    1  0.6597859E-009  0.1364856E+03  0.7561462E-02  0.1218138E+00
          2   -1    0    0  501    0  0.00000000000E+00  0.00000000000E+00  0.11111771476E+04  0.11111771476E+04  0.00000000000E+00 0. -1.
         -2   -1    0    0    0  501 -0.00000000000E+00 -0.00000000000E+00 -0.18343131191E+02  0.18343131191E+02  0.00000000000E+00 0.  1.
         25    2    1    2    0    0  0.29003803407E+02 -0.83830964518E+02  0.69800745764E+03  0.71465455962E+03  0.12509147631E+03 0.  0.
         23    2    1    2    0    0 -0.29003803407E+02  0.83830964518E+02  0.39482655877E+03  0.41486571917E+03  0.91414999897E+02 0.  0.
          5    1    3    3  502    0  0.72385341937E+02 -0.25911092420E+02  0.43874082641E+03  0.44544585260E+03  0.41800000000E+01 0.  1.
         -5    1    3    3    0  502 -0.43381538530E+02 -0.57919872097E+02  0.25926663122E+03  0.26920870702E+03  0.41800000000E+01 0.  1.
        -11    1    4    4    0    0 -0.41684231937E+02  0.96773832964E+02  0.29143694654E+03  0.30990037713E+03  0.00000000000E+00 0.  1.
         11    1    4    4    0    0  0.12680428530E+02 -0.12942868446E+02  0.10338961223E+03  0.10496534204E+03  0.00000000000E+00 0. -1.
</event>
<event>
 8    1  0.6597859E-009  0.1139343E+03  0.7561462E-02  0.1253453E+00
         -1   -1    0    0    0  501 -0.00000000000E+00  0.00000000000E+00  0.26065233961E+03  0.26065233961E+03  0.00000000000E+00 0.  1.
          1   -1    0    0  501    0  0.00000000000E+00 -0.00000000000E+00 -0.98014007083E+02  0.98014007083E+02  0.00000000000E+00 0. -1.
         25    2    1    2    0    0 -0.77782804242E+02  0.13927553491E+02  0.18373298201E+03  0.23590156198E+03  0.12509035489E+03 0.  0.
         23    2    1    2    0    0  0.77782804242E+02 -0.13927553491E+02 -0.21094649482E+02  0.12276478471E+03  0.91553627708E+02 0.  0.
          5    1    3    3  502    0 -0.10769721985E+03 -0.11134423381E+02  0.12741642870E+03  0.16725754168E+03  0.41800000000E+01 0. -1.
         -5    1    3    3    0  502  0.29914415610E+02  0.25061976872E+02  0.56316553313E+02  0.68644020301E+02  0.41800000000E+01 0. -1.
        -11    1    4    4    0    0  0.50631437866E+02 -0.21630433187E+01  0.33442257953E+02  0.60717426442E+02  0.00000000000E+00 0.  1.
         11    1    4    4    0    0  0.27151366375E+02 -0.11764510172E+02 -0.54536907434E+02  0.62047358269E+02  0.00000000000E+00 0. -1.
</event>
<event>
 8    1  0.6597859E-009  0.1085763E+03  0.7561462E-02  0.1263229E+00
          1   -1    0    0  501    0  0.00000000000E+00  0.00000000000E+00  0.11672408107E+03  0.11672408107E+03  0.00000000000E+00 0. -1.
         -1   -1    0    0    0  501 -0.00000000000E+00 -0.00000000000E+00 -0.15622757940E+03  0.15622757940E+03  0.00000000000E+00 0.  1.
         25    2    1    2    0    0 -0.39071616981E+01  0.64880181081E+02  0.25756885722E+02  0.14330456628E+03  0.12509227692E+03 0.  0.
         23    2    1    2    0    0  0.39071616981E+01 -0.64880181081E+02 -0.65260384060E+02  0.12964709419E+03  0.91240054219E+02 0.  0.
          5    1    3    3  502    0  0.39646539244E+00 -0.25416391104E+02  0.44001791335E+02  0.50988039403E+02  0.41800000000E+01 0.  1.
         -5    1    3    3    0  502 -0.43036270906E+01  0.90296572185E+02 -0.18244905613E+02  0.92316526881E+02  0.41800000000E+01 0.  1.
        -11    1    4    4    0    0 -0.28926257998E+02 -0.61407704403E+02 -0.15007885461E+02  0.69518854909E+02  0.00000000000E+00 0. -1.
         11    1    4    4    0    0  0.32833419696E+02 -0.34724766779E+01 -0.50252498599E+02  0.60128239278E+02  0.00000000000E+00 0.  1.
</event>
<event>
 8    1  0.6597859E-009  0.1235577E+03  0.7561462E-02  0.1237341E+00
         -2   -1    0    0    0  501 -0.00000000000E+00  0.00000000000E+00  0.11541513325E+02  0.11541513325E+02  0.00000000000E+00 0.  1.
          2   -1    0    0  501    0  0.00000000000E+00 -0.00000000000E+00 -0.21639281766E+04  0.21639281766E+04  0.00000000000E+00 0. -1.
         25    2    1    2    0    0  0.79294491552E+02  0.49819605740E+02 -0.16056280084E+04  0.16132136993E+04  0.12509008280E+03 0.  0.
         23    2    1    2    0    0 -0.79294491552E+02 -0.49819605740E+02 -0.54675865489E+03  0.56225599062E+03  0.91745096771E+02 0.  0.
          5    1    3    3  502    0 -0.84307030807E-01  0.50992648251E+02 -0.24603615786E+03  0.25129966307E+03  0.41800000000E+01 0.  1.
         -5    1    3    3    0  502  0.79378798583E+02 -0.11730425105E+01 -0.13595918505E+04  0.13619140362E+04  0.41800000000E+01 0.  1.
        -11    1    4    4    0    0  0.81666155749E+01 -0.23864472194E+02 -0.39554932812E+02  0.46912677954E+02  0.00000000000E+00 0.  1.
         11    1    4    4    0    0 -0.87461107127E+02 -0.25955133546E+02 -0.50720372208E+03  0.51534331266E+03  0.00000000000E+00 0. -1.
</event>
<event>
 8    1  0.6597859E-009  0.1007746E+03  0.7561462E-02  0.1278676E+00
         -1   -1    0    0    0  501 -0.00000000000E+00  0.00000000000E+00  0.66442734072E+02  0.66442734072E+02  0.00000000000E+00 0.  1.
          1   -1    0    0  501    0  0.00000000000E+00 -0.00000000000E+00 -0.34860993476E+03  0.34860993476E+03  0.00000000000E+00 0. -1.
         25    2    1    2    0    0 -0.75678207692E+02  0.16460498858E+01 -0.50675857816E+02  0.15474234246E+03  0.12508896588E+03 0.  0.
         23    2    1    2    0    0  0.75678207692E+02 -0.16460498858E+01 -0.23149134287E+03  0.26031032637E+03  0.91887559510E+02 0.  0.
          5    1    3    3  502    0 -0.26542721953E+02  0.32050514733E+02  0.32787393467E+02  0.53143552325E+02  0.41800000000E+01 0. -1.
         -5    1    3    3    0  502 -0.49135485739E+02 -0.30404464847E+02 -0.83463251283E+02  0.10159879013E+03  0.41800000000E+01 0. -1.
        -11    1    4    4    0    0  0.66128755541E+02  0.27126921880E+02 -0.86628757841E+02  0.11230950042E+03  0.00000000000E+00 0.  1.
         11    1    4    4    0    0  0.95494521518E+01 -0.28772971766E+02 -0.14486258503E+03  0.14800082595E+03  0.00000000000E+00 0. -1.
</event>
<event>
 8    1  0.6597859E-009  0.7163827E+02  0.7561462E-02  0.1354609E+00
          1   -1    0    0  501    0  0.00000000000E+00  0.00000000000E+00  0.40545435578E+03  0.40545435578E+03  0.00000000000E+00 0. -1.
         -1   -1    0    0    0  501 -0.00000000000E+00 -0.00000000000E+00 -0.36629057517E+02  0.36629057517E+02  0.00000000000E+00 0.  1.
         25    2    1    2    0    0 -0.44506062633E+02 -0.30470729855E+02  0.23011513472E+03  0.26741454303E+03  0.12509319569E+03 0.  0.
         23    2    1    2    0    0  0.44506062633E+02  0.30470729855E+02  0.13871016354E+03  0.17466887027E+03  0.91430026697E+02 0.  0.
          5    1    3    3  502    0 -0.17051498704E+02  0.16561523217E+02  0.20650528628E+03  0.20791090236E+03  0.41800000000E+01 0. -1.
         -5    1    3    3    0  502 -0.27454563929E+02 -0.47032253073E+02  0.23609848446E+02  0.59503640672E+02  0.41800000000E+01 0. -1.
        -11    1    4    4    0    0 -0.41336166758E+01  0.11661160925E+02 -0.10738633939E+02  0.16382543142E+02  0.00000000000E+00 0.  1.
         11    1    4    4    0    0  0.48639679309E+02  0.18809568930E+02  0.14944879748E+03  0.15828632712E+03  0.00000000000E+00 0. -1.
</event>
<event>
 8    1  0.6597859E-009  0.9133378E+02  0.7561462E-02  0.1299654E+00
         -1   -1    0    0    0  501 -0.00000000000E+00  0.00000000000E+00  0.19195964726E+03  0.19195964726E+03  0.00000000000E+00 0.  1.
          1   -1    0    0  501    0  0.00000000000E+00 -0.00000000000E+00 -0.66004677053E+02  0.66004677053E+02  0.00000000000E+00 0. -1.
         25    2    1    2    0    0 -0.19609053145E+02  0.18346360696E+02  0.90458223945E+02  0.15670243025E+03  0.12510738368E+03 0.  0.
         23    2    1    2    0    0  0.19609053145E+02 -0.18346360696E+02  0.35496746266E+02  0.10126189407E+03  0.90955199294E+02 0.  0.
          5    1    3    3  502    0 -0.43053709042E+02  0.53981967830E+02  0.16331384516E+02  0.71076446403E+02  0.41800000000E+01 0.  1.
         -5    1    3    3    0  502  0.23444655897E+02 -0.35635607134E+02  0.74126839429E+02  0.85625983847E+02  0.41800000000E+01 0.  1.
        -11    1    4    4    0    0 -0.24182034541E+02 -0.37402004649E+01  0.47615439391E+02  0.53534941510E+02  0.00000000000E+00 0.  1.
         11    1    4    4    0    0  0.43791087685E+02 -0.14606160232E+02 -0.12118693125E+02  0.47726952558E+02  0.00000000000E+00 0. -1.
</event>
<event>
 8    1  0.6597859E-009  0.1028737E+03  0.7561462E-02  0.1274366E+00
          1   -1    0    0  501    0  0.00000000000E+00  0.00000000000E+00  0.14872442138E+03  0.14872442138E+03  0.00000000000E+00 0. -1.
         -1   -1    0    0    0  501 -0.00000000000E+00 -0.00000000000E+00 -0.15428895986E+03  0.15428895986E+03  0.00000000000E+00 0.  1.
         25    2    1    2    0    0  0.38023843580E+02 -0.75735837957E+02  0.59648535090E+02  0.16244071675E+03  0.12508920373E+03 0.  0.
         23    2    1    2    0    0 -0.38023843580E+02  0.75735837957E+02 -0.65213073568E+02  0.14057266449E+03  0.91248009333E+02 0.  0.
          5    1    3    3  502    0  0.22057816251E+02 -0.58621090598E+02 -0.30085478424E+02  0.69610257381E+02  0.41800000000E+01 0. -1.
         -5    1    3    3    0  502  0.15966027329E+02 -0.17114747359E+02  0.89734013513E+02  0.92830459371E+02  0.41800000000E+01 0. -1.
        -11    1    4    4    0    0 -0.39578163851E+02 -0.36968681893E+01 -0.33714066611E+01  0.39893160706E+02  0.00000000000E+00 0. -1.
         11    1    4    4    0    0  0.15543202714E+01  0.79432706146E+02 -0.61841666907E+02  0.10067950379E+03  0.00000000000E+00 0.  1.
</event>
<event>
 8    1  0.6597859E-009  0.1333135E+03  0.7561462E-02  0.1222620E+00
          1   -1    0    0  501    0  0.00000000000E+00  0.00000000000E+00  0.33765506002E+04  0.33765506002E+04  0.00000000000E+00 0. -1.
         -1   -1    0    0    0  501 -0.00000000000E+00 -0.00000000000E+00 -0.12114651447E+02  0.12114651447E+02  0.00000000000E+00 0.  1.
         25    2    1    2    0    0  0.76545210727E+02  0.95332810020E+02  0.27627858365E+04  0.27683178013E+04  0.12510138443E+03 0.  0.
         23    2    1    2    0    0 -0.76545210727E+02 -0.95332810020E+02  0.60165011225E+03  0.62034745039E+03  0.88885250141E+02 0.  0.
          5    1    3    3  502    0  0.37710784160E+00  0.36969224939E+01  0.38113850323E+01  0.67681978484E+01  0.41800000000E+01 0.  1.
         -5    1    3    3    0  502  0.76168102886E+02  0.91635887526E+02  0.27589744515E+04  0.27615496034E+04  0.41800000000E+01 0.  1.
        -11    1    4    4    0    0 -0.13103054922E+02 -0.73575220870E+02  0.20785405463E+03  0.22088076240E+03  0.00000000000E+00 0. -1.
         11    1    4    4    0    0 -0.63442155806E+02 -0.21757589150E+02  0.39379605762E+03  0.39946668799E+03  0.00000000000E+00 0.  1.
</event>
<event>
 8    1  0.6597859E-009  0.6012849E+02  0.7561462E-02  0.1397293E+00
         -2   -1    0    0    0  501 -0.00000000000E+00  0.00000000000E+00  0.43067089435E+03  0.43067089435E+03  0.00000000000E+00 0.  1.
          2   -1    0    0  501    0  0.00000000000E+00 -0.00000000000E+00 -0.26965086006E+02  0.26965086006E+02  0.00000000000E+00 0. -1.
         25    2    1    2    0    0 -0.37993987717E+01 -0.30415242469E+02  0.27533666107E+03  0.30396713969E+03  0.12508486191E+03 0.  0.
         23    2    1    2    0    0  0.37993987717E+01  0.30415242469E+02  0.12836914728E+03  0.15366884066E+03  0.78714371072E+02 0.  0.
          5    1    3    3  502    0 -0.85579650023E+00 -0.54787239783E+02  0.41639758856E+02  0.68947196812E+02  0.41800000000E+01 0. -1.
         -5    1    3    3    0  502 -0.29436022715E+01  0.24371997314E+02  0.23369690222E+03  0.23501994288E+03  0.41800000000E+01 0. -1.
        -11    1    4    4    0    0  0.13224542374E+02  0.65815647552E+01 -0.66780228936E+01  0.16211153734E+02  0.00000000000E+00 0. -1.
         11    1    4    4    0    0 -0.94251436024E+01  0.23833677714E+02  0.13504717017E+03  0.13745768693E+03  0.00000000000E+00 0.  1.
</event>
<event>
 8    1  0.6597859E-009  0.1352403E+03  0.7561462E-02  0.1219881E+00
          1   -1    0    0  501    0  0.00000000000E+00  0.00000000000E+00  0.15229984138E+03  0.15229984138E+03  0.00000000000E+00 0. -1.
         -1   -1    0    0    0  501 -0.00000000000E+00 -0.00000000000E+00 -0.15269202290E+03  0.15269202290E+03  0.00000000000E+00 0.  1.
         25    2    1    2    0    0 -0.79873602749E+02  0.61741310964E+02  0.32960706505E+02  0.16409044877E+03  0.12508990890E+03 0.  0.
         23    2    1    2    0    0  0.79873602749E+02 -0.61741310964E+02 -0.33352888029E+02  0.14090141552E+03  0.92460866637E+02 0.  0.
          5    1    3    3  502    0 -0.10692755110E+03  0.74418111027E+02  0.23257569055E+02  0.13240069241E+03  0.41800000000E+01 0. -1.
         -5    1    3    3    0  502  0.27053948353E+02 -0.12676800063E+02  0.97031374504E+01  0.31689756353E+02  0.41800000000E+01 0. -1.
        -11    1    4    4    0    0  0.69401114584E+02 -0.28336697655E+02 -0.60717090371E+02  0.96467860983E+02  0.00000000000E+00 0.  1.
         11    1    4    4    0    0  0.10472488165E+02 -0.33404613309E+02  0.27364202343E+02  0.44433554534E+02  0.00000000000E+00 0. -1.
</event>
<event>
 8    1  0.6597859E-009  0.1345446E+03  0.7561462E-02  0.1220864E+00
          2   -1    0    0  501    0  0.00000000000E+00  0.00000000000E+00  0.14589052517E+04  0.14589052517E+04  0.00000000000E+00 0. -1.
         -2   -1    0    0    0  501 -0.00000000000E+00 -0.00000000000E+00 -0.13506436613E+02  0.13506436613E+02  0.00000000000E+00 0.  1.
         25    2    1    2    0    0 -0.26854681069E+02  0.77005206294E+02  0.86313547318E+03  0.87595729970E+03  0.12508944861E+03 0.  0.
         23    2    1    2    0    0  0.26854681069E+02 -0.77005206294E+02  0.58226334186E+03  0.59645438856E+03  0.10038058910E+03 0.  0.
          5    1    3    3  502    0 -0.14354263457E+02  0.10654054916E+03  0.50323763266E+03  0.51460909515E+03  0.41800000000E+01 0.  1.
         -5    1    3    3    0  502 -0.12500417612E+02 -0.29535342863E+02  0.35989784052E+03  0.36134820455E+03  0.41800000000E+01 0.  1.
        -11    1    4    4    0    0 -0.27022260859E+02 -0.69746399273E+02  0.32188860804E+03  0.33046488282E+03  0.00000000000E+00 0. -1.
         11    1    4    4    0    0  0.53876941928E+02 -0.72588070204E+01  0.26037473382E+03  0.26598950574E+03  0.00000000000E+00 0.  1.
</event>
<event>
 8    1  0.6597859E-009  0.9127599E+02  0.7561462E-02  0.1299791E+00
          4   -1    0    0  501    0  0.00000000000E+00  0.00000000000E+00  0.12958654022E+03  0.12958654022E+03  0.00000000000E+00 0. -1.
         -4   -1    0    0    0  501 -0.00000000000E+00 -0.00000000000E+00 -0.22640871964E+03  0.22640871964E+03  0.00000000000E+00 0.  1.
         25    2    1    2    0    0  0.41856746883E+02 -0.69323358853E+02 -0.15855554606E+03  0.21759115497E+03  0.12509330194E+03 0.  0.
         23    2    1    2    0    0 -0.41856746883E+02  0.69323358853E+02  0.61733366646E+02  0.13840410490E+03  0.93738851890E+02 0.  0.
          5    1    3    3  502    0  0.71447065617E+01 -0.60485128965E+02 -0.16929286191E+03  0.17996400516E+03  0.41800000000E+01 0. -1.
         -5    1    3    3    0  502  0.34712040321E+02 -0.88382298876E+01  0.10737315853E+02  0.37627149806E+02  0.41800000000E+01 0. -1.
        -11    1    4    4    0    0 -0.28784897052E+02  0.21678948162E+02  0.78382488062E+02  0.86269122672E+02  0.00000000000E+00 0. -1.
         11    1    4    4    0    0 -0.13071849831E+02  0.47644410691E+02 -0.16649121416E+02  0.52134982229E+02  0.00000000000E+00 0.  1.
</event>
<event>
 8    1  0.6597859E-009  0.1558604E+03  0.7561462E-02  0.1193451E+00
         -2   -1    0    0    0  501 -0.00000000000E+00  0.00000000000E+00  0.48022782213E+02  0.48022782213E+02  0.00000000000E+00 0.  1.
          2   -1    0    0  501    0  0.00000000000E+00 -0.00000000000E+00 -0.53223409278E+03  0.53223409278E+03  0.00000000000E+00 0. -1.
         25    2    1    2    0    0 -0.10076330843E+03  0.54291969048E+02 -0.26114744873E+03  0.31136409529E+03  0.12509495446E+03 0.  0.
         23    2    1    2    0    0  0.10076330843E+03 -0.54291969048E+02 -0.22306386184E+03  0.26889277970E+03  0.97185278147E+02 0.  0.
          5    1    3    3  502    0 -0.40181256660E+02  0.90268061492E+02 -0.15704361786E+03  0.18558832567E+03  0.41800000000E+01 0.  1.
         -5    1    3    3    0  502 -0.60582051767E+02 -0.35976092445E+02 -0.10410383087E+03  0.12577576962E+03  0.41800000000E+01 0.  1.
        -11    1    4    4    0    0  0.15168282969E+02 -0.54578326234E+02 -0.13341650815E+03  0.14494424842E+03  0.00000000000E+00 0. -1.
         11    1    4    4    0    0  0.85595025458E+02  0.28635718593E+00 -0.89647353686E+02  0.12394853128E+03  0.00000000000E+00 0.  1.
</event>
<event>
 8    1  0.6597859E-009  0.1768742E+03  0.7561462E-02  0.1170863E+00
         -1   -1    0    0    0  501 -0.00000000000E+00  0.00000000000E+00  0.92442309965E+02  0.92442309965E+02  0.00000000000E+00 0.  1.
          1   -1    0    0  501    0  0.00000000000E+00 -0.00000000000E+00 -0.36876379961E+03  0.36876379961E+03  0.00000000000E+00 0. -1.
         25    2    1    2    0    0  0.13822414639E+03 -0.32270376794E+02 -0.89993574640E+02  0.20950988605E+03  0.12509299345E+03 0.  0.
         23    2    1    2    0    0 -0.13822414639E+03  0.32270376794E+02 -0.18632791501E+03  0.25169622353E+03  0.92117344530E+02 0.  0.
          5    1    3    3  502    0  0.66406239218E+02  0.47017988965E+02 -0.47614983773E+02  0.94367043893E+02  0.41800000000E+01 0. -1.
         -5    1    3    3    0  502  0.71817907176E+02 -0.79288365759E+02 -0.42378590867E+02  0.11514284216E+03  0.41800000000E+01 0. -1.
        -11    1    4    4    0    0 -0.13714463844E+03  0.51098867300E+02 -0.14381992876E+03  0.20519239265E+03  0.00000000000E+00 0. -1.
         11    1    4    4    0    0 -0.10795079578E+01 -0.18828490505E+02 -0.42507986243E+02  0.46503830881E+02  0.00000000000E+00 0.  1.
</event>
<event>
 8    1  0.6597859E-009  0.2003408E+03  0.7561462E-02  0.1149452E+00
         -1   -1    0    0    0  501 -0.00000000000E+00  0.00000000000E+00  0.17092415279E+02  0.17092415279E+02  0.00000000000E+00 0.  1.
          1   -1    0    0  501    0  0.00000000000E+00 -0.00000000000E+00 -0.24373695749E+04  0.24373695749E+04  0.00000000000E+00 0. -1.
         25    2    1    2    0    0 -0.16951656422E+03 -0.31389819086E+02 -0.13013295883E+04  0.13186457301E+04  0.12508668116E+03 0.  0.
         23    2    1    2    0    0  0.16951656422E+03  0.31389819086E+02 -0.11189475713E+04  0.11358162601E+04  0.91179619634E+02 0.  0.
          5    1    3    3  502    0 -0.66278126175E+02 -0.69283097721E+02 -0.44208972897E+03  0.45238671344E+03  0.41800000000E+01 0. -1.
         -5    1    3    3    0  502 -0.10323843805E+03  0.37893278634E+02 -0.85923985930E+03  0.86625901662E+03  0.41800000000E+01 0. -1.
        -11    1    4    4    0    0  0.29400533369E+02  0.45138767222E+02 -0.27941451013E+03  0.28455995526E+03  0.00000000000E+00 0.  1.
         11    1    4    4    0    0  0.14011603085E+03 -0.13748948136E+02 -0.83953306120E+03  0.85125630484E+03  0.00000000000E+00 0. -1.
</event>
<event>
 8    1  0.6597859E-009  0.1519189E+03  0.7561462E-02  0.1198135E+00
          2   -1    0    0  501    0  0.00000000000E+00  0.00000000000E+00  0.71510378523E+03  0.71510378523E+03  0.00000000000E+00 0. -1.
         -2   -1    0    0    0  501 -0.00000000000E+00 -0.00000000000E+00 -0.39774401351E+02  0.39774401351E+02  0.00000000000E+00 0.  1.
         25    2    1    2    0    0  0.86774252670E+02  0.78392866335E+02  0.23996711022E+03  0.29481331422E+03  0.12512179599E+03 0.  0.
         23    2    1    2    0    0 -0.86774252670E+02 -0.78392866335E+02  0.43536227365E+03  0.46006487236E+03  0.91892138077E+02 0.  0.
          5    1    3    3  502    0  0.67899483646E+02  0.10663097298E+03  0.22356427628E+03  0.25686370375E+03  0.41800000000E+01 0. -1.
         -5    1    3    3    0  502  0.18874769025E+02 -0.28238106649E+02  0.16402833945E+02  0.37949610463E+02  0.41800000000E+01 0. -1.
        -11    1    4    4    0    0 -0.49791898560E+02 -0.91273633632E+02  0.25272900201E+03  0.27328018189E+03  0.00000000000E+00 0.  1.
         11    1    4    4    0    0 -0.36982354110E+02  0.12880767296E+02  0.18263327165E+03  0.18678469047E+03  0.00000000000E+00 0. -1.
</event>
<event>
 8    1  0.6597859E-009  0.9408899E+02  0.7561462E-02  0.1293241E+00
          2   -1    0    0  501    0  0.00000000000E+00  0.00000000000E+00  0.12747563300E+04  0.12747563300E+04  0.00000000000E+00 0. -1.
         -2   -1    0    0    0  501 -0.00000000000E+00 -0.00000000000E+00 -0.30509996393E+02  0.30509996393E+02  0.00000000000E+00 0.  1.
         25    2    1    2    0    0  0.64175478171E+02  0.75629819138E+01  0.11298198901E+04  0.11385594573E+04  0.12509581573E+03 0.  0.
         23    2    1    2    0    0 -0.64175478171E+02 -0.75629819138E+01  0.11442644352E+03  0.16670686908E+03  0.10257718327E+03 0.  0.
          5    1    3    3  502    0  0.63509861507E+02  0.31929448190E+02  0.29864739344E+03  0.30701910393E+03  0.41800000000E+01 0. -1.
         -5    1    3    3    0  502  0.66561666395E+00 -0.24366466276E+02  0.83117249667E+03  0.83154035341E+03  0.41800000000E+01 0. -1.
        -11    1    4    4    0    0  0.85236572743E+01  0.14016876240E+02 -0.11272056195E+02  0.19904391568E+02  0.00000000000E+00 0.  1.
         11    1    4    4    0    0 -0.72699135445E+02 -0.21579858153E+02  0.12569849972E+03  0.14680247751E+03  0.00000000000E+00 0. -1.
</event>
<event>
 8    1  0.6597859E-009  0.1117406E+03  0.7561462E-02  0.1257380E+00
         -1   -1    0    0    0  501 -0.00000000000E+00  0.00000000000E+00  0.17639744558E+03  0.17639744558E+03  0.00000000000E+00 0.  1.
          1   -1    0    0  501    0  0.00000000000E+00 -0.00000000000E+00 -0.83901879771E+02  0.83901879771E+02  0.00000000000E+00 0. -1.
         25    2    1    2    0    0 -0.29321647893E+02  0.45541323471E+02  0.61230391792E+02  0.14942935991E+03  0.12508477743E+03 0.  0.
         23    2    1    2    0    0  0.29321647893E+02 -0.45541323471E+02  0.31265174012E+02  0.11086996544E+03  0.91547075061E+02 0.  0.
          5    1    3    3  502    0  0.37127542690E+01  0.80546494507E+02  0.14150230929E+02  0.81970871393E+02  0.41800000000E+01 0. -1.
         -5    1    3    3    0  502 -0.33034402162E+02 -0.35005171036E+02  0.47080160863E+02  0.67458488512E+02  0.41800000000E+01 0. -1.
        -11    1    4    4    0    0 -0.25315482180E+02 -0.36441657732E+01  0.33299227497E+02  0.41987999882E+02  0.00000000000E+00 0.  1.
         11    1    4    4    0    0  0.54637130072E+02 -0.41897157698E+02 -0.20340534847E+01  0.68881965559E+02  0.00000000000E+00 0. -1.
</event>
<event>
 8    1  0.6597859E-009  0.1157742E+03  0.7561462E-02  0.1250236E+00
         -1   -1    0    0    0  501 -0.00000000000E+00  0.00000000000E+00  0.43526174717E+02  0.43526174717E+02  0.00000000000E+00 0.  1.
          1   -1    0    0  501    0  0.00000000000E+00 -0.00000000000E+00 -0.37399803135E+03  0.37399803135E+03  0.00000000000E+00 0. -1.
         25    2    1    2    0    0 -0.77261260161E+01  0.61493414760E+02 -0.14509006129E+03  0.20134498303E+03  0.12509014040E+03 0.  0.
         23    2    1    2    0    0  0.77261260161E+01 -0.61493414760E+02 -0.18538179534E+03  0.21617922304E+03  0.92335872474E+02 0.  0.
          5    1    3    3  502    0 -0.21959165525E+02  0.87564706670E+02 -0.53621133575E+02  0.10508321070E+03  0.41800000000E+01 0.  1.
         -5    1    3    3    0  502  0.14233039509E+02 -0.26071291911E+02 -0.91468927716E+02  0.96261772335E+02  0.41800000000E+01 0.  1.
        -11    1    4    4    0    0 -0.12358136941E+02 -0.81735348291E+02 -0.13992189471E+03  0.16251623712E+03  0.00000000000E+00 0.  1.
         11    1    4    4    0    0  0.20084262957E+02  0.20241933531E+02 -0.45459900632E+02  0.53662985913E+02  0.00000000000E+00 0. -1.
</event>
<event>
 8    1  0.6597859E-009  0.1379523E+03  0.7561462E-02  0.1216111E+00
          3   -1    0    0  501    0  0.00000000000E+00  0.00000000000E+00  0.13607688269E+04  0.13607688269E+04  0.00000000000E+00 0. -1.
         -3   -1    0    0    0  501 -0.00000000000E+00 -0.00000000000E+00 -0.16978070255E+02  0.16978070255E+02  0.00000000000E+00 0.  1.
         25    2    1    2    0    0 -0.83894681341E+02 -0.11674740138E+02  0.96996829472E+03  0.98165957802E+03  0.12506964963E+03 0.  0.
         23    2    1    2    0    0  0.83894681341E+02  0.11674740138E+02  0.37382246189E+03  0.39608731909E+03  0.99836437320E+02 0.  0.
          5    1    3    3  502    0 -0.11244465638E+03 -0.24939605929E+02  0.65189051631E+03  0.66200037941E+03  0.41800000000E+01 0. -1.
         -5    1    3    3    0  502  0.28549975037E+02  0.13264865791E+02  0.31807777841E+03  0.31965919861E+03  0.41800000000E+01 0. -1.
        -11    1    4    4    0    0  0.30195218477E+02 -0.42814516541E+02  0.18719387051E+03  0.19438718889E+03  0.00000000000E+00 0. -1.
         11    1    4    4    0    0  0.53699462864E+02  0.54489256679E+02  0.18662859137E+03  0.20170013020E+03  0.00000000000E+00 0.  1.
</event>
<event>
 8    1  0.6597859E-009  0.9568293E+02  0.7561462E-02  0.1289645E+00
          1   -1    0    0  501    0  0.00000000000E+00  0.00000000000E+00  0.86930531357E+03  0.86930531357E+03  0.00000000000E+00 0. -1.
         -1   -1    0    0    0  501 -0.00000000000E+00 -0.00000000000E+00 -0.19788659479E+02  0.19788659479E+02  0.00000000000E+00 0.  1.
         25    2    1    2    0    0 -0.27215692888E+02  0.21042838724E+02  0.69167241564E+03  0.70373413881E+03  0.12509001790E+03 0.  0.
         23    2    1    2    0    0  0.27215692888E+02 -0.21042838724E+02  0.15784423845E+03  0.18535983423E+03  0.90884374530E+02 0.  0.
          5    1    3    3  502    0  0.36209918364E+02  0.24215813177E+01  0.74052367062E+02  0.82572681387E+02  0.41800000000E+01 0. -1.
         -5    1    3    3    0  502 -0.63425611252E+02  0.18621257407E+02  0.61762004858E+03  0.62116145743E+03  0.41800000000E+01 0. -1.
        -11    1    4    4    0    0 -0.24499497878E+02  0.11948676684E+02  0.89335477525E+02  0.93401412277E+02  0.00000000000E+00 0. -1.
         11    1    4    4    0    0  0.51715190766E+02 -0.32991515408E+02  0.68508760925E+02  0.91958421955E+02  0.00000000000E+00 0.  1.
</event>
<event>
 8    1  0.6597859E-009  0.1166522E+03  0.7561462E-02  0.1248724E+00
         -2   -1    0    0    0  501 -0.00000000000E+00  0.00000000000E+00  0.83939978160E+02  0.83939978160E+02  0.00000000000E+00 0.  1.
          2   -1    0    0  501    0  0.00000000000E+00 -0.00000000000E+00 -0.19610753066E+03  0.19610753066E+03  0.00000000000E+00 0. -1.
         25    2    1    2    0    0 -0.32310967422E+02 -0.56782709453E+02 -0.83643504092E+02  0.16404903330E+03  0.12509026677E+03 0.  0.
         23    2    1    2    0    0  0.32310967422E+02  0.56782709453E+02 -0.28524048412E+02  0.11599847552E+03  0.91508197871E+02 0.  0.
          5    1    3    3  502    0  0.11208212855E+02  0.28376485634E+02 -0.56832183186E+02  0.64639139985E+02  0.41800000000E+01 0.  1.
         -5    1    3    3    0  502 -0.43519180277E+02 -0.85159195087E+02 -0.26811320906E+02  0.99409893314E+02  0.41800000000E+01 0.  1.
        -11    1    4    4    0    0  0.41358250666E+02 -0.73581717960E+01 -0.29302464543E+02  0.51217985304E+02  0.00000000000E+00 0. -1.
         11    1    4    4    0    0 -0.90472832438E+01  0.64140881249E+02  0.77841613119E+00  0.64780490220E+02  0.00000000000E+00 0.  1.
</event>
<event>
 8    1  0.6597859E-009  0.5707807E+02  0.7561462E-02  0.1410520E+00
         -1   -1    0    0    0  501 -0.00000000000E+00  0.00000000000E+00  0.34877886559E+03  0.34877886559E+03  0.00000000000E+00 0.  1.
          1   -1    0    0  501    0  0.00000000000E+00 -0.00000000000E+00 -0.33465902961E+02  0.33465902961E+02  0.00000000000E+00 0. -1.
         25    2    1    2    0    0 -0.35178127840E+01 -0.68111227529E+01  0.18069513693E+03  0.21990278953E+03  0.12509091866E+03 0.  0.
         23    2    1    2    0    0  0.35178127840E+01  0.68111227529E+01  0.13461782569E+03  0.16234197902E+03  0.90411242435E+02 0.  0.
          5    1    3    3  502    0  0.98185555186E+01 -0.60002210701E+01  0.19758574893E+03  0.19796466165E+03  0.41800000000E+01 0.  1.
         -5    1    3    3    0  502 -0.13336368303E+02 -0.81090168276E+00 -0.16890611993E+02  0.21938127872E+02  0.41800000000E+01 0.  1.
        -11    1    4    4    0    0 -0.16608402272E+02  0.43226322206E+02  0.50629134004E+02  0.68612412634E+02  0.00000000000E+00 0. -1.
         11    1    4    4    0    0  0.20126215056E+02 -0.36415199453E+02  0.83988691687E+02  0.93729566386E+02  0.00000000000E+00 0.  1.
</event>
<event>
 8    1  0.6597859E-009  0.1560921E+03  0.7561462E-02  0.1193181E+00
         -2   -1    0    0    0  501 -0.00000000000E+00  0.00000000000E+00  0.46523152713E+02  0.46523152713E+02  0.00000000000E+00 0.  1.
          2   -1    0    0  501    0  0.00000000000E+00 -0.00000000000E+00 -0.75515541461E+03  0.75515541461E+03  0.00000000000E+00 0. -1.
         25    2    1    2    0    0 -0.11656985251E+03  0.49493159996E+02 -0.54517105631E+03  0.57349214496E+03  0.12507460292E+03 0.  0.
         23    2    1    2    0    0  0.11656985251E+03 -0.49493159996E+02 -0.16346120559E+03  0.22818642237E+03  0.96495462160E+02 0.  0.
          5    1    3    3  502    0 -0.29227181865E+02  0.79099555123E+02 -0.22676836211E+03  0.24197588771E+03  0.41800000000E+01 0. -1.
         -5    1    3    3    0  502 -0.87342670646E+02 -0.29606395127E+02 -0.31840269420E+03  0.33151625725E+03  0.41800000000E+01 0. -1.
        -11    1    4    4    0    0  0.36623961904E+02 -0.41099703312E+02 -0.11448068954E+02  0.56227737645E+02  0.00000000000E+00 0.  1.
         11    1    4    4    0    0  0.79945890607E+02 -0.83934566836E+01 -0.15201313664E+03  0.17195868472E+03  0.00000000000E+00 0. -1.
</event>
<event>
 8    1  0.6597859E-009  0.2162774E+03  0.7561462E-02  0.1136689E+00
         -2   -1    0    0    0  501 -0.00000000000E+00  0.00000000000E+00  0.33942702035E+03  0.33942702035E+03  0.00000000000E+00 0.  1.
          2   -1    0    0  501    0  0.00000000000E+00 -0.00000000000E+00 -0.19059016235E+03  0.19059016235E+03  0.00000000000E+00 0. -1.
         25    2    1    2    0    0  0.58305103667E+02  0.19209406103E+03 -0.40197208559E+02  0.23992249471E+03  0.12508946596E+03 0.  0.
         23    2    1    2    0    0 -0.58305103667E+02 -0.19209406103E+03  0.18903406657E+03  0.29009468799E+03  0.90119011746E+02 0.  0.
          5    1    3    3  502    0 -0.26488917936E+02  0.14691124486E+02  0.17154193089E+02  0.35060385802E+02  0.41800000000E+01 0.  1.
         -5    1    3    3    0  502  0.84794021603E+02  0.17740293655E+03 -0.57351401648E+02  0.20486210891E+03  0.41800000000E+01 0.  1.
        -11    1    4    4    0    0  0.18307533400E+01 -0.61556479925E+02  0.11002149347E+03  0.12608441975E+03  0.00000000000E+00 0.  1.
         11    1    4    4    0    0 -0.60135857007E+02 -0.13053758111E+03  0.79012573097E+02  0.16401026824E+03  0.00000000000E+00 0. -1.
</event>
<event>
 8    1  0.6597859E-009  0.1333177E+03  0.7561462E-02  0.1222614E+00
         -2   -1    0    0    0  501 -0.00000000000E+00  0.00000000000E+00  0.11570986401E+03  0.11570986401E+03  0.00000000000E+00 0.  1.
          2   -1    0    0  501    0  0.00000000000E+00 -0.00000000000E+00 -0.21502180602E+03  0.21502180602E+03  0.00000000000E+00 0. -1.
         25    2    1    2    0    0  0.95638368901E+02 -0.42794184087E+02 -0.74076231170E+01  0.16334442599E+03  0.12509392001E+03 0.  0.
         23    2    1    2    0    0 -0.95638368901E+02  0.42794184087E+02 -0.91904318901E+02  0.16738724404E+03  0.92704076703E+02 0.  0.
          5    1    3    3  502    0  0.12113642361E+03 -0.55176343221E+02 -0.14101469385E+02  0.13392081920E+03  0.41800000000E+01 0.  1.
         -5    1    3    3    0  502 -0.25498054708E+02  0.12382159134E+02  0.66938462680E+01  0.29423606790E+02  0.41800000000E+01 0.  1.
        -11    1    4    4    0    0 -0.19680117705E+02  0.76882235896E+01  0.19027994413E+02  0.28433789516E+02  0.00000000000E+00 0.  1.
         11    1    4    4    0    0 -0.75958251196E+02  0.35105960497E+02 -0.11093231331E+03  0.13895345452E+03  0.00000000000E+00 0. -1.
</event>
<event>
 8    1  0.6597859E-009  0.1039968E+03  0.7561462E-02  0.1272109E+00
         -2   -1    0    0    0  501 -0.00000000000E+00  0.00000000000E+00  0.92399885164E+02  0.92399885164E+02  0.00000000000E+00 0.  1.
          2   -1    0    0  501    0  0.00000000000E+00 -0.00000000000E+00 -0.22872354444E+03  0.22872354444E+03  0.00000000000E+00 0. -1.
         25    2    1    2    0    0 -0.96185412937E+01 -0.83589265745E+02 -0.24084071187E+02  0.15266447590E+03  0.12508684196E+03 0.  0.
         23    2    1    2    0    0  0.96185412937E+01  0.83589265745E+02 -0.11223958809E+03  0.16845895371E+03  0.93279216681E+02 0.  0.
          5    1    3    3  502    0 -0.70064017702E+00 -0.25302774859E+02  0.51008322116E+02  0.57096783074E+02  0.41800000000E+01 0. -1.
         -5    1    3    3    0  502 -0.89179011167E+01 -0.58286490886E+02 -0.75092393303E+02  0.95567692826E+02  0.41800000000E+01 0. -1.
        -11    1    4    4    0    0 -0.16098245095E+01 -0.19480001075E+02 -0.31408824083E+02  0.36994272626E+02  0.00000000000E+00 0. -1.
         11    1    4    4    0    0  0.11228365803E+02  0.10306926682E+03 -0.80830764009E+02  0.13146468108E+03  0.00000000000E+00 0.  1.
</event>
<event>
 8    1  0.6597859E-009  0.1173229E+03  0.7561462E-02  0.1247580E+00
         -3   -1    0    0    0  501 -0.00000000000E+00  0.00000000000E+00  0.50360112921E+02  0.50360112921E+02  0.00000000000E+00 0.  1.
          3   -1    0    0  501    0  0.00000000000E+00 -0.00000000000E+00 -0.34358969361E+03  0.34358969361E+03  0.00000000000E+00 0. -1.
         25    2    1    2    0    0 -0.17385042446E+02 -0.59498163688E+02 -0.22538971072E+03  0.26512552696E+03  0.12509497258E+03 0.  0.
         23    2    1    2    0    0  0.17385042446E+02  0.59498163688E+02 -0.67839869971E+02  0.12882427957E+03  0.90283862717E+02 0.  0.
          5    1    3    3  502    0 -0.61475814006E+02 -0.53652445358E+01 -0.62866029517E+02  0.88191108531E+02  0.41800000000E+01 0.  1.
         -5    1    3    3    0  502  0.44090771560E+02 -0.54132919152E+02 -0.16252368120E+03  0.17693441843E+03  0.41800000000E+01 0.  1.
        -11    1    4    4    0    0 -0.26109434417E+02  0.52723528126E+02 -0.16311030305E+02  0.61053441289E+02  0.00000000000E+00 0.  1.
         11    1    4    4    0    0  0.43494476864E+02  0.67746355619E+01 -0.51528839666E+02  0.67770838286E+02  0.00000000000E+00 0. -1.
</event>
<event>
 8    1  0.6597859E-009  0.1297874E+03  0.7561462E-02  0.1227772E+00
         -3   -1    0    0    0  501 -0.00000000000E+00  0.00000000000E+00  0.57141499777E+03  0.57141499777E+03  0.00000000000E+00 0.  1.
          3   -1    0    0  501    0  0.00000000000E+00 -0.00000000000E+00 -0.64960243868E+02  0.64960243868E+02  0.00000000000E+00 0. -1.
         25    2    1    2    0    0 -0.99576192842E+02 -0.11717775051E+02  0.46838126178E+03  0.49505629838E+03  0.12508800000E+03 0.  0.
         23    2    1    2    0    0  0.99576192842E+02  0.11717775051E+02  0.38073492125E+02  0.14131894326E+03  0.92025694723E+02 0.  0.
          5    1    3    3  502    0 -0.32220805024E+02  0.31776576412E+02  0.44383322845E+02  0.63523876075E+02  0.41800000000E+01 0. -1.
         -5    1    3    3    0  502 -0.67355387817E+02 -0.43494351463E+02  0.42399793893E+03  0.43153242230E+03  0.41800000000E+01 0. -1.
        -11    1    4    4    0    0  0.87708752315E+02 -0.28252166156E+02  0.37867074610E+02  0.99623920143E+02  0.00000000000E+00 0.  1.
         11    1    4    4    0    0  0.11867440527E+02  0.39969941207E+02  0.20641751467E+00  0.41695023119E+02  0.00000000000E+00 0. -1.
</event>
<event>
 8    1  0.6597859E-009  0.1250196E+03  0.7561462E-02  0.1235039E+00
         -1   -1    0    0    0  501 -0.00000000000E+00  0.00000000000E+00  0.40675821211E+03  0.40675821211E+03  0.00000000000E+00 0.  1.
          1   -1    0    0  501    0  0.00000000000E+00 -0.00000000000E+00 -0.45578479794E+02  0.45578479794E+02  0.00000000000E+00 0. -1.
         25    2    1    2    0    0  0.15736831084E+02  0.82260975556E+02  0.18458755192E+03  0.23818592361E+03  0.12508178896E+03 0.  0.
         23    2    1    2    0    0 -0.15736831084E+02 -0.82260975556E+02  0.17659218039E+03  0.21415076829E+03  0.87528494969E+02 0.  0.
          5    1    3    3  502    0 -0.29275654955E+02 -0.55979200057E+01  0.14961799859E+01  0.30134890675E+02  0.41800000000E+01 0.  1.
         -5    1    3    3    0  502  0.45012486039E+02  0.87858895562E+02  0.18309137194E+03  0.20805103294E+03  0.41800000000E+01 0.  1.
        -11    1    4    4    0    0 -0.22786815303E+02 -0.99728187450E+02  0.15006386518E+03  0.18161529109E+03  0.00000000000E+00 0. -1.
         11    1    4    4    0    0  0.70499842195E+01  0.17467211894E+02  0.26528315211E+02  0.32535477202E+02  0.00000000000E+00 0.  1.
</event>
<event>
 8    1  0.6597859E-009  0.1308271E+03  0.7561462E-02  0.1226234E+00
          2   -1    0    0  501    0  0.00000000000E+00  0.00000000000E+00  0.70496898208E+02  0.70496898208E+02  0.00000000000E+00 0. -1.
         -2   -1    0    0    0  501 -0.00000000000E+00 -0.00000000000E+00 -0.32317327255E+03  0.32317327255E+03  0.00000000000E+00 0.  1.
         25    2    1    2    0    0 -0.76720118156E+02  0.26281418774E+02 -0.49645630964E+02  0.15711746525E+03  0.12507805447E+03 0.  0.
         23    2    1    2    0    0  0.76720118156E+02 -0.26281418774E+02 -0.20303074338E+03  0.23655270551E+03  0.90327239659E+02 0.  0.
          5    1    3    3  502    0 -0.96695558374E+02 -0.14156836151E+02 -0.53793448721E+02  0.11163178107E+03  0.41800000000E+01 0.  1.
         -5    1    3    3    0  502  0.19975440217E+02  0.40438254925E+02  0.41478177580E+01  0.45485684181E+02  0.41800000000E+01 0.  1.
        -11    1    4    4    0    0  0.81633116891E+02  0.97177423491E+01 -0.16256275177E+03  0.18216763860E+03  0.00000000000E+00 0.  1.
         11    1    4    4    0    0 -0.49129987342E+01 -0.35999161123E+02 -0.40467991612E+02  0.54385066914E+02  0.00000000000E+00 0. -1.
</event>
<event>
 8    1  0.6597859E-009  0.1218966E+03  0.7561462E-02  0.1240001E+00
          2   -1    0    0  501    0  0.00000000000E+00  0.00000000000E+00  0.10926913038E+03  0.10926913038E+03  0.00000000000E+00 0. -1.
         -2   -1    0    0    0  501 -0.00000000000E+00 -0.00000000000E+00 -0.14940023196E+03  0.14940023196E+03  0.00000000000E+00 0.  1.
         25    2    1    2    0    0 -0.15524739335E+02  0.62744957379E+02 -0.40788515894E+02  0.14659558492E+03  0.12509442546E+03 0.  0.
         23    2    1    2    0    0  0.15524739335E+02 -0.62744957379E+02  0.65741431358E+00  0.11207377742E+03  0.91554094307E+02 0.  0.
          5    1    3    3  502    0 -0.20080080172E+02 -0.31846317154E+02  0.98296523093E+01  0.39134281653E+02  0.41800000000E+01 0. -1.
         -5    1    3    3    0  502  0.45553408372E+01  0.94591274533E+02 -0.50618168203E+02  0.10746130327E+03  0.41800000000E+01 0. -1.
        -11    1    4    4    0    0  0.28284726525E+01 -0.85241514522E+02 -0.56748478353E+01  0.85477014182E+02  0.00000000000E+00 0.  1.
         11    1    4    4    0    0  0.12696266682E+02  0.22496557143E+02  0.63322621489E+01  0.26596763241E+02  0.00000000000E+00 0. -1.
</event>
<event>
 8    1  0.6597859E-009  0.9811842E+02  0.7561462E-02  0.1284303E+00
          2   -1    0    0  501    0  0.00000000000E+00  0.00000000000E+00  0.48799708511E+03  0.48799708511E+03  0.00000000000E+00 0. -1.
         -2   -1    0    0    0  501 -0.00000000000E+00 -0.00000000000E+00 -0.25376708710E+02  0.25376708710E+02  0.00000000000E+00 0.  1.
         25    2    1    2    0    0 -0.23457807989E+02  0.75477563559E+01  0.23665538935E+03  0.26881008034E+03  0.12508336661E+03 0.  0.
         23    2    1    2    0    0  0.23457807989E+02 -0.75477563559E+01  0.22596498705E+03  0.24456371348E+03  0.90244097850E+02 0.  0.
          5    1    3    3  502    0  0.14056123499E+01  0.64405621201E+02  0.10610483758E+03  0.12420051830E+03  0.41800000000E+01 0.  1.
         -5    1    3    3    0  502 -0.24863420339E+02 -0.56857864845E+02  0.13055055177E+03  0.14460956204E+03  0.41800000000E+01 0.  1.
        -11    1    4    4    0    0 -0.17235487807E+02  0.15098066342E+02  0.12546622481E+02  0.26123387661E+02  0.00000000000E+00 0.  1.
         11    1    4    4    0    0  0.40693295796E+02 -0.22645822698E+02  0.21341836457E+03  0.21844032582E+03  0.00000000000E+00 0. -1.
</event>
<event>
 8    1  0.6597859E-009  0.2205035E+03  0.7561462E-02  0.1133508E+00
         -1   -1    0    0    0  501 -0.00000000000E+00  0.00000000000E+00  0.12475058527E+03  0.12475058527E+03  0.00000000000E+00 0.  1.
          1   -1    0    0  501    0  0.00000000000E+00 -0.00000000000E+00 -0.51120107561E+03  0.51120107561E+03  0.00000000000E+00 0. -1.
         25    2    1    2    0    0  0.19609649219E+03 -0.53454578356E+02 -0.69327074388E+02  0.24852691942E+03  0.12509260665E+03 0.  0.
         23    2    1    2    0    0 -0.19609649219E+03  0.53454578356E+02 -0.31712341596E+03  0.38742474146E+03  0.90661144645E+02 0.  0.
          5    1    3    3  502    0 -0.24179336177E+00 -0.40302459644E+02 -0.22259959723E+01  0.40580465442E+02  0.41800000000E+01 0. -1.
         -5    1    3    3    0  502  0.19633828555E+03 -0.13152118712E+02 -0.67101078416E+02  0.20794645398E+03  0.41800000000E+01 0. -1.
        -11    1    4    4    0    0 -0.13198997293E+03  0.42246161587E+02 -0.13277043513E+03  0.19192206640E+03  0.00000000000E+00 0.  1.
         11    1    4    4    0    0 -0.64106519254E+02  0.11208416769E+02 -0.18435298082E+03  0.19550267506E+03  0.00000000000E+00 0. -1.
</event>
<event>
 8    1  0.6597859E-009  0.1298138E+03  0.7561462E-02  0.1227732E+00
         -1   -1    0    0    0  501 -0.00000000000E+00  0.00000000000E+00  0.71789697354E+02  0.71789697354E+02  0.00000000000E+00 0.  1.
          1   -1    0    0  501    0  0.00000000000E+00 -0.00000000000E+00 -0.30737181346E+03  0.30737181346E+03  0.00000000000E+00 0. -1.
         25    2    1    2    0    0  0.87101141698E+02 -0.51082226866E+02 -0.11960624849E+03  0.20037250568E+03  0.12508990194E+03 0.  0.
         23    2    1    2    0    0 -0.87101141698E+02  0.51082226866E+02 -0.11597586762E+03  0.17878900514E+03  0.91209120714E+02 0.  0.
          5    1    3    3  502    0  0.22787534320E+02  0.40493480063E+02 -0.50657046412E+02  0.68866555012E+02  0.41800000000E+01 0. -1.
         -5    1    3    3    0  502  0.64313607378E+02 -0.91575706929E+02 -0.68949202075E+02  0.13150595066E+03  0.41800000000E+01 0. -1.
        -11    1    4    4    0    0 -0.49653754967E+02  0.30227166037E+02 -0.32869589267E+01  0.58223543760E+02  0.00000000000E+00 0.  1.
         11    1    4    4    0    0 -0.37447386731E+02  0.20855060829E+02 -0.11268890869E+03  0.12056546138E+03  0.00000000000E+00 0. -1.
</event>
<event>
 7    1  0.6597859E-009  0.9731761E+02  0.7561462E-02  0.1286040E+00
          2   -1    0    0  501    0  0.00000000000E+00  0.00000000000E+00  0.37620915494E+03  0.37620915494E+03  0.00000000000E+00 0.  1.
         -2   -1    0    0    0  501 -0.00000000000E+00 -0.00000000000E+00 -0.31860193335E+02  0.31860193335E+02  0.00000000000E+00 0. -1.
         25    2    1    2    0    0  0.19217012623E+01  0.55480252242E+02  0.26582446715E+03  0.29898450766E+03  0.12508931673E+03 0.  0.
          5    1    3    3  502    0 -0.36271889364E+02 -0.22997444466E+02  0.49432651542E+02  0.65617008835E+02  0.41800000000E+01 0. -1.
         -5    1    3    3    0  502  0.38193590626E+02  0.78477696709E+02  0.21639181561E+03  0.23336749883E+03  0.41800000000E+01 0. -1.
        -11    1    1    2    0    0 -0.16864777438E+02 -0.24953879882E+02  0.85748345097E+01  0.31315245905E+02  0.00000000000E+00 0. -1.
         11    1    1    2    0    0  0.14943076176E+02 -0.30526372360E+02  0.69949659940E+02  0.77769594706E+02  0.00000000000E+00 0.  1.
</event>
<event>
 8    1  0.6597859E-009  0.1235650E+03  0.7561462E-02  0.1237329E+00
          2   -1    0    0  501    0  0.00000000000E+00  0.00000000000E+00  0.58455673594E+03  0.58455673594E+03  0.00000000000E+00 0. -1.
         -2   -1    0    0    0  501 -0.00000000000E+00 -0.00000000000E+00 -0.30696863221E+02  0.30696863221E+02  0.00000000000E+00 0.  1.
         25    2    1    2    0    0 -0.20505257106E+02  0.74948689303E+02  0.31189511562E+03  0.34491719390E+03  0.12510609860E+03 0.  0.
         23    2    1    2    0    0  0.20505257106E+02 -0.74948689303E+02  0.24196475710E+03  0.27033640526E+03  0.92179481072E+02 0.  0.
          5    1    3    3  502    0  0.35163663183E+02  0.79702434841E+02  0.14890679367E+03  0.17256786181E+03  0.41800000000E+01 0.  1.
         -5    1    3    3    0  502 -0.55668920289E+02 -0.47537455379E+01  0.16298832195E+03  0.17234933209E+03  0.41800000000E+01 0.  1.
        -11    1    4    4    0    0 -0.24385254322E+02 -0.13765026788E+02  0.16632543008E+02  0.32569281197E+02  0.00000000000E+00 0.  1.
         11    1    4    4    0    0  0.44890511428E+02 -0.61183662516E+02  0.22533221409E+03  0.23776712406E+03  0.00000000000E+00 0. -1.
</event>
<event>
 8    1  0.6597859E-009  0.1224435E+03  0.7561462E-02  0.1239120E+00
          2   -1    0    0  501    0  0.00000000000E+00  0.00000000000E+00  0.63946026835E+03  0.63946026835E+03  0.00000000000E+00 0. -1.
         -2   -1    0    0    0  501 -0.00000000000E+00 -0.00000000000E+00 -0.60157079163E+02  0.60157079163E+02  0.00000000000E+00 0.  1.
         25    2    1    2    0    0 -0.57335930943E+02 -0.28033433501E+02  0.57135611415E+03  0.58835991083E+03  0.12508514351E+03 0.  0.
         23    2    1    2    0    0  0.57335930943E+02  0.28033433501E+02  0.79470750411E+01  0.11125743669E+03  0.90784243375E+02 0.  0.
          5    1    3    3  502    0 -0.84813560363E+02  0.15780791548E+02  0.30481033690E+03  0.31681096459E+03  0.41800000000E+01 0. -1.
         -5    1    3    3    0  502  0.27477629420E+02 -0.43814225049E+02  0.26654577724E+03  0.27154894623E+03  0.41800000000E+01 0. -1.
        -11    1    4    4    0    0  0.21480990169E+02 -0.30908321081E+02 -0.11887195327E+02  0.39472302485E+02  0.00000000000E+00 0.  1.
         11    1    4    4    0    0  0.35854940774E+02  0.58941754582E+02  0.19834270368E+02  0.71785134200E+02  0.00000000000E+00 0. -1.
</event>
<event>
 8    1  0.6597859E-009  0.1043505E+03  0.7561462E-02  0.1271405E+00
          2   -1    0    0  501    0  0.00000000000E+00  0.00000000000E+00  0.56170324752E+03  0.56170324752E+03  0.00000000000E+00 0. -1.
         -2   -1    0    0    0  501 -0.00000000000E+00 -0.00000000000E+00 -0.29380722720E+02  0.29380722720E+02  0.00000000000E+00 0.  1.
         25    2    1    2    0    0  0.30406389666E+02 -0.47989204702E+02  0.38459047003E+03  0.40839526775E+03  0.12509737320E+03 0.  0.
         23    2    1    2    0    0 -0.30406389666E+02  0.47989204702E+02  0.14773205477E+03  0.18268870249E+03  0.91229872905E+02 0.  0.
          5    1    3    3  502    0  0.64759605368E+02 -0.28891506887E+02  0.10978794346E+03  0.13076463814E+03  0.41800000000E+01 0.  1.
         -5    1    3    3    0  502 -0.34353215702E+02 -0.19097697814E+02  0.27480252657E+03  0.27763062961E+03  0.41800000000E+01 0.  1.
        -11    1    4    4    0    0 -0.64986430047E+01  0.67172993387E+02  0.62005537992E+02  0.91646768318E+02  0.00000000000E+00 0.  1.
         11    1    4    4    0    0 -0.23907746661E+02 -0.19183788685E+02  0.85726516779E+02  0.91041934172E+02  0.00000000000E+00 0. -1.
</event>
<event>
 8    1  0.6597859E-009  0.9810881E+02  0.7561462E-02  0.1284324E+00
          2   -1    0    0  501    0  0.00000000000E+00  0.00000000000E+00  0.84595315387E+02  0.84595315387E+02  0.00000000000E+00 0. -1.
         -2   -1    0    0    0  501 -0.00000000000E+00 -0.00000000000E+00 -0.18576340402E+03  0.18576340402E+03  0.00000000000E+00 0.  1.
         25    2    1    2    0    0  0.57397068792E+02  0.16091386619E+01 -0.28994552620E+02  0.14066293564E+03  0.12509342329E+03 0.  0.
         23    2    1    2    0    0 -0.57397068792E+02 -0.16091386619E+01 -0.72173536014E+02  0.12969578376E+03  0.91186425484E+02 0.  0.
          5    1    3    3  502    0 -0.39559954420E+02 -0.29806841015E+01 -0.14432062944E+02  0.42422061622E+02  0.41800000000E+01 0.  1.
         -5    1    3    3    0  502  0.96957023212E+02  0.45898227634E+01 -0.14562489677E+02  0.98240874023E+02  0.41800000000E+01 0.  1.
        -11    1    4    4    0    0 -0.34551492767E+02 -0.79639164675E+01 -0.92120619894E+02  0.98708855872E+02  0.00000000000E+00 0.  1.
         11    1    4    4    0    0 -0.22845576025E+02  0.63547778055E+01  0.19947083880E+02  0.30986927892E+02  0.00000000000E+00 0. -1.
</event>
<event>
 8    1  0.6597859E-009  0.8032214E+02  0.7561462E-02  0.1328140E+00
          2   -1    0    0  501    0  0.00000000000E+00  0.00000000000E+00  0.57874364994E+03  0.57874364994E+03  0.00000000000E+00 0. -1.
         -2   -1    0    0    0  501 -0.00000000000E+00 -0.00000000000E+00 -0.30140765396E+02  0.30140765396E+02  0.00000000000E+00 0.  1.
         25    2    1    2    0    0 -0.33456896922E+02  0.38460630406E+02  0.44719081371E+03  0.46714588804E+03  0.12508826002E+03 0.  0.
         23    2    1    2    0    0  0.33456896922E+02 -0.38460630406E+02  0.10141207083E+03  0.14173852730E+03  0.84892979498E+02 0.  0.
          5    1    3    3  502    0  0.17544747023E+02 -0.23111890616E+02  0.28259397922E+03  0.28411055441E+03  0.41800000000E+01 0. -1.
         -5    1    3    3    0  502 -0.51001643945E+02  0.61572521022E+02  0.16459683450E+03  0.18303533363E+03  0.41800000000E+01 0. -1.
        -11    1    4    4    0    0  0.97463483223E+01 -0.76575337006E+01 -0.14737590958E+02  0.19256835546E+02  0.00000000000E+00 0.  1.
         11    1    4    4    0    0  0.23710548599E+02 -0.30803096705E+02  0.11614966178E+03  0.12248169175E+03  0.00000000000E+00 0. -1.
</event>
<event>
 8    1  0.6597859E-009  0.8194009E+02  0.7561462E-02  0.1323634E+00
          1   -1    0    0  501    0  0.00000000000E+00  0.00000000000E+00  0.79748172295E+02  0.79748172295E+02  0.00000000000E+00 0. -1.
         -1   -1    0    0    0  501 -0.00000000000E+00 -0.00000000000E+00 -0.17465337074E+03  0.17465337074E+03  0.00000000000E+00 0.  1.
         25    2    1    2    0    0 -0.46612343665E+01 -0.23839051433E+02 -0.12758994179E+02  0.12805712526E+03  0.12508320399E+03 0.  0.
         23    2    1    2    0    0  0.46612343665E+01  0.23839051433E+02 -0.82146204269E+02  0.12634441777E+03  0.92870261913E+02 0.  0.
          5    1    3    3  502    0 -0.23824440560E+00 -0.68292562163E+02 -0.36229745884E+02  0.77420912511E+02  0.41800000000E+01 0.  1.
         -5    1    3    3    0  502 -0.44229899609E+01  0.44453510730E+02  0.23470751705E+02  0.50636212754E+02  0.41800000000E+01 0.  1.
        -11    1    4    4    0    0  0.23695603263E+02  0.58628432391E+01  0.13004068059E+02  0.27657916243E+02  0.00000000000E+00 0. -1.
         11    1    4    4    0    0 -0.19034368896E+02  0.17976208194E+02 -0.95150272328E+02  0.98686501531E+02  0.00000000000E+00 0.  1.
</event>
<event>
 8    1  0.6597859E-009  0.7679986E+02  0.7561462E-02  0.1338386E+00
         -2   -1    0    0    0  501 -0.00000000000E+00  0.00000000000E+00  0.41774993567E+02  0.41774993567E+02  0.00000000000E+00 0.  1.
          2   -1    0    0  501    0  0.00000000000E+00 -0.00000000000E+00 -0.33736412616E+03  0.33736412616E+03  0.00000000000E+00 0. -1.
         25    2    1    2    0    0 -0.32940059996E+02  0.20244950126E+02 -0.21726828754E+03  0.25366947582E+03  0.12509112131E+03 0.  0.
         23    2    1    2    0    0  0.32940059996E+02 -0.20244950126E+02 -0.78320845055E+02  0.12546964392E+03  0.90075364090E+02 0.  0.
          5    1    3    3  502    0  0.18038285149E+02  0.28209377297E+02 -0.37331814144E+01  0.33949340820E+02  0.41800000000E+01 0. -1.
         -5    1    3    3    0  502 -0.50978345145E+02 -0.79644271713E+01 -0.21353510613E+03  0.21972013500E+03  0.41800000000E+01 0. -1.
        -11    1    4    4    0    0  0.40726502604E+02 -0.33488902147E+02 -0.91251021417E+02  0.10538929495E+03  0.00000000000E+00 0. -1.
         11    1    4    4    0    0 -0.77864426079E+01  0.13243952021E+02  0.12930176362E+02  0.20080348961E+02  0.00000000000E+00 0.  1.
</event>
<event>
 8    1  0.6597859E-009  0.1548117E+03  0.7561462E-02  0.1194682E+00
         -2   -1    0    0    0  501 -0.00000000000E+00  0.00000000000E+00  0.21772736021E+03  0.21772736021E+03  0.00000000000E+00 0.  1.
          2   -1    0    0  501    0  0.00000000000E+00 -0.00000000000E+00 -0.13761053044E+03  0.13761053044E+03  0.00000000000E+00 0. -1.
         25    2    1    2    0    0  0.26345438346E+02  0.10977767294E+03  0.11769904268E+03  0.20555046563E+03  0.12511078961E+03 0.  0.
         23    2    1    2    0    0 -0.26345438346E+02 -0.10977767294E+03 -0.37582212900E+02  0.14978742502E+03  0.90986979120E+02 0.  0.
          5    1    3    3  502    0 -0.38460841743E+02  0.94011180751E+02  0.69142272282E+02  0.12294496602E+03  0.41800000000E+01 0.  1.
         -5    1    3    3    0  502  0.64806280089E+02  0.15766492188E+02  0.48556770396E+02  0.82605499612E+02  0.41800000000E+01 0.  1.
        -11    1    4    4    0    0  0.15104510284E+02  0.74166842008E+01 -0.16754958482E+02  0.23746201153E+02  0.00000000000E+00 0. -1.
         11    1    4    4    0    0 -0.41449948630E+02 -0.11719435714E+03 -0.20827254419E+02  0.12604122387E+03  0.00000000000E+00 0.  1.
</event>
<event>
 8    1  0.6597859E-009  0.2498882E+03  0.7561462E-02  0.1113376E+00
         -3   -1    0    0    0  501 -0.00000000000E+00  0.00000000000E+00  0.73248759661E+02  0.73248759661E+02  0.00000000000E+00 0.  1.
          3   -1    0    0  501    0  0.00000000000E+00 -0.00000000000E+00 -0.88418851482E+03  0.88418851482E+03  0.00000000000E+00 0. -1.
         25    2    1    2    0    0  0.21470347015E+03 -0.79974950960E+02 -0.46072876841E+03  0.52953978054E+03  0.12509119979E+03 0.  0.
         23    2    1    2    0    0 -0.21470347015E+03  0.79974950960E+02 -0.35021098675E+03  0.42789749393E+03  0.89190566746E+02 0.  0.
          5    1    3    3  502    0 -0.16451504202E+02 -0.28131185628E+01 -0.26828028455E+02  0.31871321550E+02  0.41800000000E+01 0.  1.
         -5    1    3    3    0  502  0.23115497436E+03 -0.77161832397E+02 -0.43390073995E+03  0.49766845899E+03  0.41800000000E+01 0.  1.
        -11    1    4    4    0    0 -0.24112662286E+02  0.35857431809E+02 -0.10948531295E+03  0.11770390669E+03  0.00000000000E+00 0.  1.
         11    1    4    4    0    0 -0.19059080787E+03  0.44117519151E+02 -0.24072567380E+03  0.31019358724E+03  0.00000000000E+00 0. -1.
</event>
<event>
 8    1  0.6597859E-009  0.1270896E+03  0.7561462E-02  0.1231839E+00
          2   -1    0    0  501    0  0.00000000000E+00  0.00000000000E+00  0.78529831617E+03  0.78529831617E+03  0.00000000000E+00 0. -1.
         -2   -1    0    0    0  501 -0.00000000000E+00 -0.00000000000E+00 -0.23078052380E+02  0.23078052380E+02  0.00000000000E+00 0.  1.
         25    2    1    2    0    0 -0.74043352707E+02  0.12042475634E+02  0.50306338121E+03  0.52378162046E+03  0.12508789356E+03 0.  0.
         23    2    1    2    0    0  0.74043352707E+02 -0.12042475634E+02  0.25915688259E+03  0.28459474810E+03  0.90578372436E+02 0.  0.
          5    1    3    3  502    0 -0.30496779337E+02  0.65593521664E+02  0.31982968287E+03  0.32793453932E+03  0.41800000000E+01 0. -1.
         -5    1    3    3    0  502 -0.43546573369E+02 -0.53551046030E+02  0.18323369834E+03  0.19584708114E+03  0.41800000000E+01 0. -1.
        -11    1    4    4    0    0  0.13053611381E+02  0.33828215855E+02  0.12606535906E+03  0.13117629249E+03  0.00000000000E+00 0. -1.
         11    1    4    4    0    0  0.60989741326E+02 -0.45870691489E+02  0.13309152353E+03  0.15341845561E+03  0.00000000000E+00 0.  1.
</event>
<event>
 7    1  0.6597859E-009  0.1150874E+03  0.7561462E-02  0.1251429E+00
         -1   -1    0    0    0  501 -0.00000000000E+00  0.00000000000E+00  0.75608270034E+02  0.75608270034E+02  0.00000000000E+00 0.  1.
          1   -1    0    0  501    0  0.00000000000E+00 -0.00000000000E+00 -0.20929228738E+03  0.20929228738E+03  0.00000000000E+00 0. -1.
         23    2    1    2    0    0  0.40966563673E+02 -0.56174696042E+02 -0.37982332405E+02  0.11225432125E+03  0.79526846095E+02 0.  0.
          5    1    1    2  502    0 -0.25909651678E+02 -0.28412300665E+02 -0.74671583300E+02  0.84094510116E+02  0.41800000000E+01 0.  1.
         -5    1    1    2    0  502 -0.15056911995E+02  0.84586996708E+02 -0.21030101640E+02  0.88551726046E+02  0.41800000000E+01 0.  1.
        -11    1    3    3    0    0  0.93770324146E+00 -0.64571022162E+02 -0.20275840317E+02  0.67686083437E+02  0.00000000000E+00 0. -1.
         11    1    3    3    0    0  0.40028860432E+02  0.83963261198E+01 -0.17706492088E+02  0.44568237814E+02  0.00000000000E+00 0.  1.
</event>
<event>
 8    1  0.6597859E-009  0.4813824E+03  0.7561462E-02  0.1018756E+00
          1   -1    0    0  501    0  0.00000000000E+00  0.00000000000E+00  0.29232753486E+03  0.29232753486E+03  0.00000000000E+00 0. -1.
         -1   -1    0    0    0  501 -0.00000000000E+00 -0.00000000000E+00 -0.81739027554E+03  0.81739027554E+03  0.00000000000E+00 0.  1.
         25    2    1    2    0    0 -0.18259401061E+03 -0.43960723152E+03 -0.25215919493E+03  0.55301886567E+03  0.12510202031E+03 0.  0.
         23    2    1    2    0    0  0.18259401061E+03  0.43960723152E+03 -0.27290354575E+03  0.55669894473E+03  0.94033393346E+02 0.  0.
          5    1    3    3  502    0 -0.16748944948E+03 -0.32457408281E+03 -0.23823744461E+03  0.43609127867E+03  0.41800000000E+01 0. -1.
         -5    1    3    3    0  502 -0.15104561124E+02 -0.11503314871E+03 -0.13921750317E+02  0.11692758700E+03  0.41800000000E+01 0. -1.
        -11    1    4    4    0    0  0.17675219895E+03  0.35473639429E+03 -0.19657139429E+03  0.44240203698E+03  0.00000000000E+00 0. -1.
         11    1    4    4    0    0  0.58418116612E+01  0.84870837232E+02 -0.76332151458E+02  0.11429690775E+03  0.00000000000E+00 0.  1.
</event>
<event>
 8    1  0.6597859E-009  0.1512084E+03  0.7561462E-02  0.1198996E+00
         -2   -1    0    0    0  501 -0.00000000000E+00  0.00000000000E+00  0.40669374097E+02  0.40669374097E+02  0.00000000000E+00 0.  1.
          2   -1    0    0  501    0  0.00000000000E+00 -0.00000000000E+00 -0.66595425438E+03  0.66595425438E+03  0.00000000000E+00 0. -1.
         25    2    1    2    0    0  0.84793277005E+02 -0.70734607335E+02 -0.45376620979E+03  0.48347477107E+03  0.12510314391E+03 0.  0.
         23    2    1    2    0    0 -0.84793277005E+02  0.70734607335E+02 -0.17151867050E+03  0.22314885741E+03  0.90462554315E+02 0.  0.
          5    1    3    3  502    0 -0.28208057011E+02 -0.65059863086E+00 -0.42154094702E+02  0.50897523113E+02  0.41800000000E+01 0. -1.
         -5    1    3    3    0  502  0.11300133402E+03 -0.70084008705E+02 -0.41161211509E+03  0.43257724796E+03  0.41800000000E+01 0. -1.
        -11    1    4    4    0    0 -0.79706830424E+02  0.10484949498E+02 -0.79656547305E+02  0.11317366527E+03  0.00000000000E+00 0.  1.
         11    1    4    4    0    0 -0.50864465815E+01  0.60249657837E+02 -0.91862123192E+02  0.10997519214E+03  0.00000000000E+00 0. -1.
</event>
<event>
 8    1  0.6597859E-009  0.9111968E+02  0.7561462E-02  0.1300163E+00
          1   -1    0    0  501    0  0.00000000000E+00  0.00000000000E+00  0.13569924825E+03  0.13569924825E+03  0.00000000000E+00 0. -1.
         -1   -1    0    0    0  501 -0.00000000000E+00 -0.00000000000E+00 -0.94867081309E+02  0.94867081309E+02  0.00000000000E+00 0.  1.
         25    2    1    2    0    0  0.19706722263E+02  0.27672315414E+02  0.98358327274E+01  0.12998229196E+03  0.12507813828E+03 0.  0.
         23    2    1    2    0    0 -0.19706722263E+02 -0.27672315414E+02  0.30996334211E+02  0.10058403759E+03  0.89455374020E+02 0.  0.
          5    1    3    3  502    0  0.15597334786E+02  0.56752692799E+02  0.51850681795E+02  0.78550051527E+02  0.41800000000E+01 0.  1.
         -5    1    3    3    0  502  0.41093874770E+01 -0.29080377385E+02 -0.42014849067E+02  0.51432240437E+02  0.41800000000E+01 0.  1.
        -11    1    4    4    0    0  0.31245864189E+02  0.68945691754E+01  0.20826826603E+02  0.38178473246E+02  0.00000000000E+00 0.  1.
         11    1    4    4    0    0 -0.50952586452E+02 -0.34566884590E+02  0.10169507608E+02  0.62405564347E+02  0.00000000000E+00 0. -1.
</event>
<event>
 8    1  0.6597859E-009  0.9005757E+02  0.7561462E-02  0.1302712E+00
          1   -1    0    0  501    0  0.00000000000E+00  0.00000000000E+00  0.73655408058E+02  0.73655408058E+02  0.00000000000E+00 0. -1.
         -1   -1    0    0    0  501 -0.00000000000E+00 -0.00000000000E+00 -0.16381114726E+03  0.16381114726E+03  0.00000000000E+00 0.  1.
         25    2    1    2    0    0 -0.62377853218E+01 -0.13752489302E+02 -0.41958954188E+02  0.13280432231E+03  0.12509353804E+03 0.  0.
         23    2    1    2    0    0  0.62377853218E+01  0.13752489302E+02 -0.48196785011E+02  0.10466223301E+03  0.91669035148E+02 0.  0.
          5    1    3    3  502    0 -0.63737974048E+02 -0.99323545817E+01 -0.37784485784E+02  0.74875368241E+02  0.41800000000E+01 0. -1.
         -5    1    3    3    0  502  0.57500188726E+02 -0.38201347198E+01 -0.41744684042E+01  0.57928954067E+02  0.41800000000E+01 0. -1.
        -11    1    4    4    0    0  0.56404275715E+01  0.35496613304E+02 -0.66920276145E+02  0.75961485889E+02  0.00000000000E+00 0.  1.
         11    1    4    4    0    0  0.59735775025E+00 -0.21744124002E+02  0.18723491134E+02  0.28700747118E+02  0.00000000000E+00 0. -1.
</event>
<event>
 8    1  0.6597859E-009  0.1356485E+03  0.7561462E-02  0.1219307E+00
         -1   -1    0    0    0  501 -0.00000000000E+00  0.00000000000E+00  0.46242573340E+03  0.46242573340E+03  0.00000000000E+00 0.  1.
          1   -1    0    0  501    0  0.00000000000E+00 -0.00000000000E+00 -0.56556451577E+02  0.56556451577E+02  0.00000000000E+00 0. -1.
         25    2    1    2    0    0  0.90048597983E+02 -0.54917669801E+02  0.12972902779E+03  0.20881340131E+03  0.12509482588E+03 0.  0.
         23    2    1    2    0    0 -0.90048597983E+02  0.54917669801E+02  0.27614025404E+03  0.31016878366E+03  0.93949635470E+02 0.  0.
          5    1    3    3  502    0  0.49865722629E+02 -0.94385706532E+02  0.90963233068E+02  0.14031049163E+03  0.41800000000E+01 0.  1.
         -5    1    3    3    0  502  0.40182875354E+02  0.39468036731E+02  0.38765794720E+02  0.68502909686E+02  0.41800000000E+01 0.  1.
        -11    1    4    4    0    0 -0.27635112996E+02  0.29987971784E+02  0.20117974741E+02  0.45472088469E+02  0.00000000000E+00 0.  1.
         11    1    4    4    0    0 -0.62413484987E+02  0.24929698017E+02  0.25602227930E+03  0.26469669520E+03  0.00000000000E+00 0. -1.
</event>
<event>
 8    1  0.6597859E-009  0.1452692E+03  0.7561462E-02  0.1206410E+00
          2   -1    0    0  501    0  0.00000000000E+00  0.00000000000E+00  0.84104080521E+03  0.84104080521E+03  0.00000000000E+00 0. -1.
         -2   -1    0    0    0  501 -0.00000000000E+00 -0.00000000000E+00 -0.35678692122E+02  0.35678692122E+02  0.00000000000E+00 0.  1.
         25    2    1    2    0    0  0.38652725131E+02  0.12782505514E+03  0.38733234958E+03  0.42837874898E+03  0.12509486666E+03 0.  0.
         23    2    1    2    0    0 -0.38652725131E+02 -0.12782505514E+03  0.41802976351E+03  0.44834074836E+03  0.91800139302E+02 0.  0.
          5    1    3    3  502    0  0.52736148104E+01  0.67770913995E+02  0.51022489987E+02  0.85096854709E+02  0.41800000000E+01 0.  1.
         -5    1    3    3    0  502  0.33379110320E+02  0.60054141141E+02  0.33630985959E+03  0.34328189427E+03  0.41800000000E+01 0.  1.
        -11    1    4    4    0    0  0.23093371479E+02 -0.41030713638E+02  0.20282304883E+03  0.20821626354E+03  0.00000000000E+00 0. -1.
         11    1    4    4    0    0 -0.61746096610E+02 -0.86794341498E+02  0.21520671468E+03  0.24012448482E+03  0.00000000000E+00 0.  1.
</event>
<event>
 8    1  0.6597859E-009  0.1453785E+03  0.7561462E-02  0.1206270E+00
          2   -1    0    0  501    0  0.00000000000E+00  0.00000000000E+00  0.15485801855E+04  0.15485801855E+04  0.00000000000E+00 0. -1.
         -2   -1    0    0    0  501 -0.00000000000E+00 -0.00000000000E+00 -0.15095063100E+02  0.15095063100E+02  0.00000000000E+00 0.  1.
         25    2    1    2    0    0  0.89029740028E+02 -0.62037829939E+02  0.79430626088E+03  0.81138417727E+03  0.12508740988E+03 0.  0.
         23    2    1    2    0    0 -0.89029740028E+02  0.62037829939E+02  0.73917886156E+03  0.75229107136E+03  0.88212695910E+02 0.  0.
          5    1    3    3  502    0  0.46002329521E+02 -0.89173339315E+02  0.66199776830E+03  0.66957196507E+03  0.41800000000E+01 0.  1.
         -5    1    3    3    0  502  0.43027410507E+02  0.27135509377E+02  0.13230849257E+03  0.14181221221E+03  0.41800000000E+01 0.  1.
        -11    1    4    4    0    0 -0.67555763441E+02 -0.61163841705E+01  0.39351917295E+03  0.39932258990E+03  0.00000000000E+00 0. -1.
         11    1    4    4    0    0 -0.21473976587E+02  0.68154214109E+02  0.34565968861E+03  0.35296848146E+03  0.00000000000E+00 0.  1.
</event>
<event>
 8    1  0.6597859E-009  0.2908194E+03  0.7561462E-02  0.1089922E+00
         -1   -1    0    0    0  501 -0.00000000000E+00  0.00000000000E+00  0.29168869834E+03  0.29168869834E+03  0.00000000000E+00 0.  1.
          1   -1    0    0  501    0  0.00000000000E+00 -0.00000000000E+00 -0.35712422401E+03  0.35712422401E+03  0.00000000000E+00 0. -1.
         25    2    1    2    0    0  0.14612155642E+03 -0.23879105884E+03  0.79077876043E+02  0.31665887329E+03  0.12508737953E+03 0.  0.
         23    2    1    2    0    0 -0.14612155642E+03  0.23879105884E+03 -0.14451340171E+03  0.33215404907E+03  0.10521173891E+03 0.  0.
          5    1    3    3  502    0  0.23269005927E+02 -0.15310573313E+02 -0.28294027959E+02  0.39923485697E+02  0.41800000000E+01 0.  1.
         -5    1    3    3    0  502  0.12285255049E+03 -0.22348048553E+03  0.10737190400E+03  0.27673538759E+03  0.41800000000E+01 0.  1.
        -11    1    4    4    0    0 -0.94548659432E+02  0.59167997764E+02 -0.64704421155E+02  0.12894558184E+03  0.00000000000E+00 0.  1.
         11    1    4    4    0    0 -0.51572896987E+02  0.17962306108E+03 -0.79808980556E+02  0.20320846723E+03  0.00000000000E+00 0. -1.
</event>
<event>
 8    1  0.6597859E-009  0.4662872E+02  0.7561462E-02  0.1464423E+00
         -2   -1    0    0    0  501 -0.00000000000E+00  0.00000000000E+00  0.40613503515E+02  0.40613503515E+02  0.00000000000E+00 0.  1.
          2   -1    0    0  501    0  0.00000000000E+00 -0.00000000000E+00 -0.80517240148E+03  0.80517240148E+03  0.00000000000E+00 0. -1.
         25    2    1    2    0    0 -0.14378879810E+00  0.24461910819E+02 -0.72796158270E+03  0.73903575527E+03  0.12508947165E+03 0.  0.
         23    2    1    2    0    0  0.14378879810E+00 -0.24461910819E+02 -0.36597315259E+02  0.10675014972E+03  0.97251350766E+02 0.  0.
          5    1    3    3  502    0 -0.11149715280E+02  0.32990138971E+02 -0.72273788208E+03  0.72358840788E+03  0.41800000000E+01 0.  1.
         -5    1    3    3    0  502  0.11005926482E+02 -0.85282281516E+01 -0.52237006170E+01  0.15447347386E+02  0.41800000000E+01 0.  1.
        -11    1    4    4    0    0  0.15428392175E+02 -0.76395731847E+00 -0.64949934416E+02  0.66761612447E+02  0.00000000000E+00 0. -1.
         11    1    4    4    0    0 -0.15284603377E+02 -0.23697953500E+02  0.28352619157E+02  0.39988537277E+02  0.00000000000E+00 0.  1.
</event>
<event>
 8    1  0.6597859E-009  0.9593307E+02  0.7561462E-02  0.1289088E+00
         -2   -1    0    0    0  501 -0.00000000000E+00  0.00000000000E+00  0.22426559552E+02  0.22426559552E+02  0.00000000000E+00 0.  1.
          2   -1    0    0  501    0  0.00000000000E+00 -0.00000000000E+00 -0.57670102915E+03  0.57670102915E+03  0.00000000000E+00 0. -1.
         25    2    1    2    0    0  0.72418677342E+00  0.51165477999E+01 -0.22129525308E+03  0.25425525232E+03  0.12508973094E+03 0.  0.
         23    2    1    2    0    0 -0.72418677342E+00 -0.51165477999E+01 -0.33297921652E+03  0.34487233638E+03  0.89638531124E+02 0.  0.
          5    1    3    3  502    0  0.96334652046E+01  0.55602587467E+02 -0.17878461844E+03  0.18752563445E+03  0.41800000000E+01 0.  1.
         -5    1    3    3    0  502 -0.89092784312E+01 -0.50486039667E+02 -0.42510634643E+02  0.66729617871E+02  0.41800000000E+01 0.  1.
        -11    1    4    4    0    0 -0.23610768572E+02  0.32284213902E+02 -0.98186142493E+02  0.10602008035E+03  0.00000000000E+00 0.  1.
         11    1    4    4    0    0  0.22886581798E+02 -0.37400761702E+02 -0.23479307402E+03  0.23885225603E+03  0.00000000000E+00 0. -1.
</event>
<event>
 8    1  0.6597859E-009  0.1024660E+03  0.7561462E-02  0.1275194E+00
          3   -1    0    0  501    0  0.00000000000E+00  0.00000000000E+00  0.17128589369E+03  0.17128589369E+03  0.00000000000E+00 0. -1.
         -3   -1    0    0    0  501 -0.00000000000E+00 -0.00000000000E+00 -0.86694989385E+02  0.86694989385E+02  0.00000000000E+00 0.  1.
         25    2    1    2    0    0 -0.54112480946E+02 -0.33317303949E+00  0.50982518631E+02  0.14551199261E+03  0.12508497587E+03 0.  0.
         23    2    1    2    0    0  0.54112480946E+02  0.33317303949E+00  0.33608385674E+02  0.11246889047E+03  0.92690108086E+02 0.  0.
          5    1    3    3  502    0  0.28382858458E+02 -0.32778067456E+02  0.81210044862E+00  0.43567422090E+02  0.41800000000E+01 0.  1.
         -5    1    3    3    0  502 -0.82495339405E+02  0.32444894417E+02  0.50170418183E+02  0.10194457052E+03  0.41800000000E+01 0.  1.
        -11    1    4    4    0    0  0.11586145981E+02 -0.21798905263E+02 -0.26080409505E+02  0.35911262987E+02  0.00000000000E+00 0.  1.
         11    1    4    4    0    0  0.42526334966E+02  0.22132078303E+02  0.59688795179E+02  0.76557627481E+02  0.00000000000E+00 0. -1.
</event>
<event>
 8    1  0.6597859E-009  0.1448507E+03  0.7561462E-02  0.1206947E+00
          4   -1    0    0  501    0  0.00000000000E+00  0.00000000000E+00  0.94117244239E+03  0.94117244239E+03  0.00000000000E+00 0. -1.
         -4   -1    0    0    0  501 -0.00000000000E+00 -0.00000000000E+00 -0.26583901118E+02  0.26583901118E+02  0.00000000000E+00 0.  1.
         25    2    1    2    0    0  0.11046332972E+03 -0.64612758343E+00  0.38591832238E+03  0.42045502060E+03  0.12508760172E+03 0.  0.
         23    2    1    2    0    0 -0.11046332972E+03  0.64612758343E+00  0.52867021889E+03  0.54730132291E+03  0.88566207005E+02 0.  0.
          5    1    3    3  502    0  0.15510276317E+02  0.53058431553E+02  0.98916271137E+02  0.11339165281E+03  0.41800000000E+01 0. -1.
         -5    1    3    3    0  502  0.94953053402E+02 -0.53704559136E+02  0.28700205124E+03  0.30706336779E+03  0.41800000000E+01 0. -1.
        -11    1    4    4    0    0 -0.46427976288E+02 -0.28778700681E+02  0.11083050876E+03  0.12356039927E+03  0.00000000000E+00 0.  1.
         11    1    4    4    0    0 -0.64035353432E+02  0.29424828264E+02  0.41783971013E+03  0.42374092364E+03  0.00000000000E+00 0. -1.
</event>
<event>
 8    1  0.6597859E-009  0.9721895E+02  0.7561462E-02  0.1286255E+00
         -2   -1    0    0    0  501 -0.00000000000E+00  0.00000000000E+00  0.81766500966E+02  0.81766500966E+02  0.00000000000E+00 0.  1.
          2   -1    0    0  501    0  0.00000000000E+00 -0.00000000000E+00 -0.24726334716E+03  0.24726334716E+03  0.00000000000E+00 0. -1.
         25    2    1    2    0    0 -0.59804797865E+02 -0.73996354603E+01 -0.17028210827E+03  0.21971385733E+03  0.12508722659E+03 0.  0.
         23    2    1    2    0    0  0.59804797865E+02  0.73996354603E+01  0.47852620740E+01  0.10931599079E+03  0.91080835840E+02 0.  0.
          5    1    3    3  502    0 -0.53544536344E+01 -0.53900767733E+02 -0.12115038244E+03  0.13277368151E+03  0.41800000000E+01 0. -1.
         -5    1    3    3    0  502 -0.54450344231E+02  0.46501132273E+02 -0.49131725830E+02  0.86940175825E+02  0.41800000000E+01 0. -1.
        -11    1    4    4    0    0  0.44110815874E+02 -0.97103107562E+01  0.44440394316E+02  0.63364050210E+02  0.00000000000E+00 0.  1.
         11    1    4    4    0    0  0.15693981991E+02  0.17109946216E+02 -0.39655132242E+02  0.45951940584E+02  0.00000000000E+00 0. -1.
</event>
<event>
 8    1  0.6597859E-009  0.1903406E+03  0.7561462E-02  0.1158155E+00
         -2   -1    0    0    0  501 -0.00000000000E+00  0.00000000000E+00  0.23054621700E+02  0.23054621700E+02  0.00000000000E+00 0.  1.
          2   -1    0    0  501    0  0.00000000000E+00 -0.00000000000E+00 -0.17365100808E+04  0.17365100808E+04  0.00000000000E+00 0. -1.
         25    2    1    2    0    0 -0.55004026014E+02  0.15864334351E+03 -0.90418791953E+03  0.92811441675E+03  0.12508966163E+03 0.  0.
         23    2    1    2    0    0  0.55004026014E+02 -0.15864334351E+03 -0.80926753959E+03  0.83145028576E+03  0.90567509344E+02 0.  0.
          5    1    3    3  502    0 -0.30341966651E+02 -0.20312182865E+01 -0.50654408053E+02  0.59229234700E+02  0.41800000000E+01 0.  1.
         -5    1    3    3    0  502 -0.24662059363E+02  0.16067456179E+03 -0.85353351148E+03  0.86888518205E+03  0.41800000000E+01 0.  1.
        -11    1    4    4    0    0 -0.17093699083E+02 -0.75111598398E+02 -0.41218849048E+03  0.41932481258E+03  0.00000000000E+00 0. -1.
         11    1    4    4    0    0  0.72097725098E+02 -0.83531745110E+02 -0.39707904911E+03  0.41212547318E+03  0.00000000000E+00 0.  1.
</event>
<event>
 8    1  0.6597859E-009  0.1377693E+03  0.7561462E-02  0.1216362E+00
         -2   -1    0    0    0  501 -0.00000000000E+00  0.00000000000E+00  0.67692737932E+02  0.67692737932E+02  0.00000000000E+00 0.  1.
          2   -1    0    0  501    0  0.00000000000E+00 -0.00000000000E+00 -0.34566166808E+03  0.34566166808E+03  0.00000000000E+00 0. -1.
         25    2    1    2    0    0  0.19094478816E+02  0.10622892227E+03 -0.15727295585E+03  0.22810360487E+03  0.12508912368E+03 0.  0.
         23    2    1    2    0    0 -0.19094478816E+02 -0.10622892227E+03 -0.12069597429E+03  0.18525080114E+03  0.90006433472E+02 0.  0.
          5    1    3    3  502    0  0.18077221309E+02 -0.90020326041E+01 -0.94678817171E+02  0.96898778847E+02  0.41800000000E+01 0.  1.
         -5    1    3    3    0  502  0.10172575066E+01  0.11523095487E+03 -0.62594138684E+02  0.13120482602E+03  0.41800000000E+01 0.  1.
        -11    1    4    4    0    0  0.35741815981E+02 -0.42442932656E+02 -0.58557777552E+02  0.80671514514E+02  0.00000000000E+00 0.  1.
         11    1    4    4    0    0 -0.54836294797E+02 -0.63785989612E+02 -0.62138196739E+02  0.10457928663E+03  0.00000000000E+00 0. -1.
</event>
<event>
 8    1  0.6597859E-009  0.1012714E+03  0.7561462E-02  0.1277645E+00
          1   -1    0    0  501    0  0.00000000000E+00  0.00000000000E+00  0.27378037766E+03  0.27378037766E+03  0.00000000000E+00 0. -1.
         -1   -1    0    0    0  501 -0.00000000000E+00 -0.00000000000E+00 -0.62692745569E+02  0.62692745569E+02  0.00000000000E+00 0.  1.
         25    2    1    2    0    0  0.36785146430E+02  0.63091265975E+02  0.94748528572E+02  0.17308314567E+03  0.12508731674E+03 0.  0.
         23    2    1    2    0    0 -0.36785146430E+02 -0.63091265975E+02  0.11633910352E+03  0.16338997756E+03  0.88475097730E+02 0.  0.
          5    1    3    3  502    0 -0.70117015355E+01  0.73627610881E+02  0.70626194306E+01  0.74414662773E+02  0.41800000000E+01 0.  1.
         -5    1    3    3    0  502  0.43796847965E+02 -0.10536344906E+02  0.87685909141E+02  0.98668482899E+02  0.41800000000E+01 0.  1.
        -11    1    4    4    0    0  0.64580985677E+01 -0.24259844282E+02 -0.78255652387E+01  0.26296131902E+02  0.00000000000E+00 0.  1.
         11    1    4    4    0    0 -0.43243244998E+02 -0.38831421693E+02  0.12416466876E+03  0.13709384566E+03  0.00000000000E+00 0. -1.
</event>
<event>
 8    1  0.6597859E-009  0.1407695E+03  0.7561462E-02  0.1212297E+00
          3   -1    0    0  501    0  0.00000000000E+00  0.00000000000E+00  0.66173897758E+02  0.66173897758E+02  0.00000000000E+00 0. -1.
         -3   -1    0    0    0  501 -0.00000000000E+00 -0.00000000000E+00 -0.54035801061E+03  0.54035801061E+03  0.00000000000E+00 0.  1.
         25    2    1    2    0    0 -0.10885106151E+03 -0.81284732050E+02 -0.36938128218E+03  0.41297110381E+03  0.12508732830E+03 0.  0.
         23    2    1    2    0    0  0.10885106151E+03  0.81284732050E+02 -0.10480283067E+03  0.19356080456E+03  0.89590124957E+02 0.  0.
          5    1    3    3  502    0 -0.16356550766E+02  0.58283369226E+01  0.42039665749E+01  0.18348078897E+02  0.41800000000E+01 0.  1.
         -5    1    3    3    0  502 -0.92494510739E+02 -0.87113068973E+02 -0.37358524876E+03  0.39462302491E+03  0.41800000000E+01 0.  1.
        -11    1    4    4    0    0  0.20630574893E+02  0.22572134033E+02 -0.78684468300E+02  0.84417814511E+02  0.00000000000E+00 0.  1.
         11    1    4    4    0    0  0.88220486612E+02  0.58712598017E+02 -0.26118362374E+02  0.10914299005E+03  0.00000000000E+00 0. -1.
</event>
<event>
 8    1  0.6597859E-009  0.1674518E+03  0.7561462E-02  0.1180532E+00
         -1   -1    0    0    0  501 -0.00000000000E+00  0.00000000000E+00  0.57777409185E+02  0.57777409185E+02  0.00000000000E+00 0.  1.
          1   -1    0    0  501    0  0.00000000000E+00 -0.00000000000E+00 -0.68910837348E+03  0.68910837348E+03  0.00000000000E+00 0. -1.
         25    2    1    2    0    0  0.13820123850E+03 -0.28738008342E+02 -0.49639660875E+03  0.53102056151E+03  0.12509111929E+03 0.  0.
         23    2    1    2    0    0 -0.13820123850E+03  0.28738008342E+02 -0.13493435555E+03  0.21586522116E+03  0.92005749549E+02 0.  0.
          5    1    3    3  502    0  0.12895467407E+03  0.25198346250E+02 -0.31025945648E+03  0.33696092853E+03  0.41800000000E+01 0.  1.
         -5    1    3    3    0  502  0.92465644370E+01 -0.53936354591E+02 -0.18613715226E+03  0.19405963298E+03  0.41800000000E+01 0.  1.
        -11    1    4    4    0    0 -0.63223048549E+02 -0.10255394178E+02 -0.11079105998E+03  0.12797259843E+03  0.00000000000E+00 0. -1.
         11    1    4    4    0    0 -0.74978189954E+02  0.38993402520E+02 -0.24143295573E+02  0.87892622728E+02  0.00000000000E+00 0.  1.
</event>
<event>
 8    1  0.6597859E-009  0.7134509E+02  0.7561462E-02  0.1355578E+00
         -2   -1    0    0    0  501 -0.00000000000E+00  0.00000000000E+00  0.20438611990E+03  0.20438611990E+03  0.00000000000E+00 0.  1.
          2   -1    0    0  501    0  0.00000000000E+00 -0.00000000000E+00 -0.76070107726E+02  0.76070107726E+02  0.00000000000E+00 0. -1.
         25    2    1    2    0    0  0.56270077507E+02 -0.20343938159E+02  0.53869751760E+02  0.14876162336E+03  0.12509145849E+03 0.  0.
         23    2    1    2    0    0 -0.56270077507E+02  0.20343938159E+02  0.74446260411E+02  0.13169460427E+03  0.90669871848E+02 0.  0.
          5    1    3    3  502    0  0.43066065593E+02  0.14018859807E+02 -0.31750911487E+02  0.55468975258E+02  0.41800000000E+01 0.  1.
         -5    1    3    3    0  502  0.13204011913E+02 -0.34362797965E+02  0.85620663246E+02  0.93292648099E+02  0.41800000000E+01 0.  1.
        -11    1    4    4    0    0 -0.42943889250E+02  0.18283166697E+02  0.95728106075E+02  0.10650033850E+03  0.00000000000E+00 0.  1.
         11    1    4    4    0    0 -0.13326188257E+02  0.20607714616E+01 -0.21281845664E+02  0.25194265763E+02  0.00000000000E+00 0. -1.
</event>
<event>
 8    1  0.6597859E-009  0.1367237E+03  0.7561462E-02  0.1217807E+00
          1   -1    0    0  501    0  0.00000000000E+00  0.00000000000E+00  0.13575937084E+03  0.13575937084E+03  0.00000000000E+00 0. -1.
         -1   -1    0    0    0  501 -0.00000000000E+00 -0.00000000000E+00 -0.18202319537E+03  0.18202319537E+03  0.00000000000E+00 0.  1.
         25    2    1    2    0    0  0.62164841760E+02 -0.81167666244E+02  0.25190760812E+02  0.16351460633E+03  0.12509913851E+03 0.  0.
         23    2    1    2    0    0 -0.62164841760E+02  0.81167666244E+02 -0.71454585342E+02  0.15426795987E+03  0.90775481729E+02 0.  0.
          5    1    3    3  502    0  0.78869109395E+02 -0.96986012952E+02 -0.51824978466E+01  0.12518368028E+03  0.41800000000E+01 0. -1.
         -5    1    3    3    0  502 -0.16704267635E+02  0.15818346708E+02  0.30373258659E+02  0.38330926044E+02  0.41800000000E+01 0. -1.
        -11    1    4    4    0    0 -0.32077355118E+02  0.88403741957E+02 -0.78534680203E+02  0.12252295417E+03  0.00000000000E+00 0.  1.
         11    1    4    4    0    0 -0.30087486642E+02 -0.72360757130E+01  0.70800948604E+01  0.31745005708E+02  0.00000000000E+00 0. -1.
</event>
<event>
 8    1  0.6597859E-009  0.1289819E+03  0.7561462E-02  0.1228974E+00
          2   -1    0    0  501    0  0.00000000000E+00  0.00000000000E+00  0.20729765597E+04  0.20729765597E+04  0.00000000000E+00 0. -1.
         -2   -1    0    0    0  501 -0.00000000000E+00 -0.00000000000E+00 -0.17946382412E+02  0.17946382412E+02  0.00000000000E+00 0.  1.
         25    2    1    2    0    0  0.22806107772E+02 -0.96222676115E+02  0.17562467778E+04  0.17634707631E+04  0.12508983115E+03 0.  0.
         23    2    1    2    0    0 -0.22806107772E+02  0.96222676115E+02  0.29878339950E+03  0.32745217902E+03  0.90412873944E+02 0.  0.
          5    1    3    3  502    0  0.72168915980E+02 -0.35053879407E+02  0.82443734192E+03  0.82834264049E+03  0.41800000000E+01 0.  1.
         -5    1    3    3    0  502 -0.49362808208E+02 -0.61168796708E+02  0.93180943591E+03  0.93512812266E+03  0.41800000000E+01 0.  1.
        -11    1    4    4    0    0 -0.53156215238E+01  0.18863446874E+02  0.13707383943E+01  0.19645976278E+02  0.00000000000E+00 0.  1.
         11    1    4    4    0    0 -0.17490486248E+02  0.77359229241E+02  0.29741266111E+03  0.30780620274E+03  0.00000000000E+00 0. -1.
</event>
<event>
 8    1  0.6597859E-009  0.1178511E+03  0.7561462E-02  0.1246685E+00
          1   -1    0    0  501    0  0.00000000000E+00  0.00000000000E+00  0.11777890949E+03  0.11777890949E+03  0.00000000000E+00 0. -1.
         -1   -1    0    0    0  501 -0.00000000000E+00 -0.00000000000E+00 -0.13828952356E+03  0.13828952356E+03  0.00000000000E+00 0.  1.
         25    2    1    2    0    0  0.20879092665E+02  0.55505455962E+02  0.24349426472E+02  0.14056147903E+03  0.12509133729E+03 0.  0.
         23    2    1    2    0    0 -0.20879092665E+02 -0.55505455962E+02 -0.44860040545E+02  0.11550695402E+03  0.88389145470E+02 0.  0.
          5    1    3    3  502    0  0.54877683611E+02 -0.14577711254E+02  0.25878528793E+02  0.62539911069E+02  0.41800000000E+01 0. -1.
         -5    1    3    3    0  502 -0.33998590946E+02  0.70083167216E+02 -0.15291023211E+01  0.78021567962E+02  0.41800000000E+01 0. -1.
        -11    1    4    4    0    0  0.31351245237E+02 -0.26287604799E+02 -0.33768400017E+00  0.40915190021E+02  0.00000000000E+00 0. -1.
         11    1    4    4    0    0 -0.52230337902E+02 -0.29217851163E+02 -0.44522356545E+02  0.74591763998E+02  0.00000000000E+00 0.  1.
</event>
<event>
 8    1  0.6597859E-009  0.2137268E+03  0.7561462E-02  0.1138648E+00
          2   -1    0    0  501    0  0.00000000000E+00  0.00000000000E+00  0.13478679689E+04  0.13478679689E+04  0.00000000000E+00 0. -1.
         -2   -1    0    0    0  501 -0.00000000000E+00 -0.00000000000E+00 -0.45202981197E+02  0.45202981197E+02  0.00000000000E+00 0.  1.
         25    2    1    2    0    0 -0.16792532212E+03  0.12134758283E+03  0.88635879480E+03  0.91880548732E+03  0.12508981075E+03 0.  0.
         23    2    1    2    0    0  0.16792532212E+03 -0.12134758283E+03  0.41630619288E+03  0.47426546275E+03  0.93234828563E+02 0.  0.
          5    1    3    3  502    0 -0.15633441298E+03  0.85501715680E+02  0.84106695098E+03  0.85974535794E+03  0.41800000000E+01 0. -1.
         -5    1    3    3    0  502 -0.11590909141E+02  0.35845867153E+02  0.45291843817E+02  0.59060129385E+02  0.41800000000E+01 0. -1.
        -11    1    4    4    0    0  0.90091301399E+02 -0.39517961616E+02  0.28267139508E+03  0.29930123534E+03  0.00000000000E+00 0. -1.
         11    1    4    4    0    0  0.77834020720E+02 -0.81829621217E+02  0.13363479779E+03  0.17496422740E+03  0.00000000000E+00 0.  1.
</event>
<event>
 8    1  0.6597859E-009  0.9729372E+02  0.7561462E-02  0.1286092E+00
         -3   -1    0    0    0  501 -0.00000000000E+00  0.00000000000E+00  0.35766784533E+03  0.35766784533E+03  0.00000000000E+00 0.  1.
          3   -1    0    0  501    0  0.00000000000E+00 -0.00000000000E+00 -0.74718070987E+02  0.74718070987E+02  0.00000000000E+00 0. -1.
         25    2    1    2    0    0  0.21599100632E+00  0.77498264669E+02  0.27448579326E+03  0.31145422420E+03  0.12512096304E+03 0.  0.
         23    2    1    2    0    0 -0.21599100632E+00 -0.77498264669E+02  0.84639810885E+01  0.12093169212E+03  0.92448945394E+02 0.  0.
          5    1    3    3  502    0 -0.13819420184E+02  0.49160584808E+02  0.20039491406E+02  0.55016298391E+02  0.41800000000E+01 0. -1.
         -5    1    3    3    0  502  0.14035411190E+02  0.28337679861E+02  0.25444630185E+03  0.25643792581E+03  0.41800000000E+01 0. -1.
        -11    1    4    4    0    0 -0.39641898578E+02 -0.47760948285E+02  0.27653898328E+02  0.67950911669E+02  0.00000000000E+00 0.  1.
         11    1    4    4    0    0  0.39425907571E+02 -0.29737316384E+02 -0.19189917240E+02  0.52980780451E+02  0.00000000000E+00 0. -1.
</event>
<event>
 8    1  0.6597859E-009  0.9426560E+02  0.7561462E-02  0.1292839E+00
         -2   -1    0    0    0  501 -0.00000000000E+00  0.00000000000E+00  0.86548216070E+02  0.86548216070E+02  0.00000000000E+00 0. -1.
          2   -1    0    0  501    0  0.00000000000E+00 -0.00000000000E+00 -0.22256646159E+03  0.22256646159E+03  0.00000000000E+00 0.  1.
         25    2    1    2    0    0  0.13720639330E+02 -0.49411572613E+02  0.14435077089E+01  0.13520232461E+03  0.12509126833E+03 0.  0.
         23    2    1    2    0    0 -0.13720639330E+02  0.49411572613E+02 -0.13746175322E+03  0.17391235305E+03  0.93381012479E+02 0.  0.
          5    1    3    3  502    0 -0.16437225568E+02  0.66447427491E+01  0.51172662431E+02  0.54318033569E+02  0.41800000000E+01 0.  1.
         -5    1    3    3    0  502  0.30157864899E+02 -0.56056315362E+02 -0.49729154722E+02  0.80884291037E+02  0.41800000000E+01 0.  1.
        -11    1    4    4    0    0  0.39866875185E+02  0.28478080752E+02 -0.62000300381E+02  0.79021554450E+02  0.00000000000E+00 0. -1.
         11    1    4    4    0    0 -0.53587514516E+02  0.20933491861E+02 -0.75461452843E+02  0.94890798599E+02  0.00000000000E+00 0.  1.
</event>
<event>
 8    1  0.6597859E-009  0.1664978E+03  0.7561462E-02  0.1181550E+00
          1   -1    0    0  501    0  0.00000000000E+00  0.00000000000E+00  0.17650338293E+04  0.17650338293E+04  0.00000000000E+00 0. -1.
         -1   -1    0    0    0  501 -0.00000000000E+00 -0.00000000000E+00 -0.20354663968E+02  0.20354663968E+02  0.00000000000E+00 0.  1.
         25    2    1    2    0    0  0.13137095836E+03 -0.78362951859E+02  0.10311787460E+04  0.10499417041E+04  0.12509554345E+03 0.  0.
         23    2    1    2    0    0 -0.13137095836E+03  0.78362951859E+02  0.71350041931E+03  0.73544678909E+03  0.91651788343E+02 0.  0.
          5    1    3    3  502    0  0.17090202078E+02 -0.30057364319E+02  0.60627589517E+03  0.60727543472E+03  0.41800000000E+01 0.  1.
         -5    1    3    3    0  502  0.11428075628E+03 -0.48305587540E+02  0.42490285082E+03  0.44266626941E+03  0.41800000000E+01 0.  1.
        -11    1    4    4    0    0  0.11560132104E+02  0.11223022845E+02  0.31247627108E+02  0.35156892580E+02  0.00000000000E+00 0.  1.
         11    1    4    4    0    0 -0.14293109047E+03  0.67139929014E+02  0.68225279220E+03  0.70028989651E+03  0.00000000000E+00 0. -1.
</event>
<event>
 8    1  0.6597859E-009  0.5821172E+03  0.7561462E-02  0.9943218E-01
         -2   -1    0    0    0  501 -0.00000000000E+00  0.00000000000E+00  0.17553426024E+04  0.17553426024E+04  0.00000000000E+00 0. -1.
          2   -1    0    0  501    0  0.00000000000E+00 -0.00000000000E+00 -0.24396033337E+03  0.24396033337E+03  0.00000000000E+00 0.  1.
         25    2    1    2    0    0 -0.57966449266E+03 -0.99994063508E+01  0.11914257930E+04  0.13308861818E+04  0.12510674093E+03 0.  0.
         23    2    1    2    0    0  0.57966449266E+03  0.99994063508E+01  0.31995647603E+03  0.66841675393E+03  0.91092799919E+02 0.  0.
          5    1    3    3  502    0 -0.32167610464E+03 -0.26262236742E+02  0.79018941956E+03  0.85357015678E+03  0.41800000000E+01 0.  1.
         -5    1    3    3    0  502 -0.25798838802E+03  0.16262830391E+02  0.40123637342E+03  0.47731602504E+03  0.41800000000E+01 0.  1.
        -11    1    4    4    0    0  0.46098200192E+02 -0.15816969088E+02  0.68162439205E+01  0.49210585784E+02  0.00000000000E+00 0.  1.
         11    1    4    4    0    0  0.53356629247E+03  0.25816375438E+02  0.31314023211E+03  0.61920616814E+03  0.00000000000E+00 0. -1.
</event>
<event>
 8    1  0.6597859E-009  0.1414835E+03  0.7561462E-02  0.1211347E+00
          3   -1    0    0  501    0  0.00000000000E+00  0.00000000000E+00  0.15725688403E+03  0.15725688403E+03  0.00000000000E+00 0. -1.
         -3   -1    0    0    0  501 -0.00000000000E+00 -0.00000000000E+00 -0.13680496736E+03  0.13680496736E+03  0.00000000000E+00 0.  1.
         25    2    1    2    0    0 -0.68678463932E+02 -0.68851314820E+02  0.23179722030E+02  0.16013301353E+03  0.12509215623E+03 0.  0.
         23    2    1    2    0    0  0.68678463932E+02  0.68851314820E+02 -0.27278053668E+01  0.13392883786E+03  0.92044868008E+02 0.  0.
          5    1    3    3  502    0 -0.99758483613E+02 -0.76950089047E+02  0.18401151930E+02  0.12739366566E+03  0.41800000000E+01 0.  1.
         -5    1    3    3    0  502  0.31080019680E+02  0.80987742270E+01  0.47785701001E+01  0.32739347878E+02  0.41800000000E+01 0.  1.
        -11    1    4    4    0    0  0.67162240243E+02  0.12704528401E+02  0.23041311052E+02  0.72132333744E+02  0.00000000000E+00 0. -1.
         11    1    4    4    0    0  0.15162236897E+01  0.56146786419E+02 -0.25769116419E+02  0.61796504112E+02  0.00000000000E+00 0.  1.
</event>
<event>
 8    1  0.6597859E-009  0.1584192E+03  0.7561462E-02  0.1190493E+00
          1   -1    0    0  501    0  0.00000000000E+00  0.00000000000E+00  0.82881696483E+03  0.82881696483E+03  0.00000000000E+00 0. -1.
         -1   -1    0    0    0  501 -0.00000000000E+00 -0.00000000000E+00 -0.41148227821E+02  0.41148227821E+02  0.00000000000E+00 0.  1.
         25    2    1    2    0    0  0.48430966697E+02  0.10934448551E+03  0.20590258785E+03  0.26897006027E+03  0.12508893871E+03 0.  0.
         23    2    1    2    0    0 -0.48430966697E+02 -0.10934448551E+03  0.58176614915E+03  0.60099513238E+03  0.91877754647E+02 0.  0.
          5    1    3    3  502    0  0.86041288854E+02  0.52437384360E+02  0.14963434190E+03  0.18044581276E+03  0.41800000000E+01 0. -1.
         -5    1    3    3    0  502 -0.37610322156E+02  0.56907101152E+02  0.56268245953E+02  0.88524247508E+02  0.41800000000E+01 0. -1.
        -11    1    4    4    0    0 -0.71808253234E+02 -0.62090136235E+02  0.42932542969E+03  0.43969527497E+03  0.00000000000E+00 0. -1.
         11    1    4    4    0    0  0.23377286537E+02 -0.47254349278E+02  0.15244071946E+03  0.16129985741E+03  0.00000000000E+00 0.  1.
</event>
<event>
 8    1  0.6597859E-009  0.7827545E+02  0.7561462E-02  0.1334018E+00
         -1   -1    0    0    0  501 -0.00000000000E+00  0.00000000000E+00  0.91116662912E+01  0.91116662912E+01  0.00000000000E+00 0.  1.
          1   -1    0    0  501    0  0.00000000000E+00 -0.00000000000E+00 -0.20330651573E+04  0.20330651573E+04  0.00000000000E+00 0. -1.
         25    2    1    2    0    0  0.24889184605E+02 -0.14895274268E+02 -0.16725601792E+04  0.16774812464E+04  0.12507772872E+03 0.  0.
         23    2    1    2    0    0 -0.24889184605E+02  0.14895274268E+02 -0.35139331182E+03  0.36469557722E+03  0.93189397168E+02 0.  0.
          5    1    3    3  502    0  0.35463581582E+02  0.11488814922E+02 -0.14897232464E+03  0.15362253869E+03  0.41800000000E+01 0. -1.
         -5    1    3    3    0  502 -0.10574396977E+02 -0.26384089190E+02 -0.15235878546E+04  0.15238587077E+04  0.41800000000E+01 0. -1.
        -11    1    4    4    0    0  0.23424970349E+02 -0.19926731419E+02 -0.61651154170E+02  0.68896071524E+02  0.00000000000E+00 0.  1.
         11    1    4    4    0    0 -0.48314154954E+02  0.34822005687E+02 -0.28974215765E+03  0.29579950570E+03  0.00000000000E+00 0. -1.
</event>
<event>
 8    1  0.6597859E-009  0.1737951E+03  0.7561462E-02  0.1173947E+00
          2   -1    0    0  501    0  0.00000000000E+00  0.00000000000E+00  0.79932706981E+03  0.79932706981E+03  0.00000000000E+00 0. -1.
         -2   -1    0    0    0  501 -0.00000000000E+00 -0.00000000000E+00 -0.48374995147E+02  0.48374995147E+02  0.00000000000E+00 0.  1.
         25    2    1    2    0    0  0.13832329948E+03 -0.86285016399E+02  0.36775943326E+03  0.42127533478E+03  0.12508983855E+03 0.  0.
         23    2    1    2    0    0 -0.13832329948E+03  0.86285016399E+02  0.38319264140E+03  0.42642673017E+03  0.91786254684E+02 0.  0.
          5    1    3    3  502    0  0.14627925279E+03 -0.89899223791E+02  0.37272421695E+03  0.41039042940E+03  0.41800000000E+01 0.  1.
         -5    1    3    3    0  502 -0.79559533087E+01  0.36142073917E+01 -0.49647836937E+01  0.10884905385E+02  0.41800000000E+01 0.  1.
        -11    1    4    4    0    0 -0.39660318482E+02  0.42755907597E+02  0.52051816495E+02  0.78169048203E+02  0.00000000000E+00 0.  1.
         11    1    4    4    0    0 -0.98662981000E+02  0.43529108802E+02  0.33114082490E+03  0.34825768197E+03  0.00000000000E+00 0. -1.
</event>
<event>
 8    1  0.6597859E-009  0.1410865E+03  0.7561462E-02  0.1211874E+00
         -2   -1    0    0    0  501 -0.00000000000E+00  0.00000000000E+00  0.10341131125E+03  0.10341131125E+03  0.00000000000E+00 0.  1.
          2   -1    0    0  501    0  0.00000000000E+00 -0.00000000000E+00 -0.23147052432E+03  0.23147052432E+03  0.00000000000E+00 0. -1.
         25    2    1    2    0    0 -0.10447567862E+03 -0.31080421638E+02 -0.75726285168E+02  0.18238364342E+03  0.12509261805E+03 0.  0.
         23    2    1    2    0    0  0.10447567862E+03  0.31080421638E+02 -0.52332927899E+02  0.15249819214E+03  0.92929022554E+02 0.  0.
          5    1    3    3  502    0  0.21420564199E+02 -0.20175682643E+02 -0.42131256408E+02  0.51559809030E+02  0.41800000000E+01 0. -1.
         -5    1    3    3    0  502 -0.12589624282E+03 -0.10904738995E+02 -0.33595028759E+02  0.13082383439E+03  0.41800000000E+01 0. -1.
        -11    1    4    4    0    0  0.37656561980E+01 -0.14853891584E+02  0.16207731728E+02  0.22304905953E+02  0.00000000000E+00 0.  1.
         11    1    4    4    0    0  0.10071002242E+03  0.45934313222E+02 -0.68540659627E+02  0.13019328619E+03  0.00000000000E+00 0. -1.
</event>
<event>
 8    1  0.6597859E-009  0.1017466E+03  0.7561462E-02  0.1276665E+00
         -2   -1    0    0    0  501 -0.00000000000E+00  0.00000000000E+00  0.95555935239E+02  0.95555935239E+02  0.00000000000E+00 0. -1.
          2   -1    0    0  501    0  0.00000000000E+00 -0.00000000000E+00 -0.14729198681E+03  0.14729198681E+03  0.00000000000E+00 0.  1.
         25    2    1    2    0    0 -0.44152797846E+02  0.19661181888E+02 -0.39530865571E+01  0.13416249253E+03  0.12509162993E+03 0.  0.
         23    2    1    2    0    0  0.44152797846E+02 -0.19661181888E+02 -0.47782965013E+02  0.10868542952E+03  0.84813201881E+02 0.  0.
          5    1    3    3  502    0 -0.95088697529E+01  0.56160772082E+02  0.37926616713E+02  0.68559110117E+02  0.41800000000E+01 0.  1.
         -5    1    3    3    0  502 -0.34643928093E+02 -0.36499590194E+02 -0.41879703270E+02  0.65603382413E+02  0.41800000000E+01 0.  1.
        -11    1    4    4    0    0  0.54224847589E+02 -0.43814666405E+02 -0.43487589511E+02  0.82165865965E+02  0.00000000000E+00 0.  1.
         11    1    4    4    0    0 -0.10072049743E+02  0.24153484517E+02 -0.42953755014E+01  0.26519563553E+02  0.00000000000E+00 0. -1.
</event>
<event>
 8    1  0.6597859E-009  0.3427730E+03  0.7561462E-02  0.1065621E+00
         -1   -1    0    0    0  501 -0.00000000000E+00  0.00000000000E+00  0.97002960776E+02  0.97002960776E+02  0.00000000000E+00 0.  1.
          1   -1    0    0  501    0  0.00000000000E+00 -0.00000000000E+00 -0.13927735183E+04  0.13927735183E+04  0.00000000000E+00 0. -1.
         25    2    1    2    0    0 -0.30339819639E+03  0.14623968053E+03 -0.44410115271E+03  0.57123603182E+03  0.12509300727E+03 0.  0.
         23    2    1    2    0    0  0.30339819639E+03 -0.14623968053E+03 -0.85166940486E+03  0.91854044731E+03  0.70279929081E+02 0.  0.
          5    1    3    3  502    0 -0.18934798490E+03  0.51740841144E+02 -0.17025338163E+03  0.25987200770E+03  0.41800000000E+01 0. -1.
         -5    1    3    3    0  502 -0.11405021149E+03  0.94498839389E+02 -0.27384777108E+03  0.31136402412E+03  0.41800000000E+01 0. -1.
        -11    1    4    4    0    0  0.13240255055E+03 -0.93524113126E+02 -0.46581083649E+03  0.49321083780E+03  0.00000000000E+00 0. -1.
         11    1    4    4    0    0  0.17099564584E+03 -0.52715567407E+02 -0.38585856837E+03  0.42532960951E+03  0.00000000000E+00 0.  1.
</event>
<event>
 8    1  0.6597859E-009  0.2043929E+03  0.7561462E-02  0.1146085E+00
         -1   -1    0    0    0  501 -0.00000000000E+00  0.00000000000E+00  0.20807732399E+03  0.20807732399E+03  0.00000000000E+00 0.  1.
          1   -1    0    0  501    0  0.00000000000E+00 -0.00000000000E+00 -0.23372813008E+03  0.23372813008E+03  0.00000000000E+00 0. -1.
         25    2    1    2    0    0 -0.63610251053E+02 -0.17557345347E+03 -0.49322491578E+02  0.23012636938E+03  0.12511249380E+03 0.  0.
         23    2    1    2    0    0  0.63610251053E+02  0.17557345347E+03  0.23671685489E+02  0.21167908469E+03  0.96826569688E+02 0.  0.
          5    1    3    3  502    0 -0.30951338998E+02 -0.13868418220E+02 -0.55286869420E+02  0.64995605544E+02  0.41800000000E+01 0. -1.
         -5    1    3    3    0  502 -0.32658912055E+02 -0.16170503525E+03  0.59643778418E+01  0.16513076384E+03  0.41800000000E+01 0. -1.
        -11    1    4    4    0    0  0.30801965004E+02 -0.17786384078E+00  0.99339693397E+01  0.32364740545E+02  0.00000000000E+00 0.  1.
         11    1    4    4    0    0  0.32808286049E+02  0.17575131732E+03  0.13737716149E+02  0.17931434415E+03  0.00000000000E+00 0. -1.
</event>
<event>
 8    1  0.6597859E-009  0.2646346E+03  0.7561462E-02  0.1104390E+00
          1   -1    0    0  501    0  0.00000000000E+00  0.00000000000E+00  0.14386845536E+04  0.14386845536E+04  0.00000000000E+00 0. -1.
         -1   -1    0    0    0  501 -0.00000000000E+00 -0.00000000000E+00 -0.56503514834E+02  0.56503514834E+02  0.00000000000E+00 0.  1.
         25    2    1    2    0    0  0.20143259092E+03 -0.16085689210E+03  0.56472967682E+03  0.63325852321E+03  0.12508685350E+03 0.  0.
         23    2    1    2    0    0 -0.20143259092E+03  0.16085689210E+03  0.81745136191E+03  0.86192954519E+03  0.90806295819E+02 0.  0.
          5    1    3    3  502    0  0.78573538795E+02 -0.11410612458E+03  0.18339537945E+03  0.22988115684E+03  0.41800000000E+01 0. -1.
         -5    1    3    3    0  502  0.12285905212E+03 -0.46750767522E+02  0.38133429737E+03  0.40337736637E+03  0.41800000000E+01 0. -1.
        -11    1    4    4    0    0 -0.16896285847E+02  0.50662900316E+01  0.12737434324E+02  0.21757619430E+02  0.00000000000E+00 0.  1.
         11    1    4    4    0    0 -0.18453630507E+03  0.15579060207E+03  0.80471392758E+03  0.84017192576E+03  0.00000000000E+00 0. -1.
</event>
<event>
 8    1  0.6597859E-009  0.1063732E+03  0.7561462E-02  0.1267438E+00
         -1   -1    0    0    0  501 -0.00000000000E+00  0.00000000000E+00  0.40346530713E+03  0.40346530713E+03  0.00000000000E+00 0.  1.
          1   -1    0    0  501    0  0.00000000000E+00 -0.00000000000E+00 -0.47370923706E+02  0.47370923706E+02  0.00000000000E+00 0. -1.
         25    2    1    2    0    0  0.62340834334E+02 -0.19269856373E+02  0.28541126902E+03  0.31837949801E+03  0.12509278668E+03 0.  0.
         23    2    1    2    0    0 -0.62340834334E+02  0.19269856373E+02  0.70683114406E+02  0.13245673283E+03  0.91054798991E+02 0.  0.
          5    1    3    3  502    0  0.27056505378E+00  0.29065490981E+02  0.20015243962E+03  0.20229519880E+03  0.41800000000E+01 0. -1.
         -5    1    3    3    0  502  0.62070269280E+02 -0.48335347355E+02  0.85258829396E+02  0.11608429921E+03  0.41800000000E+01 0. -1.
        -11    1    4    4    0    0 -0.50133967597E+02 -0.26863931393E+02  0.61664895871E+02  0.83890672305E+02  0.00000000000E+00 0.  1.
         11    1    4    4    0    0 -0.12206866737E+02  0.46133787767E+02  0.90182185345E+01  0.48566060523E+02  0.00000000000E+00 0. -1.
</event>
<event>
 8    1  0.6597859E-009  0.1180108E+03  0.7561462E-02  0.1246415E+00
          2   -1    0    0  501    0  0.00000000000E+00  0.00000000000E+00  0.78999128875E+03  0.78999128875E+03  0.00000000000E+00 0. -1.
         -2   -1    0    0    0  501 -0.00000000000E+00 -0.00000000000E+00 -0.25863713555E+02  0.25863713555E+02  0.00000000000E+00 0.  1.
         25    2    1    2    0    0  0.58823487092E+02 -0.70765168683E+02  0.39927916270E+03  0.42841500145E+03  0.12509057508E+03 0.  0.
         23    2    1    2    0    0 -0.58823487092E+02  0.70765168683E+02  0.36484841250E+03  0.38744000085E+03  0.92344347018E+02 0.  0.
          5    1    3    3  502    0  0.59871292489E+02 -0.87606488552E+02  0.39690998668E+03  0.41087039128E+03  0.41800000000E+01 0.  1.
         -5    1    3    3    0  502 -0.10478053975E+01  0.16841319870E+02  0.23691760116E+01  0.17544610172E+02  0.41800000000E+01 0.  1.
        -11    1    4    4    0    0 -0.51343975128E+02  0.11379583839E+02  0.27152766447E+03  0.27657362723E+03  0.00000000000E+00 0. -1.
         11    1    4    4    0    0 -0.74795119637E+01  0.59385584844E+02  0.93320748032E+02  0.11086637362E+03  0.00000000000E+00 0.  1.
</event>
<event>
 8    1  0.6597859E-009  0.6476987E+02  0.7561462E-02  0.1378839E+00
         -2   -1    0    0    0  501 -0.00000000000E+00  0.00000000000E+00  0.15989265946E+02  0.15989265946E+02  0.00000000000E+00 0.  1.
          2   -1    0    0  501    0  0.00000000000E+00 -0.00000000000E+00 -0.83795544195E+03  0.83795544195E+03  0.00000000000E+00 0. -1.
         25    2    1    2    0    0  0.18939956788E+02 -0.19071000757E+02 -0.57598790712E+03  0.59002535690E+03  0.12508168373E+03 0.  0.
         23    2    1    2    0    0 -0.18939956788E+02  0.19071000757E+02 -0.24597826889E+03  0.26391935100E+03  0.91791557532E+02 0.  0.
          5    1    3    3  502    0  0.14831350999E+02  0.39231913167E+01 -0.56251146837E+03  0.56273615918E+03  0.41800000000E+01 0. -1.
         -5    1    3    3    0  502  0.41086057893E+01 -0.22994192074E+02 -0.13476438746E+02  0.27289197715E+02  0.41800000000E+01 0. -1.
        -11    1    4    4    0    0 -0.49498182817E+01  0.52988957472E+02 -0.18730390886E+03  0.19471796165E+03  0.00000000000E+00 0.  1.
         11    1    4    4    0    0 -0.13990138507E+02 -0.33917956715E+02 -0.58674360023E+02  0.69201389345E+02  0.00000000000E+00 0. -1.
</event>
<event>
 8    1  0.6597859E-009  0.8437084E+02  0.7561462E-02  0.1317086E+00
          1   -1    0    0  501    0  0.00000000000E+00  0.00000000000E+00  0.38173859978E+02  0.38173859978E+02  0.00000000000E+00 0. -1.
         -1   -1    0    0    0  501 -0.00000000000E+00 -0.00000000000E+00 -0.37671632843E+03  0.37671632843E+03  0.00000000000E+00 0.  1.
         25    2    1    2    0    0 -0.82229604456E+01  0.36407869203E+02 -0.13099420509E+03  0.18493198333E+03  0.12508879515E+03 0.  0.
         23    2    1    2    0    0  0.82229604456E+01 -0.36407869203E+02 -0.20754826336E+03  0.22995820508E+03  0.91713382013E+02 0.  0.
          5    1    3    3  502    0  0.39039918692E+02  0.29557712066E+02 -0.12775698662E+03  0.13688350384E+03  0.41800000000E+01 0.  1.
         -5    1    3    3    0  502 -0.47262879138E+02  0.68501571375E+01 -0.32372184662E+01  0.48048479482E+02  0.41800000000E+01 0.  1.
        -11    1    4    4    0    0  0.34970826300E+02 -0.20726203335E+02 -0.19006335643E+03  0.19436206846E+03  0.00000000000E+00 0.  1.
         11    1    4    4    0    0 -0.26747865854E+02 -0.15681665868E+02 -0.17484906933E+02  0.35596136625E+02  0.00000000000E+00 0. -1.
</event>
<event>
 8    1  0.6597859E-009  0.9930089E+02  0.7561462E-02  0.1281773E+00
          1   -1    0    0  501    0  0.00000000000E+00  0.00000000000E+00  0.49358184594E+03  0.49358184594E+03  0.00000000000E+00 0. -1.
         -1   -1    0    0    0  501 -0.00000000000E+00 -0.00000000000E+00 -0.34058812672E+02  0.34058812672E+02  0.00000000000E+00 0.  1.
         25    2    1    2    0    0 -0.24817277813E+02  0.47776997222E+02  0.36434125834E+03  0.38896115905E+03  0.12509073500E+03 0.  0.
         23    2    1    2    0    0  0.24817277813E+02 -0.47776997222E+02  0.95181774935E+02  0.13867949956E+03  0.85287130199E+02 0.  0.
          5    1    3    3  502    0 -0.64607412446E+02  0.82921063582E+01  0.10528238822E+03  0.12387384890E+03  0.41800000000E+01 0.  1.
         -5    1    3    3    0  502  0.39790134633E+02  0.39484890864E+02  0.25905887011E+03  0.26508731015E+03  0.41800000000E+01 0.  1.
        -11    1    4    4    0    0  0.38785348489E+02 -0.15171620008E+02  0.94423326431E+02  0.10320002851E+03  0.00000000000E+00 0. -1.
         11    1    4    4    0    0 -0.13968070676E+02 -0.32605377214E+02  0.75844850317E+00  0.35479471047E+02  0.00000000000E+00 0.  1.
</event>
<event>
 8    1  0.6597859E-009  0.1102928E+03  0.7561462E-02  0.1260029E+00
         -1   -1    0    0    0  501 -0.00000000000E+00  0.00000000000E+00  0.63172759627E+02  0.63172759627E+02  0.00000000000E+00 0.  1.
          1   -1    0    0  501    0  0.00000000000E+00 -0.00000000000E+00 -0.24279970700E+03  0.24279970700E+03  0.00000000000E+00 0. -1.
         25    2    1    2    0    0 -0.22114629710E+02 -0.52973865743E+02 -0.94890009339E+02  0.16717331897E+03  0.12509003719E+03 0.  0.
         23    2    1    2    0    0  0.22114629710E+02  0.52973865743E+02 -0.84736938032E+02  0.13879914766E+03  0.93752692891E+02 0.  0.
          5    1    3    3  502    0  0.38562658890E+02  0.19008668503E+02 -0.34054562589E+02  0.55005397663E+02  0.41800000000E+01 0. -1.
         -5    1    3    3    0  502 -0.60677288601E+02 -0.71982534246E+02 -0.60835446750E+02  0.11216792130E+03  0.41800000000E+01 0. -1.
        -11    1    4    4    0    0  0.43077919472E+02  0.37205330270E+02 -0.77250783375E+01  0.57442323959E+02  0.00000000000E+00 0.  1.
         11    1    4    4    0    0 -0.20963289762E+02  0.15768535472E+02 -0.77011859694E+02  0.81356823697E+02  0.00000000000E+00 0. -1.
</event>
<event>
 8    1  0.6597859E-009  0.1146335E+03  0.7561462E-02  0.1252222E+00
          2   -1    0    0  501    0  0.00000000000E+00  0.00000000000E+00  0.90666733908E+02  0.90666733908E+02  0.00000000000E+00 0.  1.
         -2   -1    0    0    0  501 -0.00000000000E+00 -0.00000000000E+00 -0.17723533362E+03  0.17723533362E+03  0.00000000000E+00 0. -1.
         25    2    1    2    0    0  0.64836099450E+02  0.95716635371E+01 -0.42602484641E+02  0.14750783407E+03  0.12509297693E+03 0.  0.
         23    2    1    2    0    0 -0.64836099450E+02 -0.95716635371E+01 -0.43966115066E+02  0.12039423346E+03  0.90919830847E+02 0.  0.
          5    1    3    3  502    0  0.22797389091E+02 -0.56374617563E+02 -0.65936053356E+01  0.61308779845E+02  0.41800000000E+01 0.  1.
         -5    1    3    3    0  502  0.42038710359E+02  0.65946281100E+02 -0.36008879305E+02  0.86199054220E+02  0.41800000000E+01 0.  1.
        -11    1    4    4    0    0  0.12707529367E+01  0.18235024720E+02  0.17971078601E+02  0.25633778607E+02  0.00000000000E+00 0.  1.
         11    1    4    4    0    0 -0.66106852387E+02 -0.27806688257E+02 -0.61937193667E+02  0.94760454852E+02  0.00000000000E+00 0. -1.
</event>
<event>
 8    1  0.6597859E-009  0.1072285E+03  0.7561462E-02  0.1265790E+00
          1   -1    0    0  501    0  0.00000000000E+00  0.00000000000E+00  0.95259985307E+02  0.95259985307E+02  0.00000000000E+00 0. -1.
         -1   -1    0    0    0  501 -0.00000000000E+00 -0.00000000000E+00 -0.18434014234E+03  0.18434014234E+03  0.00000000000E+00 0.  1.
         25    2    1    2    0    0  0.52372091936E+02 -0.58916954287E+02 -0.50816296303E+02  0.15634443713E+03  0.12508894249E+03 0.  0.
         23    2    1    2    0    0 -0.52372091936E+02  0.58916954287E+02 -0.38263860734E+02  0.12325569052E+03  0.86682170553E+02 0.  0.
          5    1    3    3  502    0  0.63663733663E+02 -0.31166486379E+02 -0.84961807541E+02  0.11072669957E+03  0.41800000000E+01 0.  1.
         -5    1    3    3    0  502 -0.11291641727E+02 -0.27750467908E+02  0.34145511239E+02  0.45617737556E+02  0.41800000000E+01 0.  1.
        -11    1    4    4    0    0 -0.24214718826E+02  0.76340249565E+02 -0.11979704849E+02  0.80979624843E+02  0.00000000000E+00 0.  1.
         11    1    4    4    0    0 -0.28157373110E+02 -0.17423295277E+02 -0.26284155886E+02  0.42276065681E+02  0.00000000000E+00 0. -1.
</event>
<event>
 8    1  0.6597859E-009  0.1141945E+03  0.7561462E-02  0.1252994E+00
         -1   -1    0    0    0  501 -0.00000000000E+00  0.00000000000E+00  0.34694343312E+03  0.34694343312E+03  0.00000000000E+00 0.  1.
          1   -1    0    0  501    0  0.00000000000E+00 -0.00000000000E+00 -0.39838918081E+02  0.39838918081E+02  0.00000000000E+00 0. -1.
         25    2    1    2    0    0 -0.11526290094E+01 -0.44938889122E+02  0.21761865268E+03  0.25500182708E+03  0.12508885447E+03 0.  0.
         23    2    1    2    0    0  0.11526290094E+01  0.44938889122E+02  0.89485862357E+02  0.13178052412E+03  0.85659527581E+02 0.  0.
          5    1    3    3  502    0  0.29509161504E+01  0.43743912130E+02  0.71296066427E+02  0.83802382082E+02  0.41800000000E+01 0.  1.
         -5    1    3    3    0  502 -0.41035451598E+01 -0.88682801252E+02  0.14632258625E+03  0.17119944500E+03  0.41800000000E+01 0.  1.
        -11    1    4    4    0    0 -0.37817403341E+02  0.41809272278E+02  0.42168063503E+02  0.70401113795E+02  0.00000000000E+00 0.  1.
         11    1    4    4    0    0  0.38970032351E+02  0.31296168432E+01  0.47317798854E+02  0.61379410322E+02  0.00000000000E+00 0. -1.
</event>
<event>
 8    1  0.6597859E-009  0.9263934E+02  0.7561462E-02  0.1296583E+00
          1   -1    0    0  501    0  0.00000000000E+00  0.00000000000E+00  0.23215811013E+03  0.23215811013E+03  0.00000000000E+00 0. -1.
         -1   -1    0    0    0  501 -0.00000000000E+00 -0.00000000000E+00 -0.52054902988E+02  0.52054902988E+02  0.00000000000E+00 0.  1.
         25    2    1    2    0    0  0.47273905221E+01 -0.16238579945E+02  0.14009599020E+03  0.18857555768E+03  0.12509122584E+03 0.  0.
         23    2    1    2    0    0 -0.47273905221E+01  0.16238579945E+02  0.40007216940E+02  0.95637455440E+02  0.85205080693E+02 0.  0.
          5    1    3    3  502    0 -0.54817104030E+02 -0.61253371401E+01  0.10478252320E+03  0.11848748549E+03  0.41800000000E+01 0.  1.
         -5    1    3    3    0  502  0.59544494552E+02 -0.10113242805E+02  0.35313467001E+02  0.70088072189E+02  0.41800000000E+01 0.  1.
        -11    1    4    4    0    0  0.18882877162E+02  0.34662726806E+02 -0.68153939598E+01  0.40056426130E+02  0.00000000000E+00 0.  1.
         11    1    4    4    0    0 -0.23610267684E+02 -0.18424146861E+02  0.46822610900E+02  0.55581029310E+02  0.00000000000E+00 0. -1.
</event>
<event>
 8    1  0.6597859E-009  0.1262424E+03  0.7561462E-02  0.1233140E+00
          1   -1    0    0  501    0  0.00000000000E+00  0.00000000000E+00  0.73206482418E+03  0.73206482418E+03  0.00000000000E+00 0. -1.
         -1   -1    0    0    0  501 -0.00000000000E+00 -0.00000000000E+00 -0.49319814870E+02  0.49319814870E+02  0.00000000000E+00 0.  1.
         25    2    1    2    0    0 -0.51221543229E+02  0.11091258830E+03  0.56136880809E+03  0.58796944695E+03  0.12509149898E+03 0.  0.
         23    2    1    2    0    0  0.51221543229E+02 -0.11091258830E+03  0.12137620122E+03  0.19341519210E+03  0.88045474481E+02 0.  0.
          5    1    3    3  502    0  0.72746880650E+01  0.12741817951E+02  0.18925052805E+00  0.15257235231E+02  0.41800000000E+01 0. -1.
         -5    1    3    3    0  502 -0.58496231294E+02  0.98170770353E+02  0.56117955757E+03  0.57271221172E+03  0.41800000000E+01 0. -1.
        -11    1    4    4    0    0  0.38361267559E+02 -0.67969839642E+02  0.17082073154E+02  0.79895451516E+02  0.00000000000E+00 0.  1.
         11    1    4    4    0    0  0.12860275669E+02 -0.42942748662E+02  0.10429412806E+03  0.11351974058E+03  0.00000000000E+00 0. -1.
</event>
<event>
 8    1  0.6597859E-009  0.1032800E+03  0.7561462E-02  0.1273546E+00
          1   -1    0    0  501    0  0.00000000000E+00  0.00000000000E+00  0.22718346442E+02  0.22718346442E+02  0.00000000000E+00 0. -1.
         -1   -1    0    0    0  501 -0.00000000000E+00 -0.00000000000E+00 -0.57454759331E+03  0.57454759331E+03  0.00000000000E+00 0.  1.
         25    2    1    2    0    0  0.10298927521E+02  0.28301994643E+02 -0.39088252216E+03  0.41151815215E+03  0.12510384730E+03 0.  0.
         23    2    1    2    0    0 -0.10298927521E+02 -0.28301994643E+02 -0.16094672472E+03  0.18574778761E+03  0.87700180139E+02 0.  0.
          5    1    3    3  502    0 -0.27262837332E+02 -0.41138682988E+02 -0.15809989796E+03  0.16567650308E+03  0.41800000000E+01 0. -1.
         -5    1    3    3    0  502  0.37561764853E+02  0.69440677631E+02 -0.23278262420E+03  0.24584164907E+03  0.41800000000E+01 0. -1.
        -11    1    4    4    0    0 -0.13250290810E+02  0.23022091857E+02 -0.11077085827E+03  0.11391123721E+03  0.00000000000E+00 0.  1.
         11    1    4    4    0    0  0.29513632883E+01 -0.51324086500E+02 -0.50175866444E+02  0.71836550402E+02  0.00000000000E+00 0. -1.
</event>
<event>
 8    1  0.6597859E-009  0.5732312E+02  0.7561462E-02  0.1409422E+00
         -1   -1    0    0    0  501 -0.00000000000E+00  0.00000000000E+00  0.29154035760E+02  0.29154035760E+02  0.00000000000E+00 0.  1.
          1   -1    0    0  501    0  0.00000000000E+00 -0.00000000000E+00 -0.43478693510E+03  0.43478693510E+03  0.00000000000E+00 0. -1.
         25    2    1    2    0    0 -0.16644647543E+02 -0.20286668284E+02 -0.27028233876E+03  0.29897923356E+03  0.12508975279E+03 0.  0.
         23    2    1    2    0    0  0.16644647543E+02  0.20286668284E+02 -0.13535056058E+03  0.16496173730E+03  0.90575975414E+02 0.  0.
          5    1    3    3  502    0  0.13984383341E+00  0.77267241629E+01 -0.26557598638E+03  0.26572128023E+03  0.41800000000E+01 0.  1.
         -5    1    3    3    0  502 -0.16784491376E+02 -0.28013392446E+02 -0.47063523765E+01  0.33257953332E+02  0.41800000000E+01 0.  1.
        -11    1    4    4    0    0  0.40015863719E+02  0.27411036159E+02 -0.30487364577E+02  0.57289734258E+02  0.00000000000E+00 0.  1.
         11    1    4    4    0    0 -0.23371216176E+02 -0.71243678759E+01 -0.10486319601E+03  0.10767200305E+03  0.00000000000E+00 0. -1.
</event>
<event>
 8    1  0.6597859E-009  0.2157677E+03  0.7561462E-02  0.1137078E+00
         -1   -1    0    0    0  501 -0.00000000000E+00  0.00000000000E+00  0.55432655748E+02  0.55432655748E+02  0.00000000000E+00 0.  1.
          1   -1    0    0  501    0  0.00000000000E+00 -0.00000000000E+00 -0.97337356202E+03  0.97337356202E+03  0.00000000000E+00 0. -1.
         25    2    1    2    0    0 -0.18604556045E+03 -0.64598592174E+02 -0.34802340689E+03  0.41899063961E+03  0.12508771190E+03 0.  0.
         23    2    1    2    0    0  0.18604556045E+03  0.64598592174E+02 -0.56991749939E+03  0.60981557816E+03  0.91011837589E+02 0.  0.
          5    1    3    3  502    0 -0.53622762277E+02  0.28386283192E+02 -0.45734201823E+02  0.76093832365E+02  0.41800000000E+01 0.  1.
         -5    1    3    3    0  502 -0.13242279817E+03 -0.92984875366E+02 -0.30228920506E+03  0.34289680725E+03  0.41800000000E+01 0.  1.
        -11    1    4    4    0    0  0.18041966039E+03  0.41564997376E+02 -0.43394810433E+03  0.47179429852E+03  0.00000000000E+00 0.  1.
         11    1    4    4    0    0  0.56259000563E+01  0.23033594798E+02 -0.13596939506E+03  0.13802127964E+03  0.00000000000E+00 0. -1.
</event>
<event>
 8    1  0.6597859E-009  0.1343816E+03  0.7561462E-02  0.1221095E+00
          1   -1    0    0  501    0  0.00000000000E+00  0.00000000000E+00  0.10646531270E+04  0.10646531270E+04  0.00000000000E+00 0. -1.
         -1   -1    0    0    0  501 -0.00000000000E+00 -0.00000000000E+00 -0.25880236904E+02  0.25880236904E+02  0.00000000000E+00 0.  1.
         25    2    1    2    0    0  0.67818482633E+02 -0.82493180154E+02  0.76735186088E+03  0.78478184978E+03  0.12509677053E+03 0.  0.
         23    2    1    2    0    0 -0.67818482633E+02  0.82493180154E+02  0.27142102918E+03  0.30575151408E+03  0.91706825942E+02 0.  0.
          5    1    3    3  502    0  0.83595978386E+02 -0.16317434092E+02  0.56152164281E+03  0.56796001092E+03  0.41800000000E+01 0.  1.
         -5    1    3    3    0  502 -0.15777495753E+02 -0.66175746062E+02  0.20583021806E+03  0.21682183886E+03  0.41800000000E+01 0.  1.
        -11    1    4    4    0    0  0.40500431831E+01  0.19009604087E+02  0.17219528421E+01  0.19512381170E+02  0.00000000000E+00 0.  1.
         11    1    4    4    0    0 -0.71868525816E+02  0.63483576067E+02  0.26969907634E+03  0.28623913291E+03  0.00000000000E+00 0. -1.
</event>
<event>
 8    1  0.6597859E-009  0.2194710E+03  0.7561462E-02  0.1134278E+00
         -1   -1    0    0    0  501 -0.00000000000E+00  0.00000000000E+00  0.75255155235E+03  0.75255155235E+03  0.00000000000E+00 0.  1.
          1   -1    0    0  501    0  0.00000000000E+00 -0.00000000000E+00 -0.73020837504E+02  0.73020837504E+02  0.00000000000E+00 0. -1.
         25    2    1    2    0    0 -0.54674447571E+01 -0.19722481392E+03  0.46249815787E+03  0.51814788776E+03  0.12508064350E+03 0.  0.
         23    2    1    2    0    0  0.54674447571E+01  0.19722481392E+03  0.21703255698E+03  0.30742450210E+03  0.92082427884E+02 0.  0.
          5    1    3    3  502    0 -0.50396007960E+02 -0.47059111868E+02  0.20855054881E+03  0.21969324395E+03  0.41800000000E+01 0. -1.
         -5    1    3    3    0  502  0.44928563203E+02 -0.15016570205E+03  0.25394760906E+03  0.29845464381E+03  0.41800000000E+01 0. -1.
        -11    1    4    4    0    0  0.30683921512E+02  0.26664544639E+02  0.69449790296E+02  0.80472196145E+02  0.00000000000E+00 0.  1.
         11    1    4    4    0    0 -0.25216476755E+02  0.17056026928E+03  0.14758276668E+03  0.22695230595E+03  0.00000000000E+00 0. -1.
</event>
<event>
 8    1  0.6597859E-009  0.1097942E+03  0.7561462E-02  0.1260951E+00
         -1   -1    0    0    0  501 -0.00000000000E+00  0.00000000000E+00  0.73642122548E+02  0.73642122548E+02  0.00000000000E+00 0.  1.
          1   -1    0    0  501    0  0.00000000000E+00 -0.00000000000E+00 -0.17407084008E+03  0.17407084008E+03  0.00000000000E+00 0. -1.
         25    2    1    2    0    0 -0.13622989033E+02 -0.20726169396E+02 -0.67664535935E+02  0.14436884559E+03  0.12509482094E+03 0.  0.
         23    2    1    2    0    0  0.13622989033E+02  0.20726169396E+02 -0.32764181596E+02  0.10334411703E+03  0.94822755717E+02 0.  0.
          5    1    3    3  502    0  0.27863998394E+02  0.42175239186E+02 -0.37582834110E+02  0.63127609068E+02  0.41800000000E+01 0.  1.
         -5    1    3    3    0  502 -0.41486987427E+02 -0.62901408582E+02 -0.30081701825E+02  0.81241236525E+02  0.41800000000E+01 0.  1.
        -11    1    4    4    0    0  0.75635818275E+01  0.56557287440E+02 -0.43721836895E+01  0.57228057130E+02  0.00000000000E+00 0.  1.
         11    1    4    4    0    0  0.60594072059E+01 -0.35831118044E+02 -0.28391997906E+02  0.46116059904E+02  0.00000000000E+00 0. -1.
</event>
<event>
 8    1  0.6597859E-009  0.1417600E+03  0.7561462E-02  0.1210980E+00
          2   -1    0    0  501    0  0.00000000000E+00  0.00000000000E+00  0.10071885840E+04  0.10071885840E+04  0.00000000000E+00 0. -1.
         -2   -1    0    0    0  501 -0.00000000000E+00 -0.00000000000E+00 -0.25016441721E+02  0.25016441721E+02  0.00000000000E+00 0.  1.
         25    2    1    2    0    0 -0.35760846182E+02  0.10255024181E+03  0.39046855455E+03  0.42415530539E+03  0.12508653317E+03 0.  0.
         23    2    1    2    0    0  0.35760846182E+02 -0.10255024181E+03  0.59170358772E+03  0.60804972033E+03  0.88407785021E+02 0.  0.
          5    1    3    3  502    0 -0.58466915969E+02  0.10501640614E+03  0.20841051226E+03  0.24062260875E+03  0.41800000000E+01 0. -1.
         -5    1    3    3    0  502  0.22706069787E+02 -0.24661643306E+01  0.18205804230E+03  0.18353269664E+03  0.41800000000E+01 0. -1.
        -11    1    4    4    0    0 -0.29793475891E+02 -0.31180382049E+02  0.17943992187E+03  0.18454959494E+03  0.00000000000E+00 0.  1.
         11    1    4    4    0    0  0.65554322073E+02 -0.71369859763E+02  0.41226366585E+03  0.42350012539E+03  0.00000000000E+00 0. -1.
</event>
<event>
 8    1  0.6597859E-009  0.1345839E+03  0.7561462E-02  0.1220808E+00
          1   -1    0    0  501    0  0.00000000000E+00  0.00000000000E+00  0.49895286211E+03  0.49895286211E+03  0.00000000000E+00 0. -1.
         -1   -1    0    0    0  501 -0.00000000000E+00 -0.00000000000E+00 -0.38035058495E+02  0.38035058495E+02  0.00000000000E+00 0.  1.
         25    2    1    2    0    0  0.82443305899E+02 -0.48761184021E+01  0.29187910551E+03  0.32811806291E+03  0.12508947101E+03 0.  0.
         23    2    1    2    0    0 -0.82443305899E+02  0.48761184021E+01  0.16903869811E+03  0.20886985770E+03  0.90729602546E+02 0.  0.
          5    1    3    3  502    0 -0.31798986977E+02  0.11448827959E+02  0.57309685177E+02  0.66664260661E+02  0.41800000000E+01 0. -1.
         -5    1    3    3    0  502  0.11424229288E+03 -0.16324946361E+02  0.23456942033E+03  0.26145380225E+03  0.41800000000E+01 0. -1.
        -11    1    4    4    0    0 -0.99415494311E+02 -0.57986534296E+01  0.15557844710E+03  0.18472064880E+03  0.00000000000E+00 0. -1.
         11    1    4    4    0    0  0.16972188413E+02  0.10674771832E+02  0.13460251008E+02  0.24149208897E+02  0.00000000000E+00 0.  1.
</event>
<event>
 8    1  0.6597859E-009  0.1845703E+03  0.7561462E-02  0.1163452E+00
          2   -1    0    0  501    0  0.00000000000E+00  0.00000000000E+00  0.85846220948E+03  0.85846220948E+03  0.00000000000E+00 0.  1.
         -2   -1    0    0    0  501 -0.00000000000E+00 -0.00000000000E+00 -0.42418878900E+02  0.42418878900E+02  0.00000000000E+00 0. -1.
         25    2    1    2    0    0  0.19934619903E+02  0.14796076444E+03  0.54034458323E+03  0.57437747215E+03  0.12508970780E+03 0.  0.
         23    2    1    2    0    0 -0.19934619903E+02 -0.14796076444E+03  0.27569874734E+03  0.32650361623E+03  0.91131966065E+02 0.  0.
          5    1    3    3  502    0 -0.18736896333E+02  0.15403578293E+03  0.42083825247E+03  0.44855367666E+03  0.41800000000E+01 0.  1.
         -5    1    3    3    0  502  0.38671516236E+02 -0.60750184862E+01  0.11950633077E+03  0.12582379549E+03  0.41800000000E+01 0.  1.
        -11    1    4    4    0    0  0.34184174950E+02 -0.84432255452E+02  0.13326551733E+03  0.16142199877E+03  0.00000000000E+00 0.  1.
         11    1    4    4    0    0 -0.54118794852E+02 -0.63528508990E+02  0.14243323001E+03  0.16508161746E+03  0.00000000000E+00 0. -1.
</event>
<event>
 8    1  0.6597859E-009  0.1104283E+03  0.7561462E-02  0.1259779E+00
          1   -1    0    0  501    0  0.00000000000E+00  0.00000000000E+00  0.68951751920E+02  0.68951751920E+02  0.00000000000E+00 0. -1.
         -1   -1    0    0    0  501 -0.00000000000E+00 -0.00000000000E+00 -0.21916347790E+03  0.21916347790E+03  0.00000000000E+00 0.  1.
         25    2    1    2    0    0  0.59767504089E+02  0.10891479107E+01 -0.67500406682E+02  0.15419739856E+03  0.12508873663E+03 0.  0.
         23    2    1    2    0    0 -0.59767504089E+02 -0.10891479107E+01 -0.82711319292E+02  0.13391783126E+03  0.86714949122E+02 0.  0.
          5    1    3    3  502    0  0.42744776441E+02  0.49578170990E+02  0.43765305594E+01  0.65739922204E+02  0.41800000000E+01 0.  1.
         -5    1    3    3    0  502  0.17022727648E+02 -0.48489023079E+02 -0.71876937242E+02  0.88457476354E+02  0.41800000000E+01 0.  1.
        -11    1    4    4    0    0 -0.75171949965E+02  0.19811251083E+02 -0.51185444137E+02  0.93076621246E+02  0.00000000000E+00 0. -1.
         11    1    4    4    0    0  0.15404445876E+02 -0.20900398994E+02 -0.31525875156E+02  0.40841210011E+02  0.00000000000E+00 0.  1.
</event>
<event>
 8    1  0.6597859E-009  0.2890810E+03  0.7561462E-02  0.1090830E+00
         -2   -1    0    0    0  501 -0.00000000000E+00  0.00000000000E+00  0.37623481329E+03  0.37623481329E+03  0.00000000000E+00 0.  1.
          2   -1    0    0  501    0  0.00000000000E+00 -0.00000000000E+00 -0.23249452614E+03  0.23249452614E+03  0.00000000000E+00 0. -1.
         25    2    1    2    0    0 -0.26966786938E+03  0.30009803101E+02  0.28967170843E+02  0.30017964750E+03  0.12508947089E+03 0.  0.
         23    2    1    2    0    0  0.26966786938E+03 -0.30009803101E+02  0.11477311630E+03  0.30854969193E+03  0.91698942767E+02 0.  0.
          5    1    3    3  502    0 -0.14118814396E+00 -0.18980600212E+02  0.17197734042E+02  0.25952217144E+02  0.41800000000E+01 0. -1.
         -5    1    3    3    0  502 -0.26952668124E+03  0.48990403313E+02  0.11769436801E+02  0.27422743036E+03  0.41800000000E+01 0. -1.
        -11    1    4    4    0    0  0.22124090349E+03 -0.58132561035E+02  0.78580017382E+02  0.24187135250E+03  0.00000000000E+00 0.  1.
         11    1    4    4    0    0  0.48426965892E+02  0.28122757934E+02  0.36193098917E+02  0.66678339425E+02  0.00000000000E+00 0. -1.
</event>
<event>
 8    1  0.6597859E-009  0.1176265E+03  0.7561462E-02  0.1247065E+00
         -2   -1    0    0    0  501 -0.00000000000E+00  0.00000000000E+00  0.77246458032E+03  0.77246458032E+03  0.00000000000E+00 0. -1.
          2   -1    0    0  501    0  0.00000000000E+00 -0.00000000000E+00 -0.24973123961E+02  0.24973123961E+02  0.00000000000E+00 0.  1.
         25    2    1    2    0    0  0.23317402160E+02 -0.77970969947E+02  0.49754961569E+03  0.51944749281E+03  0.12508758658E+03 0.  0.
         23    2    1    2    0    0 -0.23317402160E+02  0.77970969947E+02  0.24994184067E+03  0.27799021147E+03  0.90468008478E+02 0.  0.
          5    1    3    3  502    0 -0.32865938951E+02 -0.70538612029E+02  0.39100348974E+03  0.39869420251E+03  0.41800000000E+01 0. -1.
         -5    1    3    3    0  502  0.56183341111E+02 -0.74323579177E+01  0.10654612595E+03  0.12075329030E+03  0.41800000000E+01 0. -1.
        -11    1    4    4    0    0 -0.25628780644E+02  0.33602658986E+01  0.15538334863E+03  0.15751860467E+03  0.00000000000E+00 0. -1.
         11    1    4    4    0    0  0.23113784837E+01  0.74610704048E+02  0.94558492032E+02  0.12047160680E+03  0.00000000000E+00 0.  1.
</event>
<event>
 8    1  0.6597859E-009  0.1199560E+03  0.7561462E-02  0.1243170E+00
          1   -1    0    0  501    0  0.00000000000E+00  0.00000000000E+00  0.40874189148E+03  0.40874189148E+03  0.00000000000E+00 0. -1.
         -1   -1    0    0    0  501 -0.00000000000E+00 -0.00000000000E+00 -0.58475721181E+02  0.58475721181E+02  0.00000000000E+00 0.  1.
         25    2    1    2    0    0 -0.24089743132E+02 -0.10507363561E+03  0.22326224058E+03  0.27769522435E+03  0.12509126642E+03 0.  0.
         23    2    1    2    0    0  0.24089743132E+02  0.10507363561E+03  0.12700392973E+03  0.18952238832E+03  0.90376727551E+02 0.  0.
          5    1    3    3  502    0  0.16528289996E+02 -0.61582245624E+02  0.21688225976E+02  0.67478951476E+02  0.41800000000E+01 0.  1.
         -5    1    3    3    0  502 -0.40618033128E+02 -0.43491389985E+02  0.20157401460E+03  0.21021627287E+03  0.41800000000E+01 0.  1.
        -11    1    4    4    0    0  0.37018447053E+02  0.75813364853E+02  0.33635668446E+02  0.90826152095E+02  0.00000000000E+00 0.  1.
         11    1    4    4    0    0 -0.12928703921E+02  0.29260270756E+02  0.93368261280E+02  0.98696236221E+02  0.00000000000E+00 0. -1.
</event>
<event>
 8    1  0.6597859E-009  0.1745683E+03  0.7561462E-02  0.1173166E+00
         -3   -1    0    0    0  501 -0.00000000000E+00  0.00000000000E+00  0.91316604481E+02  0.91316604481E+02  0.00000000000E+00 0.  1.
          3   -1    0    0  501    0  0.00000000000E+00 -0.00000000000E+00 -0.42394504400E+03  0.42394504400E+03  0.00000000000E+00 0. -1.
         25    2    1    2    0    0  0.15829624396E+03 -0.13897796354E+02 -0.12154033461E+03  0.23594433202E+03  0.12508727064E+03 0.  0.
         23    2    1    2    0    0 -0.15829624396E+03  0.13897796354E+02 -0.21108810491E+03  0.27931731647E+03  0.90604225335E+02 0.  0.
          5    1    3    3  502    0  0.10843091924E+03 -0.45099301096E+02 -0.13126242048E+03  0.17617748618E+03  0.41800000000E+01 0.  1.
         -5    1    3    3    0  502  0.49865324727E+02  0.31201504743E+02  0.97220858624E+01  0.59766845842E+02  0.41800000000E+01 0.  1.
        -11    1    4    4    0    0 -0.13368882024E+03 -0.15197129207E+02 -0.11887413338E+03  0.17954028233E+03  0.00000000000E+00 0.  1.
         11    1    4    4    0    0 -0.24607423723E+02  0.29094925560E+02 -0.92213971529E+02  0.99777034135E+02  0.00000000000E+00 0. -1.
</event>
<event>
 8    1  0.6597859E-009  0.5670506E+02  0.7561462E-02  0.1412203E+00
          2   -1    0    0  501    0  0.00000000000E+00  0.00000000000E+00  0.78053495642E+02  0.78053495642E+02  0.00000000000E+00 0.  1.
         -2   -1    0    0    0  501 -0.00000000000E+00 -0.00000000000E+00 -0.15982772568E+03  0.15982772568E+03  0.00000000000E+00 0. -1.
         25    2    1    2    0    0  0.20017546111E+02  0.47652073216E+01 -0.22440593259E+02  0.12874534328E+03  0.12509346041E+03 0.  0.
         23    2    1    2    0    0 -0.20017546111E+02 -0.47652073216E+01 -0.59333636775E+02  0.10913587804E+03  0.89256652802E+02 0.  0.
          5    1    3    3  502    0  0.23511589989E+02  0.18973775291E+02  0.47895206769E+02  0.56782235286E+02  0.41800000000E+01 0. -1.
         -5    1    3    3    0  502 -0.34940438778E+01 -0.14208567969E+02 -0.70335800028E+02  0.71963107993E+02  0.41800000000E+01 0. -1.
        -11    1    4    4    0    0  0.16988558351E+02 -0.21228675842E+02 -0.62851339089E+02  0.68480352059E+02  0.00000000000E+00 0. -1.
         11    1    4    4    0    0 -0.37006104462E+02  0.16463468520E+02  0.35177023139E+01  0.40655525981E+02  0.00000000000E+00 0.  1.
</event>
<event>
 8    1  0.6597859E-009  0.8235020E+02  0.7561462E-02  0.1322511E+00
         -3   -1    0    0    0  501 -0.00000000000E+00  0.00000000000E+00  0.18831092072E+03  0.18831092072E+03  0.00000000000E+00 0.  1.
          3   -1    0    0  501    0  0.00000000000E+00 -0.00000000000E+00 -0.77626241550E+02  0.77626241550E+02  0.00000000000E+00 0. -1.
         25    2    1    2    0    0 -0.41470019311E+02  0.35266396385E+02  0.59984951747E+02  0.14902169299E+03  0.12508312968E+03 0.  0.
         23    2    1    2    0    0  0.41470019311E+02 -0.35266396385E+02  0.50699727422E+02  0.11691546927E+03  0.90195805775E+02 0.  0.
          5    1    3    3  502    0  0.59804543914E+01  0.42208280528E+02 -0.26266591296E+02  0.50246502348E+02  0.41800000000E+01 0.  1.
         -5    1    3    3    0  502 -0.47450473702E+02 -0.69418841432E+01  0.86251543043E+02  0.98775190647E+02  0.41800000000E+01 0.  1.
        -11    1    4    4    0    0  0.36688652595E+02  0.14354383207E+01 -0.16455987506E+02  0.40235770618E+02  0.00000000000E+00 0. -1.
         11    1    4    4    0    0  0.47813667153E+01 -0.36701834706E+02  0.67155714928E+02  0.76679698656E+02  0.00000000000E+00 0.  1.
</event>
<event>
 8    1  0.6597859E-009  0.1362860E+03  0.7561462E-02  0.1218416E+00
         -1   -1    0    0    0  501 -0.00000000000E+00  0.00000000000E+00  0.11453745380E+03  0.11453745380E+03  0.00000000000E+00 0.  1.
          1   -1    0    0  501    0  0.00000000000E+00 -0.00000000000E+00 -0.39047807110E+03  0.39047807110E+03  0.00000000000E+00 0. -1.
         25    2    1    2    0    0  0.68518789185E+02 -0.97452539362E+02  0.19413060310E+02  0.17382962428E+03  0.12509216389E+03 0.  0.
         23    2    1    2    0    0 -0.68518789185E+02  0.97452539362E+02 -0.29535367760E+03  0.33118590062E+03  0.90876201489E+02 0.  0.
          5    1    3    3  502    0  0.44336992240E+02 -0.88049494393E+02 -0.41841234272E+02  0.10717576046E+03  0.41800000000E+01 0. -1.
         -5    1    3    3    0  502  0.24181796945E+02 -0.94030449690E+01  0.61254294582E+02  0.66653863825E+02  0.41800000000E+01 0. -1.
        -11    1    4    4    0    0 -0.79541718957E+02  0.10680160829E+03 -0.24565009062E+03  0.27942339847E+03  0.00000000000E+00 0.  1.
         11    1    4    4    0    0  0.11022929772E+02 -0.93490689263E+01 -0.49703586983E+02  0.51762502157E+02  0.00000000000E+00 0. -1.
</event>
<event>
 8    1  0.6597859E-009  0.1087197E+03  0.7561462E-02  0.1262959E+00
          2   -1    0    0  501    0  0.00000000000E+00  0.00000000000E+00  0.48185113782E+02  0.48185113782E+02  0.00000000000E+00 0. -1.
         -2   -1    0    0    0  501 -0.00000000000E+00 -0.00000000000E+00 -0.52276929971E+03  0.52276929971E+03  0.00000000000E+00 0.  1.
         25    2    1    2    0    0  0.44359696781E+02  0.18317983824E+02 -0.66182794908E+02  0.14943202442E+03  0.12508571602E+03 0.  0.
         23    2    1    2    0    0 -0.44359696781E+02 -0.18317983824E+02 -0.40840139102E+03  0.42152238906E+03  0.92661195044E+02 0.  0.
          5    1    3    3  502    0 -0.25943287644E+02 -0.20838420900E+02  0.13457573390E+02  0.36136859865E+02  0.41800000000E+01 0.  1.
         -5    1    3    3    0  502  0.70302984425E+02  0.39156404724E+02 -0.79640368298E+02  0.11329516456E+03  0.41800000000E+01 0.  1.
        -11    1    4    4    0    0  0.27269067975E+02 -0.16081393805E+02 -0.15398441045E+03  0.15720499978E+03  0.00000000000E+00 0.  1.
         11    1    4    4    0    0 -0.71628764756E+02 -0.22365900196E+01 -0.25441698057E+03  0.26431738928E+03  0.00000000000E+00 0. -1.
</event>
<event>
 8    1  0.6597859E-009  0.1025160E+03  0.7561462E-02  0.1275092E+00
          2   -1    0    0  501    0  0.00000000000E+00  0.00000000000E+00  0.12533443008E+03  0.12533443008E+03  0.00000000000E+00 0. -1.
         -2   -1    0    0    0  501 -0.00000000000E+00 -0.00000000000E+00 -0.10948946218E+03  0.10948946218E+03  0.00000000000E+00 0.  1.
         25    2    1    2    0    0 -0.25233487795E+01  0.20849691093E+01  0.54814861740E+02  0.13660722639E+03  0.12508457479E+03 0.  0.
         23    2    1    2    0    0  0.25233487795E+01 -0.20849691093E+01 -0.38969893842E+02  0.98216665866E+02  0.90095207656E+02 0.  0.
          5    1    3    3  502    0 -0.75148478389E-01  0.58358385973E+02  0.54744319142E+02  0.80125649694E+02  0.41800000000E+01 0.  1.
         -5    1    3    3    0  502 -0.24482003011E+01 -0.56273416863E+02  0.70542597819E-01  0.56481576699E+02  0.41800000000E+01 0.  1.
        -11    1    4    4    0    0  0.42882724682E+02  0.16060603390E+02 -0.17369071250E+02  0.48975051745E+02  0.00000000000E+00 0. -1.
         11    1    4    4    0    0 -0.40359375902E+02 -0.18145572499E+02 -0.21600822593E+02  0.49241614121E+02  0.00000000000E+00 0.  1.
</event>
<event>
 8    1  0.6597859E-009  0.1401714E+03  0.7561462E-02  0.1213099E+00
         -1   -1    0    0    0  501 -0.00000000000E+00  0.00000000000E+00  0.17038158589E+03  0.17038158589E+03  0.00000000000E+00 0.  1.
          1   -1    0    0  501    0  0.00000000000E+00 -0.00000000000E+00 -0.13566601007E+03  0.13566601007E+03  0.00000000000E+00 0. -1.
         25    2    1    2    0    0 -0.47120811983E+02  0.90155154718E+02  0.49429052280E+02  0.16865165539E+03  0.12510726123E+03 0.  0.
         23    2    1    2    0    0  0.47120811983E+02 -0.90155154718E+02 -0.14713476454E+02  0.13739594057E+03  0.91174751172E+02 0.  0.
          5    1    3    3  502    0  0.21171261951E+02  0.89633631923E+02  0.35703443453E+02  0.98866670718E+02  0.41800000000E+01 0. -1.
         -5    1    3    3    0  502 -0.68292073934E+02  0.52152279467E+00  0.13725608826E+02  0.69784984674E+02  0.41800000000E+01 0. -1.
        -11    1    4    4    0    0  0.45911777312E+02 -0.20873749655E+02 -0.39229446407E+02  0.63894868230E+02  0.00000000000E+00 0. -1.
         11    1    4    4    0    0  0.12090346706E+01 -0.69281405062E+02  0.24515969954E+02  0.73501072339E+02  0.00000000000E+00 0.  1.
</event>
<event>
 8    1  0.6597859E-009  0.1654879E+03  0.7561462E-02  0.1182637E+00
         -1   -1    0    0    0  501 -0.00000000000E+00  0.00000000000E+00  0.20177133839E+03  0.20177133839E+03  0.00000000000E+00 0.  1.
          1   -1    0    0  501    0  0.00000000000E+00 -0.00000000000E+00 -0.24254037309E+03  0.24254037309E+03  0.00000000000E+00 0. -1.
         25    2    1    2    0    0  0.26831358345E+01  0.13532205353E+03 -0.16008760908E+03  0.24412022552E+03  0.12508950610E+03 0.  0.
         23    2    1    2    0    0 -0.26831358345E+01 -0.13532205353E+03  0.11931857438E+03  0.20019148596E+03  0.86720536612E+02 0.  0.
          5    1    3    3  502    0  0.97952844819E+01  0.15382009263E+03 -0.16215663946E+03  0.22376062347E+03  0.41800000000E+01 0.  1.
         -5    1    3    3    0  502 -0.71121486473E+01 -0.18498039096E+02  0.20690303852E+01  0.20359602047E+02  0.41800000000E+01 0.  1.
        -11    1    4    4    0    0  0.24545334524E+02 -0.12504292979E+03  0.11320736034E+03  0.17045267428E+03  0.00000000000E+00 0.  1.
         11    1    4    4    0    0 -0.27228470358E+02 -0.10279123744E+02  0.61112140453E+01  0.29738811679E+02  0.00000000000E+00 0. -1.
</event>
<event>
 8    1  0.6597859E-009  0.8691176E+02  0.7561462E-02  0.1310507E+00
          2   -1    0    0  501    0  0.00000000000E+00  0.00000000000E+00  0.42896935788E+02  0.42896935788E+02  0.00000000000E+00 0. -1.
         -2   -1    0    0    0  501 -0.00000000000E+00 -0.00000000000E+00 -0.29656223766E+03  0.29656223766E+03  0.00000000000E+00 0.  1.
         25    2    1    2    0    0 -0.19855754633E+02 -0.65707844645E+01 -0.13170270717E+03  0.18283866771E+03  0.12508776572E+03 0.  0.
         23    2    1    2    0    0  0.19855754633E+02  0.65707844645E+01 -0.12196259470E+03  0.15662050574E+03  0.96008760599E+02 0.  0.
          5    1    3    3  502    0  0.79995026608E+01 -0.58512827788E+02 -0.98871825869E+02  0.11524258505E+03  0.41800000000E+01 0. -1.
         -5    1    3    3    0  502 -0.27855257294E+02  0.51942043323E+02 -0.32830881306E+02  0.67596082659E+02  0.41800000000E+01 0. -1.
        -11    1    4    4    0    0  0.17973507408E+02  0.28406010227E+02 -0.93827307426E+00  0.33627797161E+02  0.00000000000E+00 0. -1.
         11    1    4    4    0    0  0.18822472243E+01 -0.21835225762E+02 -0.12102432162E+03  0.12299270858E+03  0.00000000000E+00 0.  1.
</event>
<event>
 8    1  0.6597859E-009  0.1406528E+03  0.7561462E-02  0.1212453E+00
         -1   -1    0    0    0  501 -0.00000000000E+00  0.00000000000E+00  0.10555150054E+03  0.10555150054E+03  0.00000000000E+00 0.  1.
          1   -1    0    0  501    0  0.00000000000E+00 -0.00000000000E+00 -0.20159542458E+03  0.20159542458E+03  0.00000000000E+00 0. -1.
         25    2    1    2    0    0 -0.25334598630E+02  0.72966459266E+02 -0.59821410376E+02  0.15870717031E+03  0.12507365311E+03 0.  0.
         23    2    1    2    0    0  0.25334598630E+02 -0.72966459266E+02 -0.36222513663E+02  0.14843975480E+03  0.12147569405E+03 0.  0.
          5    1    3    3  502    0  0.41451329216E+02  0.55870331213E+02 -0.56228348954E+02  0.89547787409E+02  0.41800000000E+01 0. -1.
         -5    1    3    3    0  502 -0.66785927846E+02  0.17096128053E+02 -0.35930614220E+01  0.69159382899E+02  0.41800000000E+01 0. -1.
        -11    1    4    4    0    0 -0.32633510822E+02  0.16012550813E+02 -0.18458343492E+02  0.40768348710E+02  0.00000000000E+00 0. -1.
         11    1    4    4    0    0  0.57968109451E+02 -0.88979010079E+02 -0.17764170171E+02  0.10767140609E+03  0.00000000000E+00 0.  1.
</event>
<event>
 8    1  0.6597859E-009  0.2014216E+03  0.7561462E-02  0.1148545E+00
         -2   -1    0    0    0  501 -0.00000000000E+00  0.00000000000E+00  0.22131782698E+03  0.22131782698E+03  0.00000000000E+00 0.  1.
          2   -1    0    0  501    0  0.00000000000E+00 -0.00000000000E+00 -0.20430321808E+03  0.20430321808E+03  0.00000000000E+00 0. -1.
         25    2    1    2    0    0  0.13939826207E+03 -0.11159167209E+03  0.45539165103E+02  0.22272349185E+03  0.12508941408E+03 0.  0.
         23    2    1    2    0    0 -0.13939826207E+03  0.11159167209E+03 -0.28524556200E+02  0.20289755321E+03  0.92028202437E+02 0.  0.
          5    1    3    3  502    0  0.20239577967E+02  0.26170650317E+02  0.19631798353E+02  0.38696554897E+02  0.41800000000E+01 0.  1.
         -5    1    3    3    0  502  0.11915868410E+03 -0.13776232241E+03  0.25907366750E+02  0.18402693695E+03  0.41800000000E+01 0.  1.
        -11    1    4    4    0    0 -0.18455627210E+02  0.46339830287E+02  0.24535204446E+02  0.55587465350E+02  0.00000000000E+00 0. -1.
         11    1    4    4    0    0 -0.12094263486E+03  0.65251841808E+02 -0.53059760646E+02  0.14731008786E+03  0.00000000000E+00 0.  1.
</event>
<event>
 8    1  0.6597859E-009  0.8010275E+02  0.7561462E-02  0.1328760E+00
          2   -1    0    0  501    0  0.00000000000E+00  0.00000000000E+00  0.36570418181E+03  0.36570418181E+03  0.00000000000E+00 0. -1.
         -2   -1    0    0    0  501 -0.00000000000E+00 -0.00000000000E+00 -0.41211871523E+02  0.41211871523E+02  0.00000000000E+00 0.  1.
         25    2    1    2    0    0  0.29688120064E+02  0.48322767561E+02  0.20424531593E+03  0.24613270119E+03  0.12509469685E+03 0.  0.
         23    2    1    2    0    0 -0.29688120064E+02 -0.48322767561E+02  0.12024699436E+03  0.16078335214E+03  0.90418318589E+02 0.  0.
          5    1    3    3  502    0  0.10201214599E+02  0.52859062530E+02  0.21593663348E+03  0.22258537093E+03  0.41800000000E+01 0.  1.
         -5    1    3    3    0  502  0.19486905465E+02 -0.45362949685E+01 -0.11691317550E+02  0.23547330267E+02  0.41800000000E+01 0.  1.
        -11    1    4    4    0    0 -0.49705227936E+02 -0.41073481026E+02  0.12343002503E+03  0.13925735746E+03  0.00000000000E+00 0. -1.
         11    1    4    4    0    0  0.20017107872E+02 -0.72492865346E+01 -0.31830306728E+01  0.21525994682E+02  0.00000000000E+00 0.  1.
</event>
<event>
 8    1  0.6597859E-009  0.1084829E+03  0.7561462E-02  0.1263405E+00
          2   -1    0    0  501    0  0.00000000000E+00  0.00000000000E+00  0.33562212652E+03  0.33562212652E+03  0.00000000000E+00 0.  1.
         -2   -1    0    0    0  501 -0.00000000000E+00 -0.00000000000E+00 -0.55557937373E+02  0.55557937373E+02  0.00000000000E+00 0. -1.
         25    2    1    2    0    0  0.30297499527E+02 -0.44832543445E+02  0.63180416161E+02  0.15022576300E+03  0.12509244363E+03 0.  0.
         23    2    1    2    0    0 -0.30297499527E+02  0.44832543445E+02  0.21688377298E+03  0.24095430089E+03  0.89958372070E+02 0.  0.
          5    1    3    3  502    0 -0.31874292324E+02 -0.54362666352E+02  0.59992918803E+02  0.87108511126E+02  0.41800000000E+01 0. -1.
         -5    1    3    3    0  502  0.62171791851E+02  0.95301229075E+01  0.31874973580E+01  0.63117251873E+02  0.41800000000E+01 0. -1.
        -11    1    4    4    0    0 -0.11363762859E+02 -0.20125113385E+02  0.12344892927E+03  0.12559376351E+03  0.00000000000E+00 0.  1.
         11    1    4    4    0    0 -0.18933736668E+02  0.64957656830E+02  0.93434843716E+02  0.11536053738E+03  0.00000000000E+00 0. -1.
</event>
<event>
 8    1  0.6597859E-009  0.8071444E+02  0.7561462E-02  0.1327036E+00
         -3   -1    0    0    0  501 -0.00000000000E+00  0.00000000000E+00  0.26231596473E+03  0.26231596473E+03  0.00000000000E+00 0.  1.
          3   -1    0    0  501    0  0.00000000000E+00 -0.00000000000E+00 -0.62722083389E+02  0.62722083389E+02  0.00000000000E+00 0. -1.
         25    2    1    2    0    0  0.18909768124E+02  0.57705323673E+02  0.13754996688E+03  0.19557283992E+03  0.12506501755E+03 0.  0.
         23    2    1    2    0    0 -0.18909768124E+02 -0.57705323673E+02  0.62043914455E+02  0.12946520819E+03  0.96043266816E+02 0.  0.
          5    1    3    3  502    0 -0.10986241035E+02 -0.13664111578E+02 -0.15662465622E+02  0.23878665513E+02  0.41800000000E+01 0. -1.
         -5    1    3    3    0  502  0.29896009159E+02  0.71369435252E+02  0.15321243251E+03  0.17169417441E+03  0.41800000000E+01 0. -1.
        -11    1    4    4    0    0  0.55226030689E+01 -0.21767286558E+02  0.79516997121E+02  0.82627276004E+02  0.00000000000E+00 0.  1.
         11    1    4    4    0    0 -0.24432371193E+02 -0.35938037116E+02 -0.17473082666E+02  0.46837932189E+02  0.00000000000E+00 0. -1.
</event>
<event>
 8    1  0.6597859E-009  0.1789989E+03  0.7561462E-02  0.1168775E+00
         -1   -1    0    0    0  501 -0.00000000000E+00  0.00000000000E+00  0.68250487509E+02  0.68250487509E+02  0.00000000000E+00 0.  1.
          1   -1    0    0  501    0  0.00000000000E+00 -0.00000000000E+00 -0.47085891387E+03  0.47085891387E+03  0.00000000000E+00 0. -1.
         25    2    1    2    0    0  0.63300626791E+02 -0.12717784305E+03 -0.20801234334E+03  0.28124381617E+03  0.12509107097E+03 0.  0.
         23    2    1    2    0    0 -0.63300626791E+02  0.12717784305E+03 -0.19459608302E+03  0.25786558521E+03  0.91901313335E+02 0.  0.
          5    1    3    3  502    0  0.32790982521E+02  0.20027856460E+02 -0.48435137880E+02  0.61966108079E+02  0.41800000000E+01 0. -1.
         -5    1    3    3    0  502  0.30509644270E+02 -0.14720569951E+03 -0.15957720546E+03  0.21927770809E+03  0.41800000000E+01 0. -1.
        -11    1    4    4    0    0 -0.39727809307E+02  0.11854124244E+00 -0.51725877286E+02  0.65221769873E+02  0.00000000000E+00 0.  1.
         11    1    4    4    0    0 -0.23572817484E+02  0.12705930181E+03 -0.14287020574E+03  0.19264381534E+03  0.00000000000E+00 0. -1.
</event>
<event>
 8    1  0.6597859E-009  0.1821913E+03  0.7561462E-02  0.1165699E+00
          1   -1    0    0  501    0  0.00000000000E+00  0.00000000000E+00  0.82275407690E+03  0.82275407690E+03  0.00000000000E+00 0. -1.
         -1   -1    0    0    0  501 -0.00000000000E+00 -0.00000000000E+00 -0.50771799853E+02  0.50771799853E+02  0.00000000000E+00 0.  1.
         25    2    1    2    0    0 -0.81523754452E+02 -0.14800479516E+03  0.33755976245E+03  0.39767451016E+03  0.12508749288E+03 0.  0.
         23    2    1    2    0    0  0.81523754452E+02  0.14800479516E+03  0.43442251460E+03  0.47585136659E+03  0.95708202219E+02 0.  0.
          5    1    3    3  502    0  0.18112925749E+02 -0.57402434601E+02  0.44016433135E+02  0.74686252840E+02  0.41800000000E+01 0.  1.
         -5    1    3    3    0  502 -0.99636680201E+02 -0.90602360555E+02  0.29354332931E+03  0.32298825732E+03  0.41800000000E+01 0.  1.
        -11    1    4    4    0    0  0.34307077449E+02  0.73346783016E+02  0.32647561219E+03  0.33636743525E+03  0.00000000000E+00 0. -1.
         11    1    4    4    0    0  0.47216677003E+02  0.74658012140E+02  0.10794690240E+03  0.13948393134E+03  0.00000000000E+00 0.  1.
</event>
<event>
 8    1  0.6597859E-009  0.1775637E+03  0.7561462E-02  0.1170182E+00
         -2   -1    0    0    0  501 -0.00000000000E+00  0.00000000000E+00  0.37300926626E+02  0.37300926626E+02  0.00000000000E+00 0.  1.
          2   -1    0    0  501    0  0.00000000000E+00 -0.00000000000E+00 -0.10766965750E+04  0.10766965750E+04  0.00000000000E+00 0. -1.
         25    2    1    2    0    0 -0.15946689189E+03 -0.41960618693E+02 -0.45311364527E+03  0.49814835057E+03  0.12509764392E+03 0.  0.
         23    2    1    2    0    0  0.15946689189E+03  0.41960618693E+02 -0.58628200312E+03  0.61584915107E+03  0.91395878296E+02 0.  0.
          5    1    3    3  502    0 -0.12285459700E+03 -0.60015290160E+02 -0.20362399641E+03  0.24530652533E+03  0.41800000000E+01 0.  1.
         -5    1    3    3    0  502 -0.36612294886E+02  0.18054671467E+02 -0.24948964887E+03  0.25284182524E+03  0.41800000000E+01 0.  1.
        -11    1    4    4    0    0  0.49430372056E+02  0.45530068821E+02 -0.33237486115E+03  0.33910086578E+03  0.00000000000E+00 0.  1.
         11    1    4    4    0    0  0.11003651983E+03 -0.35694501275E+01 -0.25390714197E+03  0.27674828529E+03  0.00000000000E+00 0. -1.
</event>
<event>
 8    1  0.6597859E-009  0.1738757E+03  0.7561462E-02  0.1173865E+00
          2   -1    0    0  501    0  0.00000000000E+00  0.00000000000E+00  0.34899992313E+03  0.34899992313E+03  0.00000000000E+00 0. -1.
         -2   -1    0    0    0  501 -0.00000000000E+00 -0.00000000000E+00 -0.90026409941E+02  0.90026409941E+02  0.00000000000E+00 0.  1.
         25    2    1    2    0    0  0.63718592080E+02 -0.11795376575E+03  0.14044132092E+03  0.23096387931E+03  0.12508956428E+03 0.  0.
         23    2    1    2    0    0 -0.63718592080E+02  0.11795376575E+03  0.11853219226E+03  0.20806245376E+03  0.10614591010E+03 0.  0.
          5    1    3    3  502    0 -0.16915648439E+02 -0.96169930022E+02  0.58630266688E+02  0.11397269486E+03  0.41800000000E+01 0.  1.
         -5    1    3    3    0  502  0.80634240518E+02 -0.21783835726E+02  0.81811054235E+02  0.11699118445E+03  0.41800000000E+01 0.  1.
        -11    1    4    4    0    0 -0.39997581763E+02  0.13260452982E+03  0.78275459541E+02  0.15909373162E+03  0.00000000000E+00 0.  1.
         11    1    4    4    0    0 -0.23721010317E+02 -0.14650764071E+02  0.40256732723E+02  0.48968722138E+02  0.00000000000E+00 0. -1.
</event>
<event>
 8    1  0.6597859E-009  0.9692300E+02  0.7561462E-02  0.1286903E+00
         -2   -1    0    0    0  501 -0.00000000000E+00  0.00000000000E+00  0.38456270585E+02  0.38456270585E+02  0.00000000000E+00 0.  1.
          2   -1    0    0  501    0  0.00000000000E+00 -0.00000000000E+00 -0.31546458856E+03  0.31546458856E+03  0.00000000000E+00 0. -1.
         25    2    1    2    0    0 -0.21467602273E+02  0.35734905512E+01 -0.15657615799E+03  0.20158510555E+03  0.12508730450E+03 0.  0.
         23    2    1    2    0    0  0.21467602273E+02 -0.35734905512E+01 -0.12043215999E+03  0.15233575360E+03  0.90711900443E+02 0.  0.
          5    1    3    3  502    0 -0.44006574371E+02 -0.41424847941E+02 -0.13238759738E+03  0.14559033263E+03  0.41800000000E+01 0. -1.
         -5    1    3    3    0  502  0.22538972097E+02  0.44998338492E+02 -0.24188560605E+02  0.55994772921E+02  0.41800000000E+01 0. -1.
        -11    1    4    4    0    0 -0.95542228033E+01  0.33261420231E+02 -0.87224067630E+02  0.93838388856E+02  0.00000000000E+00 0. -1.
         11    1    4    4    0    0  0.31021825077E+02 -0.36834910783E+02 -0.33208092360E+02  0.58497364741E+02  0.00000000000E+00 0.  1.
</event>
<event>
 8    1  0.6597859E-009  0.1066071E+03  0.7561462E-02  0.1266985E+00
          2   -1    0    0  501    0  0.00000000000E+00  0.00000000000E+00  0.35626369195E+03  0.35626369195E+03  0.00000000000E+00 0. -1.
         -2   -1    0    0    0  501 -0.00000000000E+00 -0.00000000000E+00 -0.34881082567E+02  0.34881082567E+02  0.00000000000E+00 0.  1.
         25    2    1    2    0    0 -0.44264547577E+01 -0.16987196149E+02  0.22540739042E+03  0.25838917995E+03  0.12509323854E+03 0.  0.
         23    2    1    2    0    0  0.44264547577E+01  0.16987196149E+02  0.95975218968E+02  0.13275559456E+03  0.90025812397E+02 0.  0.
          5    1    3    3  502    0  0.48241763890E+02  0.24553226408E+02  0.13677546136E+03  0.14715681411E+03  0.41800000000E+01 0. -1.
         -5    1    3    3    0  502 -0.52668218648E+02 -0.41540422557E+02  0.88631929056E+02  0.11123236584E+03  0.41800000000E+01 0. -1.
        -11    1    4    4    0    0  0.15202294480E+02 -0.35243730474E+02  0.39317257197E+02  0.54946128240E+02  0.00000000000E+00 0. -1.
         11    1    4    4    0    0 -0.10775839722E+02  0.52230926623E+02  0.56657961771E+02  0.77809466324E+02  0.00000000000E+00 0.  1.
</event>
<event>
 8    1  0.6597859E-009  0.1717413E+03  0.7561462E-02  0.1176044E+00
          1   -1    0    0  501    0  0.00000000000E+00  0.00000000000E+00  0.62602328790E+03  0.62602328790E+03  0.00000000000E+00 0. -1.
         -1   -1    0    0    0  501 -0.00000000000E+00 -0.00000000000E+00 -0.83398346744E+02  0.83398346744E+02  0.00000000000E+00 0.  1.
         25    2    1    2    0    0 -0.16998643302E+02  0.13382960028E+03  0.51201125147E+03  0.54406057274E+03  0.12508824641E+03 0.  0.
         23    2    1    2    0    0  0.16998643302E+02 -0.13382960028E+03  0.30613689680E+02  0.16536106190E+03  0.90596727377E+02 0.  0.
          5    1    3    3  502    0  0.33068683094E+02 -0.72943689227E+01  0.10014452593E+03  0.10579765637E+03  0.41800000000E+01 0. -1.
         -5    1    3    3    0  502 -0.50067326395E+02  0.14112396920E+03  0.41186672554E+03  0.43826291637E+03  0.41800000000E+01 0. -1.
        -11    1    4    4    0    0 -0.26893133461E+02 -0.10162246009E+03  0.34872545917E+02  0.11075404950E+03  0.00000000000E+00 0.  1.
         11    1    4    4    0    0  0.43891776763E+02 -0.32207140189E+02 -0.42588562372E+01  0.54607012397E+02  0.00000000000E+00 0. -1.
</event>
<event>
 8    1  0.6597859E-009  0.1218823E+03  0.7561462E-02  0.1240024E+00
         -1   -1    0    0    0  501 -0.00000000000E+00  0.00000000000E+00  0.30504929887E+03  0.30504929887E+03  0.00000000000E+00 0.  1.
          1   -1    0    0  501    0  0.00000000000E+00 -0.00000000000E+00 -0.54143829439E+02  0.54143829439E+02  0.00000000000E+00 0. -1.
         25    2    1    2    0    0 -0.67244574706E+01 -0.67132065910E+02  0.13318944165E+03  0.19477940401E+03  0.12509059220E+03 0.  0.
         23    2    1    2    0    0  0.67244574706E+01  0.67132065910E+02  0.11771602778E+03  0.16441372430E+03  0.92859447234E+02 0.  0.
          5    1    3    3  502    0 -0.33948890229E+02  0.27037527604E+02  0.34302516214E+02  0.55476932732E+02  0.41800000000E+01 0. -1.
         -5    1    3    3    0  502  0.27224432758E+02 -0.94169593514E+02  0.98886925437E+02  0.13930247128E+03  0.41800000000E+01 0. -1.
        -11    1    4    4    0    0 -0.10401593426E+02 -0.14942629909E+02  0.59806578225E+02  0.62516414912E+02  0.00000000000E+00 0.  1.
         11    1    4    4    0    0  0.17126050897E+02  0.82074695819E+02  0.57909449558E+02  0.10189730939E+03  0.00000000000E+00 0. -1.
</event>
<event>
 8    1  0.6597859E-009  0.1166238E+03  0.7561462E-02  0.1248773E+00
          2   -1    0    0  501    0  0.00000000000E+00  0.00000000000E+00  0.24589787320E+03  0.24589787320E+03  0.00000000000E+00 0. -1.
         -2   -1    0    0    0  501 -0.00000000000E+00 -0.00000000000E+00 -0.10295969830E+03  0.10295969830E+03  0.00000000000E+00 0.  1.
         25    2    1    2    0    0  0.75917019057E+02  0.72977218154E+02  0.23653074477E+02  0.16521504732E+03  0.12508987080E+03 0.  0.
         23    2    1    2    0    0 -0.75917019057E+02 -0.72977218154E+02  0.11928510042E+03  0.18364252417E+03  0.91687367446E+02 0.  0.
          5    1    3    3  502    0  0.58239127790E+02  0.44318722414E+02  0.74221462999E+02  0.10431799045E+03  0.41800000000E+01 0. -1.
         -5    1    3    3    0  502  0.17677891268E+02  0.28658495740E+02 -0.50568388522E+02  0.60897056870E+02  0.41800000000E+01 0. -1.
        -11    1    4    4    0    0 -0.33948813586E+02 -0.76702994859E+02  0.37999101854E+02  0.92085846393E+02  0.00000000000E+00 0.  1.
         11    1    4    4    0    0 -0.41968205471E+02  0.37257767048E+01  0.81285998570E+02  0.91556677780E+02  0.00000000000E+00 0. -1.
</event>
<event>
 8    1  0.6597859E-009  0.1098009E+03  0.7561462E-02  0.1260939E+00
         -2   -1    0    0    0  501 -0.00000000000E+00  0.00000000000E+00  0.17380076901E+02  0.17380076901E+02  0.00000000000E+00 0.  1.
          2   -1    0    0  501    0  0.00000000000E+00 -0.00000000000E+00 -0.97740500482E+03  0.97740500482E+03  0.00000000000E+00 0. -1.
         25    2    1    2    0    0  0.44150846545E+02 -0.50480921633E+02 -0.63675141450E+03  0.65237804568E+03  0.12508848831E+03 0.  0.
         23    2    1    2    0    0 -0.44150846545E+02  0.50480921633E+02 -0.32327351342E+03  0.34240703605E+03  0.90770001424E+02 0.  0.
          5    1    3    3  502    0 -0.30547044071E+02  0.74874331696E+01 -0.59610139595E+02  0.67527954948E+02  0.41800000000E+01 0. -1.
         -5    1    3    3    0  502  0.74697890616E+02 -0.57968354802E+02 -0.57714127491E+03  0.58485009073E+03  0.41800000000E+01 0. -1.
        -11    1    4    4    0    0 -0.43801062966E+02  0.65177981248E+02 -0.31672209023E+03  0.32631209723E+03  0.00000000000E+00 0. -1.
         11    1    4    4    0    0 -0.34978357900E+00 -0.14697059615E+02 -0.65514231870E+01  0.16094938821E+02  0.00000000000E+00 0.  1.
</event>
<event>
 8    1  0.6597859E-009  0.6660943E+02  0.7561462E-02  0.1372018E+00
          2   -1    0    0  501    0  0.00000000000E+00  0.00000000000E+00  0.25815225958E+03  0.25815225958E+03  0.00000000000E+00 0. -1.
         -2   -1    0    0    0  501 -0.00000000000E+00 -0.00000000000E+00 -0.61847641757E+02  0.61847641757E+02  0.00000000000E+00 0.  1.
         25    2    1    2    0    0 -0.56096445131E+02  0.32080049867E+02  0.10555854117E+03  0.17597397487E+03  0.12509313915E+03 0.  0.
         23    2    1    2    0    0  0.56096445131E+02 -0.32080049867E+02  0.90746076646E+02  0.14402592646E+03  0.91283494186E+02 0.  0.
          5    1    3    3  502    0 -0.14305873936E+02 -0.78686119625E+00  0.11983873975E+03  0.12076453587E+03  0.41800000000E+01 0. -1.
         -5    1    3    3    0  502 -0.41790571195E+02  0.32866911063E+02 -0.14280198574E+02  0.55209439002E+02  0.41800000000E+01 0. -1.
        -11    1    4    4    0    0  0.12868539521E+02 -0.42521316630E+01 -0.18706866966E+02  0.23100363737E+02  0.00000000000E+00 0.  1.
         11    1    4    4    0    0  0.43227905610E+02 -0.27827918204E+02  0.10945294361E+03  0.12092556273E+03  0.00000000000E+00 0. -1.
</event>
<event>
 8    1  0.6597859E-009  0.1583602E+03  0.7561462E-02  0.1190561E+00
         -2   -1    0    0    0  501 -0.00000000000E+00  0.00000000000E+00  0.17053920873E+03  0.17053920873E+03  0.00000000000E+00 0.  1.
          2   -1    0    0  501    0  0.00000000000E+00 -0.00000000000E+00 -0.28461378376E+03  0.28461378376E+03  0.00000000000E+00 0. -1.
         25    2    1    2    0    0  0.66976442708E+02  0.11646302117E+03 -0.20057334086E+03  0.27189459660E+03  0.12509007722E+03 0.  0.
         23    2    1    2    0    0 -0.66976442708E+02 -0.11646302117E+03  0.86498765826E+02  0.18325839589E+03  0.89733628006E+02 0.  0.
          5    1    3    3  502    0  0.98510699394E+02  0.55493064631E+02 -0.10663501824E+03  0.15547455622E+03  0.41800000000E+01 0. -1.
         -5    1    3    3    0  502 -0.31534256686E+02  0.60969956539E+02 -0.93938322617E+02  0.11642004038E+03  0.41800000000E+01 0. -1.
        -11    1    4    4    0    0 -0.29804375350E+02 -0.41017984947E+02  0.85197101422E+02  0.99142937064E+02  0.00000000000E+00 0.  1.
         11    1    4    4    0    0 -0.37172067358E+02 -0.75445036224E+02  0.13016644043E+01  0.84115458821E+02  0.00000000000E+00 0. -1.
</event>
<event>
 8    1  0.6597859E-009  0.1168020E+03  0.7561462E-02  0.1248468E+00
         -1   -1    0    0    0  501 -0.00000000000E+00  0.00000000000E+00  0.40607028199E+02  0.40607028199E+02  0.00000000000E+00 0.  1.
          1   -1    0    0  501    0  0.00000000000E+00 -0.00000000000E+00 -0.43777631806E+03  0.43777631806E+03  0.00000000000E+00 0. -1.
         25    2    1    2    0    0  0.36214000089E+02 -0.32234136334E+02 -0.32596604480E+03  0.35249287932E+03  0.12508746646E+03 0.  0.
         23    2    1    2    0    0 -0.36214000089E+02  0.32234136334E+02 -0.71203245058E+02  0.12589046693E+03  0.91804216733E+02 0.  0.
          5    1    3    3  502    0  0.36389081370E+02  0.41834734455E+02 -0.18529634344E+03  0.19345934338E+03  0.41800000000E+01 0. -1.
         -5    1    3    3    0  502 -0.17508128092E+00 -0.74068870789E+02 -0.14066970136E+03  0.15903353594E+03  0.41800000000E+01 0. -1.
        -11    1    4    4    0    0 -0.58659792055E+02 -0.65273904578E+01 -0.39791734343E+02  0.71182583208E+02  0.00000000000E+00 0.  1.
         11    1    4    4    0    0  0.22445791966E+02  0.38761526792E+02 -0.31411510715E+02  0.54707883724E+02  0.00000000000E+00 0. -1.
</event>
<event>
 8    1  0.6597859E-009  0.1117983E+03  0.7561462E-02  0.1257275E+00
          1   -1    0    0  501    0  0.00000000000E+00  0.00000000000E+00  0.96275337577E+02  0.96275337577E+02  0.00000000000E+00 0. -1.
         -1   -1    0    0    0  501 -0.00000000000E+00 -0.00000000000E+00 -0.24162473565E+03  0.24162473565E+03  0.00000000000E+00 0.  1.
         25    2    1    2    0    0  0.20277502584E+02 -0.89360380213E+02 -0.13500023939E+03  0.20559150962E+03  0.12508536897E+03 0.  0.
         23    2    1    2    0    0 -0.20277502584E+02  0.89360380213E+02 -0.10349158682E+02  0.13230856361E+03  0.94878850410E+02 0.  0.
          5    1    3    3  502    0  0.30834452077E+02 -0.71972952604E+02 -0.15690559492E+03  0.17540726170E+03  0.41800000000E+01 0.  1.
         -5    1    3    3    0  502 -0.10556949493E+02 -0.17387427609E+02  0.21905355528E+02  0.30184247917E+02  0.41800000000E+01 0.  1.
        -11    1    4    4    0    0  0.20366377751E+02  0.80213220614E+02 -0.27568939104E+02  0.87229562117E+02  0.00000000000E+00 0.  1.
         11    1    4    4    0    0 -0.40643880334E+02  0.91471595994E+01  0.17219780422E+02  0.45079001488E+02  0.00000000000E+00 0. -1.
</event>
<event>
 8    1  0.6597859E-009  0.9593601E+02  0.7561462E-02  0.1289082E+00
          1   -1    0    0  501    0  0.00000000000E+00  0.00000000000E+00  0.11740005707E+04  0.11740005707E+04  0.00000000000E+00 0. -1.
         -1   -1    0    0    0  501 -0.00000000000E+00 -0.00000000000E+00 -0.13681092032E+02  0.13681092032E+02  0.00000000000E+00 0.  1.
         25    2    1    2    0    0  0.56100443939E+02  0.20344815778E+02  0.78654987163E+03  0.79866751463E+03  0.12509167449E+03 0.  0.
         23    2    1    2    0    0 -0.56100443939E+02 -0.20344815778E+02  0.37376960705E+03  0.38901414811E+03  0.89817130542E+02 0.  0.
          5    1    3    3  502    0  0.10189517180E+02  0.36361530432E+02  0.68444331611E+03  0.68549698214E+03  0.41800000000E+01 0. -1.
         -5    1    3    3    0  502  0.45910926759E+02 -0.16016714654E+02  0.10210655552E+03  0.11317053249E+03  0.41800000000E+01 0. -1.
        -11    1    4    4    0    0  0.19331179245E+02 -0.22435093514E+02  0.14903521691E+03  0.15194908289E+03  0.00000000000E+00 0. -1.
         11    1    4    4    0    0 -0.75431623184E+02  0.20902777357E+01  0.22473439014E+03  0.23706506522E+03  0.00000000000E+00 0.  1.
</event>
<event>
 8    1  0.6597859E-009  0.8274922E+02  0.7561462E-02  0.1321426E+00
         -2   -1    0    0    0  501 -0.00000000000E+00  0.00000000000E+00  0.20911483149E+02  0.20911483149E+02  0.00000000000E+00 0.  1.
          2   -1    0    0  501    0  0.00000000000E+00 -0.00000000000E+00 -0.60469327679E+03  0.60469327679E+03  0.00000000000E+00 0. -1.
         25    2    1    2    0    0 -0.22414661584E+01 -0.29205812208E+02 -0.35365181630E+03  0.37626534562E+03  0.12509196420E+03 0.  0.
         23    2    1    2    0    0  0.22414661584E+01  0.29205812208E+02 -0.23012997734E+03  0.24933941432E+03  0.91391101442E+02 0.  0.
          5    1    3    3  502    0 -0.16362320651E+02 -0.56389206883E+02 -0.72355426287E+02  0.93275121566E+02  0.41800000000E+01 0. -1.
         -5    1    3    3    0  502  0.14120854493E+02  0.27183394675E+02 -0.28129639001E+03  0.28299022406E+03  0.41800000000E+01 0. -1.
        -11    1    4    4    0    0 -0.32569834820E+02  0.24140159037E+02 -0.43657671871E+02  0.59577963475E+02  0.00000000000E+00 0.  1.
         11    1    4    4    0    0  0.34811300978E+02  0.50656531707E+01 -0.18647230547E+03  0.18976145084E+03  0.00000000000E+00 0. -1.
</event>
<event>
 8    1  0.6597859E-009  0.1375402E+03  0.7561462E-02  0.1216678E+00
         -2   -1    0    0    0  501 -0.00000000000E+00  0.00000000000E+00  0.18913456014E+02  0.18913456014E+02  0.00000000000E+00 0.  1.
          2   -1    0    0  501    0  0.00000000000E+00 -0.00000000000E+00 -0.11432526233E+04  0.11432526233E+04  0.00000000000E+00 0. -1.
         25    2    1    2    0    0 -0.91492412753E+02 -0.33940064722E+02 -0.72472476400E+03  0.74188614626E+03  0.12508509453E+03 0.  0.
         23    2    1    2    0    0  0.91492412753E+02  0.33940064722E+02 -0.39961440334E+03  0.42027993310E+03  0.86143840348E+02 0.  0.
          5    1    3    3  502    0 -0.86204599535E+02  0.21672122113E+02 -0.57839307619E+03  0.58519820304E+03  0.41800000000E+01 0.  1.
         -5    1    3    3    0  502 -0.52878132175E+01 -0.55612186835E+02 -0.14633168781E+03  0.15668794322E+03  0.41800000000E+01 0.  1.
        -11    1    4    4    0    0  0.97195733473E+01 -0.26607455785E+02 -0.93690966010E+02  0.97879639973E+02  0.00000000000E+00 0. -1.
         11    1    4    4    0    0  0.81772839406E+02  0.60547520508E+02 -0.30592343733E+03  0.32240029313E+03  0.00000000000E+00 0.  1.
</event>
<event>
 8    1  0.6597859E-009  0.1036216E+03  0.7561462E-02  0.1272859E+00
         -2   -1    0    0    0  501 -0.00000000000E+00  0.00000000000E+00  0.36336940861E+02  0.36336940861E+02  0.00000000000E+00 0.  1.
          2   -1    0    0  501    0  0.00000000000E+00 -0.00000000000E+00 -0.42332024588E+03  0.42332024588E+03  0.00000000000E+00 0. -1.
         25    2    1    2    0    0  0.50826478487E+02  0.32343817981E+02 -0.22938408292E+03  0.26813144974E+03  0.12509181973E+03 0.  0.
         23    2    1    2    0    0 -0.50826478487E+02 -0.32343817981E+02 -0.15759922210E+03  0.19152573701E+03  0.90637407580E+02 0.  0.
          5    1    3    3  502    0  0.41610306907E+02 -0.19521464395E+02 -0.16857850827E+02  0.49134150522E+02  0.41800000000E+01 0.  1.
         -5    1    3    3    0  502  0.92161715798E+01  0.51865282375E+02 -0.21252623210E+03  0.21899729922E+03  0.41800000000E+01 0.  1.
        -11    1    4    4    0    0  0.20047585303E+02 -0.31536936124E+02 -0.64099182127E+02  0.74196961972E+02  0.00000000000E+00 0. -1.
         11    1    4    4    0    0 -0.70874063789E+02 -0.80688185633E+00 -0.93500039973E+02  0.11732877504E+03  0.00000000000E+00 0.  1.
</event>
<event>
 8    1  0.6597859E-009  0.1305651E+03  0.7561462E-02  0.1226620E+00
          2   -1    0    0  501    0  0.00000000000E+00  0.00000000000E+00  0.67796229548E+02  0.67796229548E+02  0.00000000000E+00 0. -1.
         -2   -1    0    0    0  501 -0.00000000000E+00 -0.00000000000E+00 -0.40510624068E+03  0.40510624068E+03  0.00000000000E+00 0.  1.
         25    2    1    2    0    0 -0.17037985845E+02 -0.84528147379E+02 -0.53467738468E+02  0.16106581352E+03  0.12509235215E+03 0.  0.
         23    2    1    2    0    0  0.17037985845E+02  0.84528147379E+02 -0.28384227266E+03  0.31183665671E+03  0.96126812360E+02 0.  0.
          5    1    3    3  502    0  0.32290043901E+02 -0.78614597824E+02  0.37512824106E+01  0.85173038257E+02  0.41800000000E+01 0. -1.
         -5    1    3    3    0  502 -0.49328029746E+02 -0.59135495555E+01 -0.57219020879E+02  0.75892775264E+02  0.41800000000E+01 0. -1.
        -11    1    4    4    0    0  0.54978233758E+02  0.57814525289E+02 -0.14575135513E+03  0.16615830718E+03  0.00000000000E+00 0.  1.
         11    1    4    4    0    0 -0.37940247913E+02  0.26713622090E+02 -0.13809091753E+03  0.14567834953E+03  0.00000000000E+00 0. -1.
</event>
<event>
 8    1  0.6597859E-009  0.1151742E+03  0.7561462E-02  0.1251277E+00
          4   -1    0    0  501    0  0.00000000000E+00  0.00000000000E+00  0.14533252781E+03  0.14533252781E+03  0.00000000000E+00 0. -1.
         -4   -1    0    0    0  501 -0.00000000000E+00 -0.00000000000E+00 -0.23317620132E+03  0.23317620132E+03  0.00000000000E+00 0.  1.
         25    2    1    2    0    0  0.12427878443E+02 -0.97904246118E+02 -0.15972585559E+03  0.22560985871E+03  0.12509103019E+03 0.  0.
         23    2    1    2    0    0 -0.12427878443E+02  0.97904246118E+02  0.71882182078E+02  0.15289887041E+03  0.92039789772E+02 0.  0.
          5    1    3    3  502    0 -0.19020468385E+02 -0.18168085417E+02 -0.13312926022E+03  0.13576718997E+03  0.41800000000E+01 0.  1.
         -5    1    3    3    0  502  0.31448346828E+02 -0.79736160701E+02 -0.26596595365E+02  0.89842668741E+02  0.41800000000E+01 0.  1.
        -11    1    4    4    0    0  0.26274781532E+02  0.31294718669E+02 -0.83098628176E+01  0.41698649632E+02  0.00000000000E+00 0. -1.
         11    1    4    4    0    0 -0.38702659975E+02  0.66609527450E+02  0.80192044896E+02  0.11120022078E+03  0.00000000000E+00 0.  1.
</event>
<event>
 8    1  0.6597859E-009  0.9594458E+02  0.7561462E-02  0.1289063E+00
          2   -1    0    0  501    0  0.00000000000E+00  0.00000000000E+00  0.61776695851E+03  0.61776695851E+03  0.00000000000E+00 0. -1.
         -2   -1    0    0    0  501 -0.00000000000E+00 -0.00000000000E+00 -0.19826572164E+02  0.19826572164E+02  0.00000000000E+00 0.  1.
         25    2    1    2    0    0 -0.11030922518E+02  0.14166415959E+02  0.36752326431E+03  0.38864348070E+03  0.12509211281E+03 0.  0.
         23    2    1    2    0    0  0.11030922518E+02 -0.14166415959E+02  0.23041712203E+03  0.24895004997E+03  0.92529501577E+02 0.  0.
          5    1    3    3  502    0 -0.47508070211E+02  0.35428533766E+02  0.31767942554E+03  0.32318707826E+03  0.41800000000E+01 0.  1.
         -5    1    3    3    0  502  0.36477147694E+02 -0.21262117808E+02  0.49843838771E+02  0.65456402444E+02  0.41800000000E+01 0.  1.
        -11    1    4    4    0    0 -0.38941128674E+02 -0.70440091077E+01  0.65956645010E+02  0.76917544083E+02  0.00000000000E+00 0. -1.
         11    1    4    4    0    0  0.49972051192E+02 -0.71224068510E+01  0.16446047702E+03  0.17203250589E+03  0.00000000000E+00 0.  1.
</event>
<event>
 8    1  0.6597859E-009  0.7619533E+02  0.7561462E-02  0.1340209E+00
          2   -1    0    0  501    0  0.00000000000E+00  0.00000000000E+00  0.65296799350E+03  0.65296799350E+03  0.00000000000E+00 0. -1.
         -2   -1    0    0    0  501 -0.00000000000E+00 -0.00000000000E+00 -0.18866129534E+02  0.18866129534E+02  0.00000000000E+00 0.  1.
         25    2    1    2    0    0 -0.13121450849E+02 -0.22716937730E+02  0.40992633743E+03  0.42938993582E+03  0.12509149905E+03 0.  0.
         23    2    1    2    0    0  0.13121450849E+02  0.22716937730E+02  0.22417552654E+03  0.24244418722E+03  0.88522796399E+02 0.  0.
          5    1    3    3  502    0 -0.34362694797E+02 -0.15955509494E+02  0.40420672124E+03  0.40599990022E+03  0.41800000000E+01 0.  1.
         -5    1    3    3    0  502  0.21241243948E+02 -0.67614282366E+01  0.57196161817E+01  0.23390035603E+02  0.41800000000E+01 0.  1.
        -11    1    4    4    0    0  0.44068761342E+02  0.36970233858E+02  0.15508377796E+03  0.16540807751E+03  0.00000000000E+00 0. -1.
         11    1    4    4    0    0 -0.30947310493E+02 -0.14253296128E+02  0.69091748581E+02  0.77036109710E+02  0.00000000000E+00 0.  1.
</event>
<event>
 8    1  0.6597859E-009  0.1584580E+03  0.7561462E-02  0.1190449E+00
         -3   -1    0    0    0  501 -0.00000000000E+00  0.00000000000E+00  0.36020958369E+02  0.36020958369E+02  0.00000000000E+00 0.  1.
          3   -1    0    0  501    0  0.00000000000E+00 -0.00000000000E+00 -0.98950670824E+03  0.98950670824E+03  0.00000000000E+00 0. -1.
         25    2    1    2    0    0  0.55385185807E+02 -0.13996180612E+03 -0.59637892518E+03  0.62767131595E+03  0.12508650005E+03 0.  0.
         23    2    1    2    0    0 -0.55385185807E+02  0.13996180612E+03 -0.35710682469E+03  0.39785635065E+03  0.90042020945E+02 0.  0.
          5    1    3    3  502    0  0.71243290739E+02 -0.11353836810E+03 -0.28758773095E+03  0.31731804691E+03  0.41800000000E+01 0. -1.
         -5    1    3    3    0  502 -0.15858104932E+02 -0.26423438018E+02 -0.30879119423E+03  0.31035326904E+03  0.41800000000E+01 0. -1.
        -11    1    4    4    0    0 -0.40504114197E+02  0.76858989635E+02 -0.98926182534E+02  0.13165970206E+03  0.00000000000E+00 0.  1.
         11    1    4    4    0    0 -0.14881071610E+02  0.63102816484E+02 -0.25818064216E+03  0.26619664860E+03  0.00000000000E+00 0. -1.
</event>
<event>
 8    1  0.6597859E-009  0.1341332E+03  0.7561462E-02  0.1221449E+00
         -2   -1    0    0    0  501 -0.00000000000E+00  0.00000000000E+00  0.37460672274E+03  0.37460672274E+03  0.00000000000E+00 0.  1.
          2   -1    0    0  501    0  0.00000000000E+00 -0.00000000000E+00 -0.57005902523E+02  0.57005902523E+02  0.00000000000E+00 0. -1.
         25    2    1    2    0    0  0.45195771245E+02 -0.71764686503E+02  0.23977763712E+03  0.28341300639E+03  0.12504714696E+03 0.  0.
         23    2    1    2    0    0 -0.45195771245E+02  0.71764686503E+02  0.77823183097E+02  0.14819961887E+03  0.93348011435E+02 0.  0.
          5    1    3    3  502    0  0.35927454186E+02 -0.10762286841E+03  0.17278350817E+03  0.20674882554E+03  0.41800000000E+01 0.  1.
         -5    1    3    3    0  502  0.92683170594E+01  0.35858181909E+02  0.66994128950E+02  0.76664180846E+02  0.41800000000E+01 0.  1.
        -11    1    4    4    0    0  0.19213828015E+02  0.42638001254E+02  0.55359382721E+01  0.47093703937E+02  0.00000000000E+00 0. -1.
         11    1    4    4    0    0 -0.64409599260E+02  0.29126685249E+02  0.72287244825E+02  0.10110591493E+03  0.00000000000E+00 0.  1.
</event>
<event>
 8    1  0.6597859E-009  0.9964392E+02  0.7561462E-02  0.1281047E+00
         -4   -1    0    0    0  501 -0.00000000000E+00  0.00000000000E+00  0.13562378241E+03  0.13562378241E+03  0.00000000000E+00 0.  1.
          4   -1    0    0  501    0  0.00000000000E+00 -0.00000000000E+00 -0.19290945334E+03  0.19290945334E+03  0.00000000000E+00 0. -1.
         25    2    1    2    0    0 -0.48974833814E+02  0.26238238658E+02 -0.13770529374E+03  0.19415122334E+03  0.12507985484E+03 0.  0.
         23    2    1    2    0    0  0.48974833814E+02 -0.26238238658E+02  0.80419622809E+02  0.13438201242E+03  0.92218382190E+02 0.  0.
          5    1    3    3  502    0 -0.58756795731E+02 -0.18865050651E+02 -0.15950831327E+02  0.63876072207E+02  0.41800000000E+01 0. -1.
         -5    1    3    3    0  502  0.97819619168E+01  0.45103289309E+02 -0.12175446241E+03  0.13027515113E+03  0.41800000000E+01 0. -1.
        -11    1    4    4    0    0  0.62127610739E+02 -0.43113123386E+00  0.16618073384E+02  0.64313188798E+02  0.00000000000E+00 0. -1.
         11    1    4    4    0    0 -0.13152776925E+02 -0.25807107425E+02  0.63801549425E+02  0.70068823620E+02  0.00000000000E+00 0.  1.
</event>
<event>
 8    1  0.6597859E-009  0.1637074E+03  0.7561462E-02  0.1184574E+00
         -1   -1    0    0    0  501 -0.00000000000E+00  0.00000000000E+00  0.15452778674E+03  0.15452778674E+03  0.00000000000E+00 0.  1.
          1   -1    0    0  501    0  0.00000000000E+00 -0.00000000000E+00 -0.21263479808E+03  0.21263479808E+03  0.00000000000E+00 0. -1.
         25    2    1    2    0    0  0.11277446193E+02  0.13088433941E+03  0.29335288755E+02  0.18375305604E+03  0.12508691116E+03 0.  0.
         23    2    1    2    0    0 -0.11277446193E+02 -0.13088433941E+03 -0.87442300089E+02  0.18340952878E+03  0.93461266353E+02 0.  0.
          5    1    3    3  502    0 -0.42749668443E+02  0.15279385199E+02 -0.15927360437E+02  0.48292307612E+02  0.41800000000E+01 0. -1.
         -5    1    3    3    0  502  0.54027114636E+02  0.11560495421E+03  0.45262649192E+02  0.13546074843E+03  0.41800000000E+01 0. -1.
        -11    1    4    4    0    0  0.26555881434E+02 -0.11545176441E+02 -0.40322982128E+02  0.49643215302E+02  0.00000000000E+00 0. -1.
         11    1    4    4    0    0 -0.37833327627E+02 -0.11933916296E+03 -0.47119317961E+02  0.13376631348E+03  0.00000000000E+00 0.  1.
</event>
<event>
 8    1  0.6597859E-009  0.1276439E+03  0.7561462E-02  0.1230994E+00
         -1   -1    0    0    0  501 -0.00000000000E+00  0.00000000000E+00  0.19075446278E+02  0.19075446278E+02  0.00000000000E+00 0.  1.
          1   -1    0    0  501    0  0.00000000000E+00 -0.00000000000E+00 -0.12372647074E+04  0.12372647074E+04  0.00000000000E+00 0. -1.
         25    2    1    2    0    0  0.12738400592E+02 -0.10593469286E+03 -0.73272544401E+03  0.75094450548E+03  0.12508656205E+03 0.  0.
         23    2    1    2    0    0 -0.12738400592E+02  0.10593469286E+03 -0.48546381711E+03  0.50539564819E+03  0.91461562933E+02 0.  0.
          5    1    3    3  502    0 -0.20263947914E+02 -0.58398631022E+02 -0.62941356195E+03  0.63245547832E+03  0.41800000000E+01 0. -1.
         -5    1    3    3    0  502  0.33002348506E+02 -0.47536061837E+02 -0.10331188206E+03  0.11848902716E+03  0.41800000000E+01 0. -1.
        -11    1    4    4    0    0 -0.13246654435E+01  0.11840204084E+03 -0.45873561286E+03  0.47377121116E+03  0.00000000000E+00 0.  1.
         11    1    4    4    0    0 -0.11413735149E+02 -0.12467347983E+02 -0.26728204245E+02  0.31624437038E+02  0.00000000000E+00 0. -1.
</event>
<event>
 8    1  0.6597859E-009  0.1151444E+03  0.7561462E-02  0.1251329E+00
          1   -1    0    0  501    0  0.00000000000E+00  0.00000000000E+00  0.19811168408E+03  0.19811168408E+03  0.00000000000E+00 0. -1.
         -1   -1    0    0    0  501 -0.00000000000E+00 -0.00000000000E+00 -0.82075833663E+02  0.82075833663E+02  0.00000000000E+00 0.  1.
         25    2    1    2    0    0 -0.19539925221E+02  0.63966262670E+02  0.77068362772E+02  0.16143145600E+03  0.12508833282E+03 0.  0.
         23    2    1    2    0    0  0.19539925221E+02 -0.63966262670E+02  0.38967487643E+02  0.11875606174E+03  0.90061343923E+02 0.  0.
          5    1    3    3  502    0  0.23821680326E+02  0.78576617206E+02  0.13995646016E+02  0.83397288520E+02  0.41800000000E+01 0.  1.
         -5    1    3    3    0  502 -0.43361605547E+02 -0.14610354537E+02  0.63072716756E+02  0.78034167480E+02  0.41800000000E+01 0.  1.
        -11    1    4    4    0    0 -0.23510274534E+02 -0.52579451412E+02  0.45951733853E+02  0.73681025804E+02  0.00000000000E+00 0. -1.
         11    1    4    4    0    0  0.43050199755E+02 -0.11386811258E+02 -0.69842462097E+01  0.45075035936E+02  0.00000000000E+00 0.  1.
</event>
<event>
 8    1  0.6597859E-009  0.2453936E+03  0.7561462E-02  0.1116251E+00
         -2   -1    0    0    0  501 -0.00000000000E+00  0.00000000000E+00  0.34285527611E+02  0.34285527611E+02  0.00000000000E+00 0. -1.
          2   -1    0    0  501    0  0.00000000000E+00 -0.00000000000E+00 -0.21518455810E+04  0.21518455810E+04  0.00000000000E+00 0.  1.
         25    2    1    2    0    0  0.55697769059E+02 -0.22723817722E+03 -0.14249296192E+04  0.14494168706E+04  0.12508163131E+03 0.  0.
         23    2    1    2    0    0 -0.55697769059E+02  0.22723817722E+03 -0.69263043421E+03  0.73671423802E+03  0.90947894063E+02 0.  0.
          5    1    3    3  502    0  0.74607761017E+02 -0.20088128430E+03 -0.97401215243E+03  0.99731477171E+03  0.41800000000E+01 0. -1.
         -5    1    3    3    0  502 -0.18909991958E+02 -0.26356892924E+02 -0.45091746676E+03  0.45210209890E+03  0.41800000000E+01 0. -1.
        -11    1    4    4    0    0 -0.53124374000E+02  0.77324388290E+02 -0.35690662011E+03  0.36903061610E+03  0.00000000000E+00 0.  1.
         11    1    4    4    0    0 -0.25733950587E+01  0.14991378893E+03 -0.33572381410E+03  0.36768362192E+03  0.00000000000E+00 0. -1.
</event>
<event>
 8    1  0.6597859E-009  0.1297051E+03  0.7561462E-02  0.1227894E+00
          1   -1    0    0  501    0  0.00000000000E+00  0.00000000000E+00  0.35049274979E+03  0.35049274979E+03  0.00000000000E+00 0. -1.
         -1   -1    0    0    0  501 -0.00000000000E+00 -0.00000000000E+00 -0.11138765000E+03  0.11138765000E+03  0.00000000000E+00 0.  1.
         25    2    1    2    0    0 -0.88755861906E+02  0.26180038068E+02 -0.33799447606E+02  0.15922802102E+03  0.12509261611E+03 0.  0.
         23    2    1    2    0    0  0.88755861906E+02 -0.26180038068E+02  0.27290454740E+03  0.30265237877E+03  0.92512555734E+02 0.  0.
          5    1    3    3  502    0  0.11543345855E+02  0.25355455809E+02 -0.50144925181E+02  0.57516379356E+02  0.41800000000E+01 0.  1.
         -5    1    3    3    0  502 -0.10029920776E+03  0.82458225859E+00  0.16345477575E+02  0.10171164167E+03  0.41800000000E+01 0.  1.
        -11    1    4    4    0    0 -0.16389567509E+02  0.10528806065E+02  0.40478997794E+02  0.44922410250E+02  0.00000000000E+00 0.  1.
         11    1    4    4    0    0  0.10514542941E+03 -0.36708844133E+02  0.23242554961E+03  0.25772996852E+03  0.00000000000E+00 0. -1.
</event>
<event>
 8    1  0.6597859E-009  0.9213568E+02  0.7561462E-02  0.1297761E+00
         -1   -1    0    0    0  501 -0.00000000000E+00  0.00000000000E+00  0.51359843208E+02  0.51359843208E+02  0.00000000000E+00 0.  1.
          1   -1    0    0  501    0  0.00000000000E+00 -0.00000000000E+00 -0.26658516407E+03  0.26658516407E+03  0.00000000000E+00 0. -1.
         25    2    1    2    0    0 -0.18314924042E+02 -0.23237161914E+02 -0.74231853415E+02  0.14843841387E+03  0.12509273566E+03 0.  0.
         23    2    1    2    0    0  0.18314924042E+02  0.23237161914E+02 -0.14099346745E+03  0.16950659341E+03  0.89319232020E+02 0.  0.
          5    1    3    3  502    0 -0.38492442075E+02  0.26935940406E+02  0.10037043131E+02  0.48222687785E+02  0.41800000000E+01 0. -1.
         -5    1    3    3    0  502  0.20177518032E+02 -0.50173102320E+02 -0.84268896545E+02  0.10021572609E+03  0.41800000000E+01 0. -1.
        -11    1    4    4    0    0 -0.30462258454E+02  0.12456897328E+02 -0.19766509152E+02  0.38390602564E+02  0.00000000000E+00 0.  1.
         11    1    4    4    0    0  0.48777182496E+02  0.10780264586E+02 -0.12122695830E+03  0.13111599084E+03  0.00000000000E+00 0. -1.
</event>
<event>
 8    1  0.6597859E-009  0.1254280E+03  0.7561462E-02  0.1234402E+00
         -1   -1    0    0    0  501 -0.00000000000E+00  0.00000000000E+00  0.63896694436E+03  0.63896694436E+03  0.00000000000E+00 0.  1.
          1   -1    0    0  501    0  0.00000000000E+00 -0.00000000000E+00 -0.33788888507E+02  0.33788888507E+02  0.00000000000E+00 0. -1.
         25    2    1    2    0    0 -0.54875725562E+02 -0.81584772999E+02  0.33677998558E+03  0.37248831578E+03  0.12513738955E+03 0.  0.
         23    2    1    2    0    0  0.54875725562E+02  0.81584772999E+02  0.26839807028E+03  0.30026751709E+03  0.91954539040E+02 0.  0.
          5    1    3    3  502    0  0.29583964546E+02 -0.40684123559E+00  0.23558092803E+02  0.38050395721E+02  0.41800000000E+01 0.  1.
         -5    1    3    3    0  502 -0.84459690108E+02 -0.81177931763E+02  0.31322189278E+03  0.33443792006E+03  0.41800000000E+01 0.  1.
        -11    1    4    4    0    0  0.39217980658E+02  0.28692703275E+02  0.33603980350E+02  0.59080865967E+02  0.00000000000E+00 0. -1.
         11    1    4    4    0    0  0.15657744904E+02  0.52892069724E+02  0.23479408993E+03  0.24118665112E+03  0.00000000000E+00 0.  1.
</event>
<event>
 8    1  0.6597859E-009  0.1335071E+03  0.7561462E-02  0.1222343E+00
          1   -1    0    0  501    0  0.00000000000E+00  0.00000000000E+00  0.19988324416E+03  0.19988324416E+03  0.00000000000E+00 0. -1.
         -1   -1    0    0    0  501 -0.00000000000E+00 -0.00000000000E+00 -0.19650852689E+03  0.19650852689E+03  0.00000000000E+00 0.  1.
         25    2    1    2    0    0  0.92871437501E+02  0.63289319254E+02 -0.12091951659E+03  0.20712019193E+03  0.12508638047E+03 0.  0.
         23    2    1    2    0    0 -0.92871437501E+02 -0.63289319254E+02  0.12429423386E+03  0.18927157911E+03  0.88000183262E+02 0.  0.
          5    1    3    3  502    0 -0.12583417790E+02 -0.32472877757E+01 -0.71721577447E+02  0.73009207315E+02  0.41800000000E+01 0. -1.
         -5    1    3    3    0  502  0.10545485529E+03  0.66536607030E+02 -0.49197939143E+02  0.13411098462E+03  0.41800000000E+01 0. -1.
        -11    1    4    4    0    0 -0.52403676082E+02  0.12569817307E+01  0.93316284754E+02  0.10703109020E+03  0.00000000000E+00 0. -1.
         11    1    4    4    0    0 -0.40467761419E+02 -0.64546300985E+02  0.30977949103E+02  0.82240488907E+02  0.00000000000E+00 0.  1.
</event>
<event>
 8    1  0.6597859E-009  0.8278537E+02  0.7561462E-02  0.1321328E+00
          1   -1    0    0  501    0  0.00000000000E+00  0.00000000000E+00  0.16706710915E+03  0.16706710915E+03  0.00000000000E+00 0. -1.
         -1   -1    0    0    0  501 -0.00000000000E+00 -0.00000000000E+00 -0.71704138324E+02  0.71704138324E+02  0.00000000000E+00 0.  1.
         25    2    1    2    0    0 -0.78414902132E+01  0.17560395325E+01  0.41186662418E+02  0.13194182870E+03  0.12509089637E+03 0.  0.
         23    2    1    2    0    0  0.78414902132E+01 -0.17560395325E+01  0.54176308410E+02  0.10682941878E+03  0.91721751400E+02 0.  0.
          5    1    3    3  502    0  0.53508623499E+02  0.19437751154E+02  0.36567641082E+02  0.67791324910E+02  0.41800000000E+01 0. -1.
         -5    1    3    3    0  502 -0.61350113712E+02 -0.17681711621E+02  0.46190213360E+01  0.64150503790E+02  0.41800000000E+01 0. -1.
        -11    1    4    4    0    0  0.16016827195E+02 -0.19340564972E+02  0.74571818622E+02  0.78686417757E+02  0.00000000000E+00 0. -1.
         11    1    4    4    0    0 -0.81753369820E+01  0.17584525440E+02 -0.20395510211E+02  0.28143001021E+02  0.00000000000E+00 0.  1.
</event>
<event>
 8    1  0.6597859E-009  0.1179039E+03  0.7561462E-02  0.1246596E+00
          3   -1    0    0  501    0  0.00000000000E+00  0.00000000000E+00  0.27483084536E+02  0.27483084536E+02  0.00000000000E+00 0. -1.
         -3   -1    0    0    0  501 -0.00000000000E+00 -0.00000000000E+00 -0.72513119696E+03  0.72513119696E+03  0.00000000000E+00 0.  1.
         25    2    1    2    0    0 -0.17944242876E+02 -0.80791164165E+02 -0.33671362659E+03  0.36860945437E+03  0.12509058899E+03 0.  0.
         23    2    1    2    0    0  0.17944242876E+02  0.80791164165E+02 -0.36093448583E+03  0.38400482712E+03  0.10167003559E+03 0.  0.
          5    1    3    3  502    0  0.10809586341E+02  0.62210775191E+01 -0.21889063596E+03  0.21928550311E+03  0.41800000000E+01 0.  1.
         -5    1    3    3    0  502 -0.28753829217E+02 -0.87012241684E+02 -0.11782299063E+03  0.14932395126E+03  0.41800000000E+01 0.  1.
        -11    1    4    4    0    0  0.57257500272E+02  0.69434955205E+02 -0.25718075601E+03  0.27247307318E+03  0.00000000000E+00 0.  1.
         11    1    4    4    0    0 -0.39313257396E+02  0.11356208960E+02 -0.10375372981E+03  0.11153175395E+03  0.00000000000E+00 0. -1.
</event>
<event>
 8    1  0.6597859E-009  0.1601869E+03  0.7561462E-02  0.1188486E+00
         -2   -1    0    0    0  501 -0.00000000000E+00  0.00000000000E+00  0.16495784609E+03  0.16495784609E+03  0.00000000000E+00 0.  1.
          2   -1    0    0  501    0  0.00000000000E+00 -0.00000000000E+00 -0.31222399796E+03  0.31222399796E+03  0.00000000000E+00 0. -1.
         25    2    1    2    0    0 -0.17411707936E+02  0.14160881980E+03  0.69450049291E+02  0.20205626555E+03  0.12508876722E+03 0.  0.
         23    2    1    2    0    0  0.17411707936E+02 -0.14160881980E+03 -0.21671620116E+03  0.27512557850E+03  0.91498342501E+02 0.  0.
          5    1    3    3  502    0  0.13496414304E+02  0.92723344643E+02 -0.19571713027E+02  0.95813862210E+02  0.41800000000E+01 0.  1.
         -5    1    3    3    0  502 -0.30908122239E+02  0.48885475153E+02  0.89021762317E+02  0.10624240334E+03  0.41800000000E+01 0.  1.
        -11    1    4    4    0    0 -0.25556683218E+02 -0.11554385313E+03 -0.16462578824E+03  0.20274411510E+03  0.00000000000E+00 0. -1.
         11    1    4    4    0    0  0.42968391154E+02 -0.26064966671E+02 -0.52090412919E+02  0.72381463400E+02  0.00000000000E+00 0.  1.
</event>
<event>
 8    1  0.6597859E-009  0.1189401E+03  0.7561462E-02  0.1244856E+00
          1   -1    0    0  501    0  0.00000000000E+00  0.00000000000E+00  0.90987883721E+03  0.90987883721E+03  0.00000000000E+00 0. -1.
         -1   -1    0    0    0  501 -0.00000000000E+00 -0.00000000000E+00 -0.16831389416E+02  0.16831389416E+02  0.00000000000E+00 0.  1.
         25    2    1    2    0    0 -0.35917222267E+02  0.38411477294E+02  0.56059565486E+03  0.57678537069E+03  0.12509351364E+03 0.  0.
         23    2    1    2    0    0  0.35917222267E+02 -0.38411477294E+02  0.33245179293E+03  0.34992485593E+03  0.95695985970E+02 0.  0.
          5    1    3    3  502    0 -0.28030678905E+02  0.83261342131E+02  0.31915246816E+03  0.33104975515E+03  0.41800000000E+01 0. -1.
         -5    1    3    3    0  502 -0.78865433619E+01 -0.44849864837E+02  0.24144318670E+03  0.24573561554E+03  0.41800000000E+01 0. -1.
        -11    1    4    4    0    0  0.66227867348E+02 -0.30241820160E+02  0.27479106233E+03  0.28427245036E+03  0.00000000000E+00 0. -1.
         11    1    4    4    0    0 -0.30310645081E+02 -0.81696571348E+01  0.57660730602E+02  0.65652405565E+02  0.00000000000E+00 0.  1.
</event>
<event>
 8    1  0.6597859E-009  0.1596559E+03  0.7561462E-02  0.1189086E+00
          3   -1    0    0  501    0  0.00000000000E+00  0.00000000000E+00  0.16163446609E+03  0.16163446609E+03  0.00000000000E+00 0. -1.
         -3   -1    0    0    0  501 -0.00000000000E+00 -0.00000000000E+00 -0.20353329285E+03  0.20353329285E+03  0.00000000000E+00 0.  1.
         25    2    1    2    0    0 -0.13246165296E+03 -0.21781862247E+02  0.32892288376E+02  0.18641417182E+03  0.12509117392E+03 0.  0.
         23    2    1    2    0    0  0.13246165296E+03  0.21781862247E+02 -0.74791115133E+02  0.17875358712E+03  0.91315907582E+02 0.  0.
          5    1    3    3  502    0 -0.90432924409E+02  0.47448743049E+02  0.22455882668E+02  0.10464815383E+03  0.41800000000E+01 0. -1.
         -5    1    3    3    0  502 -0.42028728552E+02 -0.69230605296E+02  0.10436405708E+02  0.81766017987E+02  0.41800000000E+01 0. -1.
        -11    1    4    4    0    0  0.28526261549E+02 -0.42937713760E+01  0.20472769974E+02  0.35373978869E+02  0.00000000000E+00 0. -1.
         11    1    4    4    0    0  0.10393539141E+03  0.26075633623E+02 -0.95263885107E+02  0.14337960825E+03  0.00000000000E+00 0.  1.
</event>
<event>
 8    1  0.6597859E-009  0.5461010E+02  0.7561462E-02  0.1421952E+00
          2   -1    0    0  501    0  0.00000000000E+00  0.00000000000E+00  0.45523475421E+02  0.45523475421E+02  0.00000000000E+00 0. -1.
         -2   -1    0    0    0  501 -0.00000000000E+00 -0.00000000000E+00 -0.26598509895E+03  0.26598509895E+03  0.00000000000E+00 0.  1.
         25    2    1    2    0    0 -0.67597608578E+01  0.46860360302E+01 -0.10165830176E+03  0.16139898968E+03  0.12509024843E+03 0.  0.
         23    2    1    2    0    0  0.67597608578E+01 -0.46860360302E+01 -0.11880332176E+03  0.15010958469E+03  0.91383832555E+02 0.  0.
          5    1    3    3  502    0 -0.33654510390E+02 -0.93424994031E+01 -0.12044385318E+03  0.12547550571E+03  0.41800000000E+01 0. -1.
         -5    1    3    3    0  502  0.26894749532E+02  0.14028535433E+02  0.18785551414E+02  0.35923483973E+02  0.41800000000E+01 0. -1.
        -11    1    4    4    0    0  0.85252236809E+01  0.18395292343E+02  0.75637802413E+01  0.21639708656E+02  0.00000000000E+00 0. -1.
         11    1    4    4    0    0 -0.17654628231E+01 -0.23081328373E+02 -0.12636710200E+03  0.12846987603E+03  0.00000000000E+00 0.  1.
</event>
