<event>
 7    1  0.2530765E-009  0.1126448E+03  0.7561462E-02  0.1255749E+00
          3   -1    0    0  501    0  0.00000000000E+00  0.00000000000E+00  0.38586213975E+02  0.38586213975E+02  0.00000000000E+00 0. -1.
         -3   -1    0    0    0  501 -0.00000000000E+00 -0.00000000000E+00 -0.41110170861E+03  0.41110170861E+03  0.00000000000E+00 0.  1.
         25    2    1    2    0    0  0.28202679368E+02  0.16284507190E+02 -0.30220322784E+03  0.32868643772E+03  0.12508959638E+03 0.  0.
          5    1    3    3  502    0  0.88899435827E+01  0.70635231025E+02 -0.17368385278E+03  0.18775494687E+03  0.41800000000E+01 0.  1.
         -5    1    3    3    0  502  0.19312735785E+02 -0.54350723835E+02 -0.12851937506E+03  0.14093149085E+03  0.41800000000E+01 0.  1.
        -11    1    1    2    0    0  0.30713088823E+02  0.90390206644E+01 -0.11588229864E+02  0.34048271483E+02  0.00000000000E+00 0. -1.
         11    1    1    2    0    0 -0.58915768191E+02 -0.25323527854E+02 -0.58724036923E+02  0.86953213380E+02  0.00000000000E+00 0.  1.
</event>
<event>
 7    1  0.2530765E-009  0.8326830E+02  0.7561462E-02  0.1320024E+00
          1   -1    0    0  501    0  0.00000000000E+00  0.00000000000E+00  0.28056744454E+03  0.28056744454E+03  0.00000000000E+00 0.  1.
         -1   -1    0    0    0  501 -0.00000000000E+00 -0.00000000000E+00 -0.75899727998E+02  0.75899727998E+02  0.00000000000E+00 0. -1.
         25    2    1    2    0    0  0.22719773328E+02  0.45715225585E+02  0.20057996079E+03  0.24183932304E+03  0.12509143674E+03 0.  0.
          5    1    3    3  502    0 -0.70392232127E+01  0.12360337779E+02  0.19616797378E+03  0.19672741281E+03  0.41800000000E+01 0.  1.
         -5    1    3    3    0  502  0.29758996541E+02  0.33354887806E+02  0.44119870169E+01  0.45111910236E+02  0.41800000000E+01 0.  1.
        -11    1    1    2    0    0  0.34008195039E+02 -0.35525400188E+02 -0.18749695030E+02  0.52632332763E+02  0.00000000000E+00 0. -1.
         11    1    1    2    0    0 -0.56727968367E+02 -0.10189825398E+02  0.22837450774E+02  0.61995516730E+02  0.00000000000E+00 0.  1.
</event>
<event>
 7    1  0.2530765E-009  0.1168371E+03  0.7561462E-02  0.1248408E+00
          1   -1    0    0  501    0  0.00000000000E+00  0.00000000000E+00  0.12027673069E+04  0.12027673069E+04  0.00000000000E+00 0. -1.
         -1   -1    0    0    0  501 -0.00000000000E+00 -0.00000000000E+00 -0.18358832384E+02  0.18358832384E+02  0.00000000000E+00 0.  1.
         25    2    1    2    0    0 -0.60723151085E+02  0.17642237311E+02  0.95790121745E+03  0.96810269983E+03  0.12509814317E+03 0.  0.
          5    1    3    3  502    0 -0.70527970631E+02 -0.36154679575E+02  0.42163872485E+03  0.42904317054E+03  0.41800000000E+01 0.  1.
         -5    1    3    3    0  502  0.98048195454E+01  0.53796916886E+02  0.53626249260E+03  0.53905952929E+03  0.41800000000E+01 0.  1.
        -11    1    1    2    0    0  0.38550674495E+02  0.28721491324E+02  0.16988464494E+03  0.17655557526E+03  0.00000000000E+00 0. -1.
         11    1    1    2    0    0  0.22172476590E+02 -0.46363728635E+02  0.56622612155E+02  0.76467864220E+02  0.00000000000E+00 0.  1.
</event>
<event>
 7    1  0.2530765E-009  0.7505122E+02  0.7561462E-02  0.1343712E+00
         -2   -1    0    0    0  501 -0.00000000000E+00  0.00000000000E+00  0.12574938993E+02  0.12574938993E+02  0.00000000000E+00 0.  1.
          2   -1    0    0  501    0  0.00000000000E+00 -0.00000000000E+00 -0.10279219429E+04  0.10279219429E+04  0.00000000000E+00 0. -1.
         25    2    1    2    0    0  0.18843706869E+02 -0.21081758179E+02 -0.68193116887E+03  0.69388554201E+03  0.12508996972E+03 0.  0.
          5    1    3    3  502    0 -0.18018271407E+02  0.54635743044E+01 -0.12680376652E+02  0.23081878189E+02  0.41800000000E+01 0. -1.
         -5    1    3    3    0  502  0.36861978276E+02 -0.26545332483E+02 -0.66925079221E+03  0.67080366382E+03  0.41800000000E+01 0. -1.
        -11    1    1    2    0    0 -0.11959068537E+02 -0.30707228602E+02 -0.62006516151E+02  0.70219379475E+02  0.00000000000E+00 0.  1.
         11    1    1    2    0    0 -0.68846383319E+01  0.51788986781E+02 -0.27140931888E+03  0.27639196040E+03  0.00000000000E+00 0. -1.
</event>
<event>
 7    1  0.2530765E-009  0.2381347E+03  0.7561462E-02  0.1121042E+00
          1   -1    0    0  501    0  0.00000000000E+00  0.00000000000E+00  0.49964173688E+03  0.49964173688E+03  0.00000000000E+00 0. -1.
         -1   -1    0    0    0  501 -0.00000000000E+00 -0.00000000000E+00 -0.15230283600E+03  0.15230283600E+03  0.00000000000E+00 0.  1.
         25    2    1    2    0    0 -0.22740814713E+03  0.29590358342E+01  0.31122500721E+03  0.40525852709E+03  0.12510094881E+03 0.  0.
          5    1    3    3  502    0 -0.13180569770E+03  0.35100394462E+02  0.25622851943E+03  0.29030209473E+03  0.41800000000E+01 0.  1.
         -5    1    3    3    0  502 -0.95602449437E+02 -0.32141358628E+02  0.54996487778E+02  0.11495643236E+03  0.41800000000E+01 0.  1.
        -11    1    1    2    0    0 -0.38687037369E+00 -0.10917803161E+02  0.13889591259E+02  0.17671130125E+02  0.00000000000E+00 0. -1.
         11    1    1    2    0    0  0.22779501751E+03  0.79587673270E+01  0.22224302410E+02  0.22901491566E+03  0.00000000000E+00 0.  1.
</event>
<event>
 7    1  0.2530765E-009  0.1156287E+03  0.7561462E-02  0.1250488E+00
         -1   -1    0    0    0  501 -0.00000000000E+00  0.00000000000E+00  0.68004930628E+02  0.68004930628E+02  0.00000000000E+00 0.  1.
          1   -1    0    0  501    0  0.00000000000E+00 -0.00000000000E+00 -0.21596359987E+03  0.21596359987E+03  0.00000000000E+00 0. -1.
         25    2    1    2    0    0 -0.53896705562E+02 -0.34647424087E+01 -0.79643549343E+02  0.15782224419E+03  0.12509159243E+03 0.  0.
          5    1    3    3  502    0 -0.49825943743E+02 -0.54459191392E+02 -0.15272057449E+02  0.75492624379E+02  0.41800000000E+01 0.  1.
         -5    1    3    3    0  502 -0.40707618197E+01  0.50994448983E+02 -0.64371491895E+02  0.82329619807E+02  0.41800000000E+01 0.  1.
        -11    1    1    2    0    0  0.52273079402E+02  0.42229471221E+02 -0.45136872551E+02  0.80951469001E+02  0.00000000000E+00 0. -1.
         11    1    1    2    0    0  0.16236261602E+01 -0.38764728812E+02 -0.23178247351E+02  0.45194817314E+02  0.00000000000E+00 0.  1.
</event>
<event>
 7    1  0.2530765E-009  0.9581029E+02  0.7561462E-02  0.1289361E+00
          2   -1    0    0  501    0  0.00000000000E+00  0.00000000000E+00  0.17323333648E+03  0.17323333648E+03  0.00000000000E+00 0. -1.
         -2   -1    0    0    0  501 -0.00000000000E+00 -0.00000000000E+00 -0.77824141806E+02  0.77824141806E+02  0.00000000000E+00 0.  1.
         25    2    1    2    0    0 -0.26536843171E+02  0.21353038159E+01  0.84556139356E+02  0.15331551916E+03  0.12508854521E+03 0.  0.
          5    1    3    3  502    0 -0.53960031367E+02  0.48968298752E+02  0.54897218200E+02  0.91327740768E+02  0.41800000000E+01 0. -1.
         -5    1    3    3    0  502  0.27423188196E+02 -0.46832994936E+02  0.29658921156E+02  0.61987778389E+02  0.41800000000E+01 0. -1.
        -11    1    1    2    0    0  0.12885398596E+02  0.28162725257E+02 -0.31321728837E+02  0.44047965767E+02  0.00000000000E+00 0.  1.
         11    1    1    2    0    0  0.13651444575E+02 -0.30298029073E+02  0.42174784158E+02  0.53693993365E+02  0.00000000000E+00 0. -1.
</event>
<event>
 7    1  0.2530765E-009  0.1051656E+03  0.7561462E-02  0.1269794E+00
         -3   -1    0    0    0  501 -0.00000000000E+00  0.00000000000E+00  0.71865783741E+02  0.71865783741E+02  0.00000000000E+00 0.  1.
          3   -1    0    0  501    0  0.00000000000E+00 -0.00000000000E+00 -0.32706578093E+03  0.32706578093E+03  0.00000000000E+00 0. -1.
         25    2    1    2    0    0  0.66589403801E+02  0.79164361673E+02 -0.17034374011E+03  0.23529878114E+03  0.12508949497E+03 0.  0.
          5    1    3    3  502    0  0.47149739715E+02  0.61774796612E+02 -0.18803670801E+03  0.20350552673E+03  0.41800000000E+01 0.  1.
         -5    1    3    3    0  502  0.19439664086E+02  0.17389565061E+02  0.17692967896E+02  0.31793254406E+02  0.41800000000E+01 0.  1.
        -11    1    1    2    0    0 -0.46981510577E+02 -0.37747147113E+02 -0.98803148512E+02  0.11573319147E+03  0.00000000000E+00 0. -1.
         11    1    1    2    0    0 -0.19607893223E+02 -0.41417214560E+02  0.13946891442E+02  0.47899592059E+02  0.00000000000E+00 0.  1.
</event>
<event>
 7    1  0.2530765E-009  0.1037513E+03  0.7561462E-02  0.1272600E+00
          1   -1    0    0  501    0  0.00000000000E+00  0.00000000000E+00  0.13348777277E+03  0.13348777277E+03  0.00000000000E+00 0. -1.
         -1   -1    0    0    0  501 -0.00000000000E+00 -0.00000000000E+00 -0.13498648165E+03  0.13498648165E+03  0.00000000000E+00 0.  1.
         25    2    1    2    0    0  0.69042391374E+02 -0.33187706927E+02 -0.17380017485E+02  0.14770905164E+03  0.12509046019E+03 0.  0.
          5    1    3    3  502    0  0.80701117455E+02 -0.23287576735E+02 -0.59292048509E+02  0.10289801264E+03  0.41800000000E+01 0. -1.
         -5    1    3    3    0  502 -0.11658726081E+02 -0.99001301925E+01  0.41912031024E+02  0.44811039000E+02  0.41800000000E+01 0. -1.
        -11    1    1    2    0    0  0.62712563836E+01 -0.16277378848E+02  0.24690090766E+02  0.30230486282E+02  0.00000000000E+00 0. -1.
         11    1    1    2    0    0 -0.75313647758E+02  0.49465085776E+02 -0.88087821602E+01  0.90534716504E+02  0.00000000000E+00 0.  1.
</event>
<event>
 7    1  0.2530765E-009  0.1303053E+03  0.7561462E-02  0.1227003E+00
          1   -1    0    0  501    0  0.00000000000E+00  0.00000000000E+00  0.89416501825E+02  0.89416501825E+02  0.00000000000E+00 0. -1.
         -1   -1    0    0    0  501 -0.00000000000E+00 -0.00000000000E+00 -0.22980815267E+03  0.22980815267E+03  0.00000000000E+00 0.  1.
         25    2    1    2    0    0 -0.12057074733E+02 -0.78101898113E+02 -0.12760576128E+03  0.19538514012E+03  0.12508734201E+03 0.  0.
          5    1    3    3  502    0  0.50291288836E+02 -0.28658789306E+02 -0.90444419727E+02  0.10746257673E+03  0.41800000000E+01 0.  1.
         -5    1    3    3    0  502 -0.62348363569E+02 -0.49443108807E+02 -0.37161341551E+02  0.87922563396E+02  0.41800000000E+01 0.  1.
        -11    1    1    2    0    0  0.14715501586E+02 -0.19958167564E+02  0.78539867897E+00  0.24809096931E+02  0.00000000000E+00 0. -1.
         11    1    1    2    0    0 -0.26584268531E+01  0.98060065678E+02 -0.13571288247E+02  0.99030417442E+02  0.00000000000E+00 0.  1.
</event>
<event>
 7    1  0.2530765E-009  0.1687558E+03  0.7561462E-02  0.1179152E+00
         -2   -1    0    0    0  501 -0.00000000000E+00  0.00000000000E+00  0.14988245799E+04  0.14988245799E+04  0.00000000000E+00 0.  1.
          2   -1    0    0  501    0  0.00000000000E+00 -0.00000000000E+00 -0.21710628890E+02  0.21710628890E+02  0.00000000000E+00 0. -1.
         25    2    1    2    0    0 -0.75611293164E+02  0.11956303199E+03  0.91631018771E+03  0.93556613627E+03  0.12508896422E+03 0.  0.
          5    1    3    3  502    0 -0.90067784225E+02  0.13812049403E+03  0.80037681667E+03  0.81719642540E+03  0.41800000000E+01 0. -1.
         -5    1    3    3    0  502  0.14456491061E+02 -0.18557462041E+02  0.11593337103E+03  0.11836971087E+03  0.41800000000E+01 0. -1.
        -11    1    1    2    0    0  0.59409372104E+02 -0.51232511760E+02  0.42397346184E+03  0.43117019853E+03  0.00000000000E+00 0.  1.
         11    1    1    2    0    0  0.16201921060E+02 -0.68330520231E+02  0.13683030143E+03  0.15379887396E+03  0.00000000000E+00 0. -1.
</event>
<event>
 7    1  0.2530765E-009  0.8415348E+02  0.7561462E-02  0.1317661E+00
          2   -1    0    0  501    0  0.00000000000E+00  0.00000000000E+00  0.19101880423E+03  0.19101880423E+03  0.00000000000E+00 0. -1.
         -2   -1    0    0    0  501 -0.00000000000E+00 -0.00000000000E+00 -0.68598785822E+02  0.68598785822E+02  0.00000000000E+00 0.  1.
         25    2    1    2    0    0  0.56932104202E+02  0.79845038546E+01  0.77198067023E+02  0.15784593137E+03  0.12510307633E+03 0.  0.
          5    1    3    3  502    0  0.32856762458E+02  0.29668523514E+02  0.10558508367E+03  0.11456644544E+03  0.41800000000E+01 0.  1.
         -5    1    3    3    0  502  0.24075341744E+02 -0.21684019660E+02 -0.28387016645E+02  0.43279485934E+02  0.41800000000E+01 0.  1.
        -11    1    1    2    0    0  0.10196022268E+02 -0.20491345051E+02  0.11102026715E+02  0.25438338964E+02  0.00000000000E+00 0.  1.
         11    1    1    2    0    0 -0.67128126470E+02  0.12506841196E+02  0.34119924675E+02  0.76333319722E+02  0.00000000000E+00 0. -1.
</event>
<event>
 7    1  0.2530765E-009  0.1449682E+03  0.7561462E-02  0.1206796E+00
          1   -1    0    0  501    0  0.00000000000E+00  0.00000000000E+00  0.11096490620E+04  0.11096490620E+04  0.00000000000E+00 0. -1.
         -1   -1    0    0    0  501 -0.00000000000E+00 -0.00000000000E+00 -0.20437313264E+02  0.20437313264E+02  0.00000000000E+00 0.  1.
         25    2    1    2    0    0 -0.43164311411E+02 -0.95047763780E+02  0.61684704716E+03  0.63800104584E+03  0.12509124559E+03 0.  0.
          5    1    3    3  502    0 -0.79499136523E+02 -0.37737611145E+02  0.43565954645E+03  0.44447829285E+03  0.41800000000E+01 0. -1.
         -5    1    3    3    0  502  0.36334825112E+02 -0.57310152635E+02  0.18118750071E+03  0.19352275299E+03  0.41800000000E+01 0. -1.
        -11    1    1    2    0    0  0.38296030019E+02 -0.37958849485E+00  0.19494622402E+03  0.19867249498E+03  0.00000000000E+00 0. -1.
         11    1    1    2    0    0  0.48682813918E+01  0.95427352274E+02  0.27741847757E+03  0.29341283445E+03  0.00000000000E+00 0.  1.
</event>
<event>
 7    1  0.2530765E-009  0.1059496E+03  0.7561462E-02  0.1268260E+00
         -1   -1    0    0    0  501 -0.00000000000E+00  0.00000000000E+00  0.57863540993E+02  0.57863540993E+02  0.00000000000E+00 0.  1.
          1   -1    0    0  501    0  0.00000000000E+00 -0.00000000000E+00 -0.31548808687E+03  0.31548808687E+03  0.00000000000E+00 0. -1.
         25    2    1    2    0    0  0.63401851627E+02 -0.80540784888E+01 -0.73874110128E+02  0.15871012921E+03  0.12508740142E+03 0.  0.
          5    1    3    3  502    0  0.58977271988E+01  0.30698058899E+02  0.23333487630E+02  0.39231085267E+02  0.41800000000E+01 0.  1.
         -5    1    3    3    0  502  0.57504124428E+02 -0.38752137388E+02 -0.97207597758E+02  0.11947904394E+03  0.41800000000E+01 0.  1.
        -11    1    1    2    0    0 -0.92541755503E+01 -0.38430361479E+02 -0.62650359637E+02  0.74078336990E+02  0.00000000000E+00 0.  1.
         11    1    1    2    0    0 -0.54147676077E+02  0.46484439968E+02 -0.12110007611E+03  0.14056316166E+03  0.00000000000E+00 0. -1.
</event>
<event>
 7    1  0.2530765E-009  0.1255650E+03  0.7561462E-02  0.1234189E+00
          2   -1    0    0  501    0  0.00000000000E+00  0.00000000000E+00  0.39513931306E+03  0.39513931306E+03  0.00000000000E+00 0. -1.
         -2   -1    0    0    0  501 -0.00000000000E+00 -0.00000000000E+00 -0.56752458931E+02  0.56752458931E+02  0.00000000000E+00 0.  1.
         25    2    1    2    0    0 -0.80745921056E+02  0.50838533291E+02  0.21517655707E+03  0.26655493699E+03  0.12508446541E+03 0.  0.
          5    1    3    3  502    0 -0.12032985195E+02  0.79726933907E+02  0.90903997982E+02  0.12158201336E+03  0.41800000000E+01 0. -1.
         -5    1    3    3    0  502 -0.68712935861E+02 -0.28888400616E+02  0.12427255909E+03  0.14497292364E+03  0.41800000000E+01 0. -1.
        -11    1    1    2    0    0  0.28773553975E+02 -0.13769219032E+02 -0.13359867737E+02  0.34583158720E+02  0.00000000000E+00 0.  1.
         11    1    1    2    0    0  0.51972367080E+02 -0.37069314259E+02  0.13657016479E+03  0.15075367628E+03  0.00000000000E+00 0. -1.
</event>
<event>
 7    1  0.2530765E-009  0.1137285E+03  0.7561462E-02  0.1253817E+00
          1   -1    0    0  501    0  0.00000000000E+00  0.00000000000E+00  0.99341683088E+02  0.99341683088E+02  0.00000000000E+00 0. -1.
         -1   -1    0    0    0  501 -0.00000000000E+00 -0.00000000000E+00 -0.15609818918E+03  0.15609818918E+03  0.00000000000E+00 0.  1.
         25    2    1    2    0    0  0.10588104413E+02 -0.58860562978E+02 -0.28944963518E+02  0.14164175311E+03  0.12509157238E+03 0.  0.
          5    1    3    3  502    0  0.48294095780E+02 -0.63355852779E+02 -0.53660352688E+02  0.96141508305E+02  0.41800000000E+01 0.  1.
         -5    1    3    3    0  502 -0.37705991367E+02  0.44952898009E+01  0.24715389170E+02  0.45500244804E+02  0.41800000000E+01 0.  1.
        -11    1    1    2    0    0 -0.50937668430E+02  0.40851093002E+02 -0.23527570682E+02  0.69404642833E+02  0.00000000000E+00 0.  1.
         11    1    1    2    0    0  0.40349564017E+02  0.18009469976E+02 -0.42839718921E+01  0.44393476327E+02  0.00000000000E+00 0. -1.
</event>
<event>
 7    1  0.2530765E-009  0.2339132E+03  0.7561462E-02  0.1123915E+00
          1   -1    0    0  501    0  0.00000000000E+00  0.00000000000E+00  0.14089921657E+03  0.14089921657E+03  0.00000000000E+00 0. -1.
         -1   -1    0    0    0  501 -0.00000000000E+00 -0.00000000000E+00 -0.41913302587E+03  0.41913302587E+03  0.00000000000E+00 0.  1.
         25    2    1    2    0    0  0.16695216204E+03 -0.13633366727E+03 -0.17448964299E+03  0.30422426388E+03  0.12508346806E+03 0.  0.
          5    1    3    3  502    0  0.79181489276E+01 -0.57599286795E+02 -0.90988284622E+02  0.10805885091E+03  0.41800000000E+01 0. -1.
         -5    1    3    3    0  502  0.15903401312E+03 -0.78734380475E+02 -0.83501358370E+02  0.19616541297E+03  0.41800000000E+01 0. -1.
        -11    1    1    2    0    0 -0.54356278285E+02  0.99821419590E+02 -0.35011749700E+02  0.11893167541E+03  0.00000000000E+00 0.  1.
         11    1    1    2    0    0 -0.11259588376E+03  0.36512247680E+02 -0.68732416607E+02  0.13687630314E+03  0.00000000000E+00 0. -1.
</event>
<event>
 7    1  0.2530765E-009  0.6931405E+02  0.7561462E-02  0.1362441E+00
          4   -1    0    0  501    0  0.00000000000E+00  0.00000000000E+00  0.16536612616E+03  0.16536612616E+03  0.00000000000E+00 0.  1.
         -4   -1    0    0    0  501 -0.00000000000E+00 -0.00000000000E+00 -0.69436698188E+02  0.69436698188E+02  0.00000000000E+00 0. -1.
         25    2    1    2    0    0 -0.13459364774E+02 -0.44408089532E+01  0.59343291820E+02  0.13917606354E+03  0.12508986807E+03 0.  0.
          5    1    3    3  502    0  0.36157266280E+02 -0.26979467311E+01 -0.22850415440E+02  0.43060895336E+02  0.41800000000E+01 0. -1.
         -5    1    3    3    0  502 -0.49616631053E+02 -0.17428622220E+01  0.82193707260E+02  0.96115168204E+02  0.41800000000E+01 0. -1.
        -11    1    1    2    0    0 -0.37836274854E+01 -0.21129932531E+02  0.55459556001E+02  0.59468918247E+02  0.00000000000E+00 0.  1.
         11    1    1    2    0    0  0.17242992259E+02  0.25570741484E+02 -0.18873419847E+02  0.36157842563E+02  0.00000000000E+00 0. -1.
</event>
<event>
 7    1  0.2929510E-009  0.1407759E+03  0.7561462E-02  0.1212289E+00
         -2   -1    0    0    0  501 -0.00000000000E+00  0.00000000000E+00  0.37415030174E+02  0.37415030174E+02  0.00000000000E+00 0. -1.
          2   -1    0    0  501    0  0.00000000000E+00 -0.00000000000E+00 -0.67036981967E+03  0.67036981967E+03  0.00000000000E+00 0.  1.
         25    2    1    2    0    0 -0.74267743577E+02  0.64075777959E+02 -0.20542064025E+03  0.25973798347E+03  0.12507908523E+03 0.  0.
          5    1    3    3  502    0 -0.89054423763E+01  0.82190605377E+02 -0.15283880681E+03  0.17381534968E+03  0.41800000000E+01 0. -1.
         -5    1    3    3    0  502 -0.65362301201E+02 -0.18114827418E+02 -0.52581833434E+02  0.85922633793E+02  0.41800000000E+01 0. -1.
        -11    1    1    2    0    0  0.78360977111E+02 -0.12822333766E+02 -0.30491186376E+03  0.31508110009E+03  0.00000000000E+00 0. -1.
         11    1    1    2    0    0 -0.40932335336E+01 -0.51253444193E+02 -0.12262228550E+03  0.13296576628E+03  0.00000000000E+00 0.  1.
</event>
<event>
 7    1  0.2530765E-009  0.1963775E+03  0.7561462E-02  0.1152832E+00
         -2   -1    0    0    0  501 -0.00000000000E+00  0.00000000000E+00  0.69829930475E+02  0.69829930475E+02  0.00000000000E+00 0.  1.
          2   -1    0    0  501    0  0.00000000000E+00 -0.00000000000E+00 -0.65495886212E+03  0.65495886212E+03  0.00000000000E+00 0. -1.
         25    2    1    2    0    0 -0.12769683824E+03 -0.13046102788E+03 -0.33811689862E+03  0.40409941119E+03  0.12508690859E+03 0.  0.
          5    1    3    3  502    0 -0.18473434673E+02 -0.49113557511E+02 -0.21200266911E+03  0.21843995383E+03  0.41800000000E+01 0.  1.
         -5    1    3    3    0  502 -0.10922340357E+03 -0.81347470368E+02 -0.12611422950E+03  0.18565945736E+03  0.41800000000E+01 0.  1.
        -11    1    1    2    0    0  0.74804439173E+02  0.14205113158E+02 -0.10483621089E+03  0.12956897960E+03  0.00000000000E+00 0.  1.
         11    1    1    2    0    0  0.52892399069E+02  0.11625591472E+03 -0.14217582213E+03  0.19112040180E+03  0.00000000000E+00 0. -1.
</event>
<event>
 7    1  0.2530765E-009  0.2150340E+03  0.7561462E-02  0.1137640E+00
          2   -1    0    0  501    0  0.00000000000E+00  0.00000000000E+00  0.11086254385E+03  0.11086254385E+03  0.00000000000E+00 0. -1.
         -2   -1    0    0    0  501 -0.00000000000E+00 -0.00000000000E+00 -0.42909712558E+03  0.42909712558E+03  0.00000000000E+00 0.  1.
         25    2    1    2    0    0  0.17107379784E+03 -0.71793668415E+02 -0.20879310382E+03  0.30604569878E+03  0.12509530130E+03 0.  0.
          5    1    3    3  502    0  0.12705930182E+03 -0.10779102556E+03 -0.15212094169E+03  0.22565731690E+03  0.41800000000E+01 0.  1.
         -5    1    3    3    0  502  0.44014496020E+02  0.35997357143E+02 -0.56672162133E+02  0.80388381885E+02  0.41800000000E+01 0.  1.
        -11    1    1    2    0    0 -0.18216693433E+03  0.65249764195E+02 -0.10577093859E+03  0.22052168860E+03  0.00000000000E+00 0.  1.
         11    1    1    2    0    0  0.11093136491E+02  0.65439042202E+01 -0.36705393140E+01  0.13392282050E+02  0.00000000000E+00 0. -1.
</event>
<event>
 7    1  0.2530765E-009  0.9133144E+02  0.7561462E-02  0.1299659E+00
          2   -1    0    0  501    0  0.00000000000E+00  0.00000000000E+00  0.30474624867E+03  0.30474624867E+03  0.00000000000E+00 0. -1.
         -2   -1    0    0    0  501 -0.00000000000E+00 -0.00000000000E+00 -0.11479228142E+03  0.11479228142E+03  0.00000000000E+00 0.  1.
         25    2    1    2    0    0  0.16649434794E+02 -0.65120182532E+01  0.26857312612E+03  0.29681539978E+03  0.12509295510E+03 0.  0.
          5    1    3    3  502    0 -0.46381818339E+02  0.27686593111E+02  0.12655109002E+03  0.13766071079E+03  0.41800000000E+01 0.  1.
         -5    1    3    3    0  502  0.63031253133E+02 -0.34198611364E+02  0.14202203610E+03  0.15915468899E+03  0.41800000000E+01 0.  1.
        -11    1    1    2    0    0 -0.32978651043E+02 -0.89415736700E+01  0.64156892253E+01  0.34766423925E+02  0.00000000000E+00 0. -1.
         11    1    1    2    0    0  0.16329216249E+02  0.15453591923E+02 -0.85034848096E+02  0.87956706381E+02  0.00000000000E+00 0.  1.
</event>
<event>
 7    1  0.2530765E-009  0.1088555E+03  0.7561462E-02  0.1262704E+00
         -2   -1    0    0    0  501 -0.00000000000E+00  0.00000000000E+00  0.50054395707E+02  0.50054395707E+02  0.00000000000E+00 0.  1.
          2   -1    0    0  501    0  0.00000000000E+00 -0.00000000000E+00 -0.26003350719E+03  0.26003350719E+03  0.00000000000E+00 0. -1.
         25    2    1    2    0    0  0.26790791942E+01  0.26025180898E+02 -0.16072125973E+03  0.20533747606E+03  0.12509064009E+03 0.  0.
          5    1    3    3  502    0  0.55593546526E+02  0.43857129115E+02 -0.10156288056E+03  0.12388131941E+03  0.41800000000E+01 0.  1.
         -5    1    3    3    0  502 -0.52914467332E+02 -0.17831948216E+02 -0.59158379167E+02  0.81456156649E+02  0.41800000000E+01 0.  1.
        -11    1    1    2    0    0 -0.44042078607E+02 -0.21980867844E+02 -0.36490473297E+02  0.61273304796E+02  0.00000000000E+00 0. -1.
         11    1    1    2    0    0  0.41362999412E+02 -0.40443130543E+01 -0.12767378451E+02  0.43477122041E+02  0.00000000000E+00 0.  1.
</event>
<event>
 7    1  0.2530765E-009  0.1274491E+03  0.7561462E-02  0.1231291E+00
         -2   -1    0    0    0  501 -0.00000000000E+00  0.00000000000E+00  0.29716886515E+02  0.29716886515E+02  0.00000000000E+00 0.  1.
          2   -1    0    0  501    0  0.00000000000E+00 -0.00000000000E+00 -0.84899350080E+03  0.84899350080E+03  0.00000000000E+00 0. -1.
         25    2    1    2    0    0  0.37497389759E+02 -0.89070104982E+02 -0.61944580949E+03  0.63929655673E+03  0.12508972265E+03 0.  0.
          5    1    3    3  502    0  0.57248592921E+02 -0.39936432590E+02 -0.13583738593E+03  0.15277954005E+03  0.41800000000E+01 0.  1.
         -5    1    3    3    0  502 -0.19751203163E+02 -0.49133672392E+02 -0.48360842355E+03  0.48651701668E+03  0.41800000000E+01 0.  1.
        -11    1    1    2    0    0 -0.21635093960E+02 -0.15162227570E+02 -0.39069919246E+02  0.47163852954E+02  0.00000000000E+00 0. -1.
         11    1    1    2    0    0 -0.15862295799E+02  0.10423233255E+03 -0.16076088556E+03  0.19224997764E+03  0.00000000000E+00 0.  1.
</event>
<event>
 7    1  0.2530765E-009  0.9963455E+02  0.7561462E-02  0.1281066E+00
         -1   -1    0    0    0  501 -0.00000000000E+00  0.00000000000E+00  0.10842393313E+03  0.10842393313E+03  0.00000000000E+00 0.  1.
          1   -1    0    0  501    0  0.00000000000E+00 -0.00000000000E+00 -0.19316426279E+03  0.19316426279E+03  0.00000000000E+00 0. -1.
         25    2    1    2    0    0 -0.47140501914E+02 -0.44657337010E+02  0.13170165333E+02  0.14155791617E+03  0.12509470694E+03 0.  0.
          5    1    3    3  502    0 -0.33019461752E+02  0.23627245068E+02 -0.37367941478E+02  0.55338657503E+02  0.41800000000E+01 0. -1.
         -5    1    3    3    0  502 -0.14121040162E+02 -0.68284582078E+02  0.50538106811E+02  0.86219258666E+02  0.41800000000E+01 0. -1.
        -11    1    1    2    0    0 -0.66009641450E-01 -0.13608540880E+02  0.17640119371E+02  0.22279375071E+02  0.00000000000E+00 0.  1.
         11    1    1    2    0    0  0.47206511556E+02  0.58265877889E+02 -0.11555061436E+03  0.13775090467E+03  0.00000000000E+00 0. -1.
</event>
<event>
 7    1  0.2530765E-009  0.8504769E+02  0.7561462E-02  0.1315308E+00
         -1   -1    0    0    0  501 -0.00000000000E+00  0.00000000000E+00  0.94855926405E+02  0.94855926405E+02  0.00000000000E+00 0.  1.
          1   -1    0    0  501    0  0.00000000000E+00 -0.00000000000E+00 -0.15366791370E+03  0.15366791370E+03  0.00000000000E+00 0. -1.
         25    2    1    2    0    0 -0.51205972675E+02 -0.22777311331E+02 -0.57273045532E+02  0.14855533774E+03  0.12509048357E+03 0.  0.
          5    1    3    3  502    0 -0.12643491738E+02  0.38780926809E+02 -0.63437105963E+02  0.75535137389E+02  0.41800000000E+01 0.  1.
         -5    1    3    3    0  502 -0.38562480937E+02 -0.61558238139E+02  0.61640604303E+01  0.73020200354E+02  0.41800000000E+01 0.  1.
        -11    1    1    2    0    0  0.31595272762E+02  0.17051065656E+02 -0.41629402268E+02  0.54972786305E+02  0.00000000000E+00 0. -1.
         11    1    1    2    0    0  0.19610699912E+02  0.57262456747E+01  0.40090460501E+02  0.44995716060E+02  0.00000000000E+00 0.  1.
</event>
<event>
 7    1  0.2530765E-009  0.1219161E+03  0.7561462E-02  0.1239969E+00
          2   -1    0    0  501    0  0.00000000000E+00  0.00000000000E+00  0.19036154135E+03  0.19036154135E+03  0.00000000000E+00 0. -1.
         -2   -1    0    0    0  501 -0.00000000000E+00 -0.00000000000E+00 -0.10282050871E+03  0.10282050871E+03  0.00000000000E+00 0.  1.
         25    2    1    2    0    0 -0.80732446918E+02  0.33926755238E+02  0.38824389738E+02  0.15755665366E+03  0.12509201880E+03 0.  0.
          5    1    3    3  502    0 -0.20263140794E+02  0.67170484927E+02  0.51680491170E+02  0.87239982163E+02  0.41800000000E+01 0.  1.
         -5    1    3    3    0  502 -0.60469306124E+02 -0.33243729689E+02 -0.12856101432E+02  0.70316671499E+02  0.41800000000E+01 0.  1.
        -11    1    1    2    0    0  0.60806835584E+01 -0.28968600717E+02  0.52979756943E+02  0.60687800963E+02  0.00000000000E+00 0. -1.
         11    1    1    2    0    0  0.74651763360E+02 -0.49581545217E+01 -0.42631140405E+01  0.74937595440E+02  0.00000000000E+00 0.  1.
</event>
<event>
 7    1  0.2530765E-009  0.1808934E+03  0.7561462E-02  0.1166941E+00
         -1   -1    0    0    0  501 -0.00000000000E+00  0.00000000000E+00  0.53141822097E+02  0.53141822097E+02  0.00000000000E+00 0.  1.
          1   -1    0    0  501    0  0.00000000000E+00 -0.00000000000E+00 -0.92697787843E+03  0.92697787843E+03  0.00000000000E+00 0. -1.
         25    2    1    2    0    0  0.16166249665E+02  0.17067017833E+03 -0.63469498025E+03  0.66923461261E+03  0.12509033283E+03 0.  0.
          5    1    3    3  502    0  0.24383449332E+02  0.16343855289E+03 -0.63628861443E+03  0.65740960323E+03  0.41800000000E+01 0. -1.
         -5    1    3    3    0  502 -0.82171996677E+01  0.72316254441E+01  0.15936341806E+01  0.11825009380E+02  0.41800000000E+01 0. -1.
        -11    1    1    2    0    0 -0.43205808236E+02 -0.11582004916E+03 -0.20872822914E+03  0.24258709631E+03  0.00000000000E+00 0.  1.
         11    1    1    2    0    0  0.27039558571E+02 -0.54850129177E+02 -0.30412846938E+02  0.68297991606E+02  0.00000000000E+00 0. -1.
</event>
<event>
 7    1  0.2530765E-009  0.1089987E+03  0.7561462E-02  0.1262435E+00
         -3   -1    0    0    0  501 -0.00000000000E+00  0.00000000000E+00  0.54772403127E+03  0.54772403127E+03  0.00000000000E+00 0.  1.
          3   -1    0    0  501    0  0.00000000000E+00 -0.00000000000E+00 -0.27895384182E+02  0.27895384182E+02  0.00000000000E+00 0. -1.
         25    2    1    2    0    0 -0.43692447259E+02  0.35763518299E+02  0.23401182275E+03  0.27128777381E+03  0.12508982309E+03 0.  0.
          5    1    3    3  502    0  0.72871306542E+01 -0.42410537803E+02  0.62742635823E+02  0.76196238358E+02  0.41800000000E+01 0. -1.
         -5    1    3    3    0  502 -0.50979577913E+02  0.78174056102E+02  0.17126918693E+03  0.19509153545E+03  0.41800000000E+01 0. -1.
        -11    1    1    2    0    0  0.55737346699E+01 -0.42300510618E+02  0.24265415663E+03  0.24637662114E+03  0.00000000000E+00 0.  1.
         11    1    1    2    0    0  0.38118712589E+02  0.65369923189E+01  0.43162667709E+02  0.57955020506E+02  0.00000000000E+00 0. -1.
</event>
<event>
 7    1  0.2530765E-009  0.2042961E+03  0.7561462E-02  0.1146164E+00
          1   -1    0    0  501    0  0.00000000000E+00  0.00000000000E+00  0.12269193553E+04  0.12269193553E+04  0.00000000000E+00 0. -1.
         -1   -1    0    0    0  501 -0.00000000000E+00 -0.00000000000E+00 -0.36172698949E+02  0.36172698949E+02  0.00000000000E+00 0.  1.
         25    2    1    2    0    0 -0.13944632456E+03  0.10619112221E+03  0.49411390408E+03  0.53899640720E+03  0.12508694933E+03 0.  0.
          5    1    3    3  502    0  0.25122165849E+00 -0.21660569084E+02  0.90427145056E+02  0.93079451698E+02  0.41800000000E+01 0. -1.
         -5    1    3    3    0  502 -0.13969754622E+03  0.12785169130E+03  0.40368675903E+03  0.44591695550E+03  0.41800000000E+01 0. -1.
        -11    1    1    2    0    0  0.68152247050E+01 -0.54246325524E+02  0.21488354897E+03  0.22172967943E+03  0.00000000000E+00 0.  1.
         11    1    1    2    0    0  0.13263109986E+03 -0.51944796689E+02  0.48174920334E+03  0.50236596767E+03  0.00000000000E+00 0. -1.
</event>
<event>
 7    1  0.2530765E-009  0.9867507E+02  0.7561462E-02  0.1283107E+00
          2   -1    0    0  501    0  0.00000000000E+00  0.00000000000E+00  0.14868505518E+03  0.14868505518E+03  0.00000000000E+00 0. -1.
         -2   -1    0    0    0  501 -0.00000000000E+00 -0.00000000000E+00 -0.14830564690E+03  0.14830564690E+03  0.00000000000E+00 0.  1.
         25    2    1    2    0    0  0.57877432314E+02 -0.61383863667E+02 -0.55323612532E+02  0.16070681940E+03  0.12509278079E+03 0.  0.
          5    1    3    3  502    0  0.68066245767E+02 -0.48556330289E+02 -0.89516944514E+02  0.12256217516E+03  0.41800000000E+01 0.  1.
         -5    1    3    3    0  502 -0.10188813453E+02 -0.12827533378E+02  0.34193331982E+02  0.38144644240E+02  0.41800000000E+01 0.  1.
        -11    1    1    2    0    0 -0.66237053358E+02  0.52406616157E+02  0.75306612790E+02  0.11315867879E+03  0.00000000000E+00 0. -1.
         11    1    1    2    0    0  0.83596210444E+01  0.89772475099E+01 -0.19603591982E+02  0.23125203901E+02  0.00000000000E+00 0.  1.
</event>
<event>
 7    1  0.2530765E-009  0.9271554E+02  0.7561462E-02  0.1296406E+00
         -2   -1    0    0    0  501 -0.00000000000E+00  0.00000000000E+00  0.10444636624E+02  0.10444636624E+02  0.00000000000E+00 0.  1.
          2   -1    0    0  501    0  0.00000000000E+00 -0.00000000000E+00 -0.94901651848E+03  0.94901651848E+03  0.00000000000E+00 0. -1.
         25    2    1    2    0    0 -0.27114523453E+00  0.95112466171E+01 -0.73482976113E+03  0.74546136570E+03  0.12508929843E+03 0.  0.
          5    1    3    3  502    0 -0.61609156853E+02 -0.56304125281E+01 -0.34685993209E+03  0.35235873005E+03  0.41800000000E+01 0.  1.
         -5    1    3    3    0  502  0.61338011619E+02  0.15141659145E+02 -0.38796982904E+03  0.39310263565E+03  0.41800000000E+01 0.  1.
        -11    1    1    2    0    0 -0.27870417886E+02 -0.14671076665E+02 -0.14833348089E+03  0.15164043734E+03  0.00000000000E+00 0.  1.
         11    1    1    2    0    0  0.28141563120E+02  0.51598300481E+01 -0.55408639834E+02  0.62359352059E+02  0.00000000000E+00 0. -1.
</event>
<event>
 7    1  0.2530765E-009  0.1246628E+03  0.7561462E-02  0.1235597E+00
         -1   -1    0    0    0  501 -0.00000000000E+00  0.00000000000E+00  0.25091078914E+02  0.25091078914E+02  0.00000000000E+00 0.  1.
          1   -1    0    0  501    0  0.00000000000E+00 -0.00000000000E+00 -0.71706361566E+03  0.71706361566E+03  0.00000000000E+00 0. -1.
         25    2    1    2    0    0 -0.76877962905E+02  0.14681781859E+02 -0.37583634741E+03  0.40376690439E+03  0.12509587182E+03 0.  0.
          5    1    3    3  502    0 -0.59932128480E+02  0.58946804382E+02 -0.31760309546E+03  0.32856625574E+03  0.41800000000E+01 0. -1.
         -5    1    3    3    0  502 -0.16945834425E+02 -0.44265022523E+02 -0.58233251956E+02  0.75200648646E+02  0.41800000000E+01 0. -1.
        -11    1    1    2    0    0 -0.18058118654E+02 -0.13647755442E+02 -0.35267256951E+02  0.41906279849E+02  0.00000000000E+00 0.  1.
         11    1    1    2    0    0  0.94936081559E+02 -0.10340264167E+01 -0.28086893238E+03  0.29648151033E+03  0.00000000000E+00 0. -1.
</event>
<event>
 7    1  0.2530765E-009  0.8664354E+02  0.7561462E-02  0.1311190E+00
          3   -1    0    0  501    0  0.00000000000E+00  0.00000000000E+00  0.20631654191E+02  0.20631654191E+02  0.00000000000E+00 0. -1.
         -3   -1    0    0    0  501 -0.00000000000E+00 -0.00000000000E+00 -0.90658443328E+03  0.90658443328E+03  0.00000000000E+00 0.  1.
         25    2    1    2    0    0  0.48838007227E+02 -0.54624817103E+02 -0.59212767203E+03  0.60961258903E+03  0.12507320706E+03 0.  0.
          5    1    3    3  502    0  0.98848619757E+01 -0.14457005136E+02 -0.35317568169E+01  0.18348329624E+02  0.41800000000E+01 0.  1.
         -5    1    3    3    0  502  0.38953145252E+02 -0.40167811967E+02 -0.58859591521E+03  0.59126425940E+03  0.41800000000E+01 0.  1.
        -11    1    1    2    0    0  0.93023657806E+01  0.37392168529E+02 -0.35963440635E+02  0.52707469477E+02  0.00000000000E+00 0. -1.
         11    1    1    2    0    0 -0.58140373008E+02  0.17232648574E+02 -0.25786166643E+03  0.26489602897E+03  0.00000000000E+00 0.  1.
</event>
<event>
 7    1  0.2530765E-009  0.1005286E+03  0.7561462E-02  0.1279188E+00
         -2   -1    0    0    0  501 -0.00000000000E+00  0.00000000000E+00  0.69243737362E+02  0.69243737362E+02  0.00000000000E+00 0. -1.
          2   -1    0    0  501    0  0.00000000000E+00 -0.00000000000E+00 -0.29957939028E+03  0.29957939028E+03  0.00000000000E+00 0.  1.
         25    2    1    2    0    0 -0.35124914063E+02  0.52039829554E+02 -0.34356579551E+02  0.14411825582E+03  0.12509114139E+03 0.  0.
          5    1    3    3  502    0 -0.80594960471E+02  0.41087008429E+02 -0.35181465180E+02  0.97153990176E+02  0.41800000000E+01 0. -1.
         -5    1    3    3    0  502  0.45470046408E+02  0.10952821125E+02  0.82488562966E+00  0.46964265641E+02  0.41800000000E+01 0. -1.
        -11    1    1    2    0    0  0.11032151721E+02 -0.24986136024E+02 -0.20157890770E+01  0.27387565985E+02  0.00000000000E+00 0. -1.
         11    1    1    2    0    0  0.24092762342E+02 -0.27053693530E+02 -0.19396328429E+03  0.19731730583E+03  0.00000000000E+00 0.  1.
</event>
<event>
 7    1  0.2530765E-009  0.1154607E+03  0.7561462E-02  0.1250779E+00
          1   -1    0    0  501    0  0.00000000000E+00  0.00000000000E+00  0.17987520962E+03  0.17987520962E+03  0.00000000000E+00 0. -1.
         -1   -1    0    0    0  501 -0.00000000000E+00 -0.00000000000E+00 -0.12978145670E+03  0.12978145670E+03  0.00000000000E+00 0.  1.
         25    2    1    2    0    0  0.47059528763E+02 -0.40445514278E+02  0.11795053596E+03  0.18278541788E+03  0.12509093165E+03 0.  0.
          5    1    3    3  502    0  0.32370084526E+02  0.42491093796E+02  0.60117633510E+02  0.80528986602E+02  0.41800000000E+01 0.  1.
         -5    1    3    3    0  502  0.14689444237E+02 -0.82936608074E+02  0.57832902452E+02  0.10225643127E+03  0.41800000000E+01 0.  1.
        -11    1    1    2    0    0  0.16441692939E+02  0.20853839431E+02  0.63019659382E+01  0.27293344617E+02  0.00000000000E+00 0. -1.
         11    1    1    2    0    0 -0.63501221701E+02  0.19591674848E+02 -0.74158748974E+02  0.99577903826E+02  0.00000000000E+00 0.  1.
</event>
<event>
 7    1  0.2530765E-009  0.1350898E+03  0.7561462E-02  0.1220093E+00
          1   -1    0    0  501    0  0.00000000000E+00  0.00000000000E+00  0.20693898118E+04  0.20693898118E+04  0.00000000000E+00 0. -1.
         -1   -1    0    0    0  501 -0.00000000000E+00 -0.00000000000E+00 -0.12556070849E+02  0.12556070849E+02  0.00000000000E+00 0.  1.
         25    2    1    2    0    0  0.75405221647E+02 -0.46918382052E+02  0.16238040818E+04  0.16310348938E+04  0.12509135344E+03 0.  0.
          5    1    3    3  502    0  0.42601657895E+02  0.36075711577E+02  0.38956818972E+03  0.39356982235E+03  0.41800000000E+01 0.  1.
         -5    1    3    3    0  502  0.32803563752E+02 -0.82994093629E+02  0.12342358921E+04  0.12374650715E+04  0.41800000000E+01 0.  1.
        -11    1    1    2    0    0 -0.56558710006E+02  0.73208770140E+02  0.29626583108E+03  0.31037373337E+03  0.00000000000E+00 0.  1.
         11    1    1    2    0    0 -0.18846511641E+02 -0.26290388088E+02  0.13676382802E+03  0.14053725542E+03  0.00000000000E+00 0. -1.
</event>
<event>
 7    1  0.2530765E-009  0.1056405E+03  0.7561462E-02  0.1268863E+00
          1   -1    0    0  501    0  0.00000000000E+00  0.00000000000E+00  0.23682295803E+04  0.23682295803E+04  0.00000000000E+00 0. -1.
         -1   -1    0    0    0  501 -0.00000000000E+00 -0.00000000000E+00 -0.24315884718E+02  0.24315884718E+02  0.00000000000E+00 0.  1.
         25    2    1    2    0    0  0.59326895774E+02  0.23341817856E+02  0.22212459418E+04  0.22256785357E+04  0.12508752757E+03 0.  0.
          5    1    3    3  502    0  0.31698877637E+01 -0.28942168320E+02  0.14206032076E+03  0.14507344495E+03  0.41800000000E+01 0. -1.
         -5    1    3    3    0  502  0.56157008010E+02  0.52283986176E+02  0.20791856210E+04  0.20806050908E+04  0.41800000000E+01 0. -1.
        -11    1    1    2    0    0 -0.67546659351E+02  0.12118089091E+02  0.10727214470E+03  0.12734485581E+03  0.00000000000E+00 0. -1.
         11    1    1    2    0    0  0.82197635771E+01 -0.35459906947E+02  0.15395609151E+02  0.39522073517E+02  0.00000000000E+00 0.  1.
</event>
<event>
 7    1  0.2530765E-009  0.1123418E+03  0.7561462E-02  0.1256294E+00
          2   -1    0    0  501    0  0.00000000000E+00  0.00000000000E+00  0.34572438147E+03  0.34572438147E+03  0.00000000000E+00 0. -1.
         -2   -1    0    0    0  501 -0.00000000000E+00 -0.00000000000E+00 -0.59201921998E+02  0.59201921998E+02  0.00000000000E+00 0.  1.
         25    2    1    2    0    0  0.41719147263E+02  0.88976360050E+01  0.27194786901E+03  0.30236272584E+03  0.12509164379E+03 0.  0.
          5    1    3    3  502    0 -0.69820944433E+01  0.55910470831E+02  0.73894168590E+02  0.93019089132E+02  0.41800000000E+01 0. -1.
         -5    1    3    3    0  502  0.48701241706E+02 -0.47012834826E+02  0.19805370042E+03  0.20934363671E+03  0.41800000000E+01 0. -1.
        -11    1    1    2    0    0 -0.51651024532E+02  0.30330864823E+02  0.10844933386E+01  0.59907977949E+02  0.00000000000E+00 0.  1.
         11    1    1    2    0    0  0.99318772694E+01 -0.39228500828E+02  0.13490097126E+02  0.42655599676E+02  0.00000000000E+00 0. -1.
</event>
<event>
 7    1  0.2530765E-009  0.7782840E+02  0.7561462E-02  0.1335330E+00
         -2   -1    0    0    0  501 -0.00000000000E+00  0.00000000000E+00  0.36239017499E+02  0.36239017499E+02  0.00000000000E+00 0.  1.
          2   -1    0    0  501    0  0.00000000000E+00 -0.00000000000E+00 -0.63236357721E+03  0.63236357721E+03  0.00000000000E+00 0. -1.
         25    2    1    2    0    0 -0.28719711314E+02 -0.27635865604E+02 -0.53418203838E+03  0.55007849980E+03  0.12508933980E+03 0.  0.
          5    1    3    3  502    0 -0.31615943839E+02 -0.59814147465E+01 -0.52502038254E+03  0.52602207150E+03  0.41800000000E+01 0. -1.
         -5    1    3    3    0  502  0.28962325245E+01 -0.21654450858E+02 -0.91616558411E+01  0.24056428300E+02  0.41800000000E+01 0. -1.
        -11    1    1    2    0    0  0.30346595384E+02 -0.30372520355E+02 -0.23962017385E+02  0.49168934514E+02  0.00000000000E+00 0.  1.
         11    1    1    2    0    0 -0.16268840701E+01  0.58008385959E+02 -0.37980503950E+02  0.69355160397E+02  0.00000000000E+00 0. -1.
</event>
<event>
 7    1  0.2530765E-009  0.1106007E+03  0.7561462E-02  0.1259462E+00
         -2   -1    0    0    0  501 -0.00000000000E+00  0.00000000000E+00  0.65659196818E+03  0.65659196818E+03  0.00000000000E+00 0. -1.
          2   -1    0    0  501    0  0.00000000000E+00 -0.00000000000E+00 -0.32512005612E+02  0.32512005612E+02  0.00000000000E+00 0.  1.
         25    2    1    2    0    0  0.33633298842E+02 -0.50514082866E+02  0.51784131502E+03  0.53618169259E+03  0.12509319950E+03 0.  0.
          5    1    3    3  502    0 -0.35337087024E+02  0.18199275374E+02  0.19030898042E+03  0.19446054554E+03  0.41800000000E+01 0.  1.
         -5    1    3    3    0  502  0.68970385867E+02 -0.68713358239E+02  0.32753233460E+03  0.34172114704E+03  0.41800000000E+01 0.  1.
        -11    1    1    2    0    0 -0.17065444987E+02 -0.10852026714E+02 -0.83540215441E+01  0.21881169356E+02  0.00000000000E+00 0.  1.
         11    1    1    2    0    0 -0.16567853855E+02  0.61366109580E+02  0.11459266909E+03  0.13104111185E+03  0.00000000000E+00 0. -1.
</event>
<event>
 7    1  0.2530765E-009  0.1109040E+03  0.7561462E-02  0.1258905E+00
          1   -1    0    0  501    0  0.00000000000E+00  0.00000000000E+00  0.57867181286E+03  0.57867181286E+03  0.00000000000E+00 0. -1.
         -1   -1    0    0    0  501 -0.00000000000E+00 -0.00000000000E+00 -0.22409116301E+02  0.22409116301E+02  0.00000000000E+00 0.  1.
         25    2    1    2    0    0 -0.59088783993E+01 -0.34573821425E+02  0.31413944473E+03  0.33994289214E+03  0.12508922899E+03 0.  0.
          5    1    3    3  502    0 -0.26357109694E+02  0.42163247068E+02  0.13574693588E+03  0.14462758947E+03  0.41800000000E+01 0. -1.
         -5    1    3    3    0  502  0.20448231295E+02 -0.76737068493E+02  0.17839250885E+03  0.19531530267E+03  0.41800000000E+01 0. -1.
        -11    1    1    2    0    0 -0.39591174247E+02  0.10750722841E+02  0.66292290632E+02  0.77959649288E+02  0.00000000000E+00 0.  1.
         11    1    1    2    0    0  0.45500052646E+02  0.23823098584E+02  0.17583096120E+03  0.18317838773E+03  0.00000000000E+00 0. -1.
</event>
<event>
 7    1  0.2920957E-009  0.2261623E+03  0.7561462E-02  0.1129370E+00
          2   -1    0    0  501    0  0.00000000000E+00  0.00000000000E+00  0.61264375059E+03  0.61264375059E+03  0.00000000000E+00 0. -1.
         -2   -1    0    0    0  501 -0.00000000000E+00 -0.00000000000E+00 -0.14916618482E+03  0.14916618482E+03  0.00000000000E+00 0.  1.
         25    2    1    2    0    0  0.13991446918E+03 -0.15456259135E+03 -0.24507266844E+01  0.24314404861E+03  0.12508944393E+03 0.  0.
          5    1    3    3  502    0  0.14331139650E+03 -0.72696013366E+02 -0.76919396614E+01  0.16093323169E+03  0.41800000000E+01 0.  1.
         -5    1    3    3    0  502 -0.33969273209E+01 -0.81866577981E+02  0.52412129770E+01  0.82210816922E+02  0.41800000000E+01 0.  1.
        -11    1    1    2    0    0 -0.63888533914E+02  0.86163754474E+02  0.33956882943E+03  0.35610802753E+03  0.00000000000E+00 0. -1.
         11    1    1    2    0    0 -0.76025935261E+02  0.68398836872E+02  0.12635946303E+03  0.16255785928E+03  0.00000000000E+00 0.  1.
</event>
<event>
 7    1  0.2530765E-009  0.9441580E+02  0.7561462E-02  0.1292497E+00
          1   -1    0    0  501    0  0.00000000000E+00  0.00000000000E+00  0.33504641586E+03  0.33504641586E+03  0.00000000000E+00 0. -1.
         -1   -1    0    0    0  501 -0.00000000000E+00 -0.00000000000E+00 -0.39595364026E+02  0.39595364026E+02  0.00000000000E+00 0.  1.
         25    2    1    2    0    0  0.19772715353E+02 -0.36477939972E+02  0.13450017476E+03  0.18830836676E+03  0.12509254017E+03 0.  0.
          5    1    3    3  502    0 -0.14236327758E+02  0.24631506239E+02 -0.77153849107E+01  0.29772196626E+02  0.41800000000E+01 0.  1.
         -5    1    3    3    0  502  0.34009043111E+02 -0.61109446211E+02  0.14221555967E+03  0.15853617014E+03  0.41800000000E+01 0.  1.
        -11    1    1    2    0    0 -0.48239479007E+02  0.38147819006E+02  0.13237351583E+03  0.14596249903E+03  0.00000000000E+00 0. -1.
         11    1    1    2    0    0  0.28466763654E+02 -0.16698790339E+01  0.28577361245E+02  0.40370914092E+02  0.00000000000E+00 0.  1.
</event>
<event>
 7    1  0.2663574E-009  0.7942293E+02  0.7561462E-02  0.1330697E+00
          3   -1    0    0  501    0  0.00000000000E+00  0.00000000000E+00  0.10816300544E+03  0.10816300544E+03  0.00000000000E+00 0. -1.
         -3   -1    0    0    0  501 -0.00000000000E+00 -0.00000000000E+00 -0.13465291856E+03  0.13465291856E+03  0.00000000000E+00 0.  1.
         25    2    1    2    0    0  0.21402479932E+02 -0.32120311647E+02 -0.50747506532E+02  0.14040211848E+03  0.12509062669E+03 0.  0.
          5    1    3    3  502    0  0.56654356256E+02 -0.16888744181E+02  0.17660628932E+02  0.61841054140E+02  0.41800000000E+01 0. -1.
         -5    1    3    3    0  502 -0.35251876324E+02 -0.15231567466E+02 -0.68408135464E+02  0.78561064335E+02  0.41800000000E+01 0. -1.
        -11    1    1    2    0    0  0.97603021706E+01  0.27833704468E+02  0.52448813056E+02  0.60173553940E+02  0.00000000000E+00 0. -1.
         11    1    1    2    0    0 -0.31162782103E+02  0.42866071797E+01 -0.28191219637E+02  0.42240251587E+02  0.00000000000E+00 0.  1.
</event>
<event>
 7    1  0.2530765E-009  0.1178522E+03  0.7561462E-02  0.1246683E+00
         -2   -1    0    0    0  501 -0.00000000000E+00  0.00000000000E+00  0.14006250566E+02  0.14006250566E+02  0.00000000000E+00 0.  1.
          2   -1    0    0  501    0  0.00000000000E+00 -0.00000000000E+00 -0.22391174095E+04  0.22391174095E+04  0.00000000000E+00 0. -1.
         25    2    1    2    0    0 -0.22367031114E+02 -0.94099011075E+02 -0.17712757833E+04  0.17783197478E+04  0.12509323425E+03 0.  0.
          5    1    3    3  502    0  0.66902182036E+01 -0.10666256586E+03 -0.88053231559E+03  0.88700411114E+03  0.41800000000E+01 0. -1.
         -5    1    3    3    0  502 -0.29057249317E+02  0.12563554789E+02 -0.89074346766E+03  0.89131563670E+03  0.41800000000E+01 0. -1.
        -11    1    1    2    0    0  0.28603139059E+01  0.19626812495E+02 -0.64696983396E+01  0.20862649903E+02  0.00000000000E+00 0.  1.
         11    1    1    2    0    0  0.19506717208E+02  0.74472198580E+02 -0.44736567736E+03  0.45394126235E+03  0.00000000000E+00 0. -1.
</event>
<event>
 7    1  0.2530765E-009  0.1221677E+03  0.7561462E-02  0.1239563E+00
         -1   -1    0    0    0  501 -0.00000000000E+00  0.00000000000E+00  0.15301507449E+02  0.15301507449E+02  0.00000000000E+00 0.  1.
          1   -1    0    0  501    0  0.00000000000E+00 -0.00000000000E+00 -0.11674796376E+04  0.11674796376E+04  0.00000000000E+00 0. -1.
         25    2    1    2    0    0  0.65547272948E+02 -0.40601520363E+02 -0.69024499708E+03  0.70571274314E+03  0.12508953345E+03 0.  0.
          5    1    3    3  502    0  0.30890997143E+02  0.32022571860E+02 -0.94398516385E+02  0.10444257326E+03  0.41800000000E+01 0. -1.
         -5    1    3    3    0  502  0.34656275805E+02 -0.72624092223E+02 -0.59584648070E+03  0.60127016988E+03  0.41800000000E+01 0. -1.
        -11    1    1    2    0    0 -0.79917245807E+02  0.43081717461E+01 -0.32139478439E+03  0.33120980353E+03  0.00000000000E+00 0.  1.
         11    1    1    2    0    0  0.14369972859E+02  0.36293348617E+02 -0.14053834869E+03  0.14585859840E+03  0.00000000000E+00 0. -1.
</event>
<event>
 7    1  0.2530765E-009  0.1072671E+03  0.7561462E-02  0.1265716E+00
         -2   -1    0    0    0  501 -0.00000000000E+00  0.00000000000E+00  0.45967426254E+03  0.45967426254E+03  0.00000000000E+00 0.  1.
          2   -1    0    0  501    0  0.00000000000E+00 -0.00000000000E+00 -0.40465864560E+02  0.40465864560E+02  0.00000000000E+00 0. -1.
         25    2    1    2    0    0  0.29326495659E+02  0.48721898231E+00  0.87044950010E+02  0.15519131155E+03  0.12508892488E+03 0.  0.
          5    1    3    3  502    0 -0.19753354383E+02 -0.50185518835E+02  0.19692902050E+02  0.57567908606E+02  0.41800000000E+01 0.  1.
         -5    1    3    3    0  502  0.49079850042E+02  0.50672737817E+02  0.67352047960E+02  0.97623402945E+02  0.41800000000E+01 0.  1.
        -11    1    1    2    0    0 -0.39226010777E+02 -0.35793975678E+02  0.23901370153E+03  0.24484165931E+03  0.00000000000E+00 0.  1.
         11    1    1    2    0    0  0.98995151179E+01  0.35306756696E+02  0.93149746443E+02  0.10010715624E+03  0.00000000000E+00 0. -1.
</event>
<event>
 7    1  0.2530765E-009  0.1088247E+03  0.7561462E-02  0.1262762E+00
         -2   -1    0    0    0  501 -0.00000000000E+00  0.00000000000E+00  0.37122498337E+03  0.37122498337E+03  0.00000000000E+00 0.  1.
          2   -1    0    0  501    0  0.00000000000E+00 -0.00000000000E+00 -0.51769305313E+02  0.51769305313E+02  0.00000000000E+00 0. -1.
         25    2    1    2    0    0 -0.66982342726E+02 -0.24429501732E+02  0.10638653006E+03  0.17902375936E+03  0.12509187761E+03 0.  0.
          5    1    3    3  502    0  0.18577488953E+02 -0.43671137286E+02  0.10065633130E+02  0.48693743931E+02  0.41800000000E+01 0.  1.
         -5    1    3    3    0  502 -0.85559831679E+02  0.19241635555E+02  0.96320896930E+02  0.13033001543E+03  0.41800000000E+01 0.  1.
        -11    1    1    2    0    0  0.32477071012E+02  0.33371208256E+02  0.20102163151E+03  0.20634460016E+03  0.00000000000E+00 0.  1.
         11    1    1    2    0    0  0.34505271713E+02 -0.89417065242E+01  0.12047516484E+02  0.37625929158E+02  0.00000000000E+00 0. -1.
</event>
<event>
 7    1  0.2530765E-009  0.1317020E+03  0.7561462E-02  0.1224952E+00
         -2   -1    0    0    0  501 -0.00000000000E+00  0.00000000000E+00  0.10782372284E+02  0.10782372284E+02  0.00000000000E+00 0.  1.
          2   -1    0    0  501    0  0.00000000000E+00 -0.00000000000E+00 -0.17802411502E+04  0.17802411502E+04  0.00000000000E+00 0. -1.
         25    2    1    2    0    0  0.10952484402E+02  0.74037613691E+02 -0.12306317773E+04  0.12392350688E+04  0.12508980458E+03 0.  0.
          5    1    3    3  502    0 -0.50131227424E+02  0.21771065752E+01 -0.50010072663E+03  0.50262917636E+03  0.41800000000E+01 0. -1.
         -5    1    3    3    0  502  0.61083711826E+02  0.71860507116E+02 -0.73053105066E+03  0.73660589239E+03  0.41800000000E+01 0. -1.
        -11    1    1    2    0    0 -0.37353111843E+02  0.27416701741E+01 -0.15389412510E+03  0.15838615300E+03  0.00000000000E+00 0. -1.
         11    1    1    2    0    0  0.26400627440E+02 -0.76779283865E+02 -0.38493287548E+03  0.39340230069E+03  0.00000000000E+00 0.  1.
</event>
<event>
 7    1  0.3291787E-009  0.1379191E+03  0.7561462E-02  0.1216157E+00
          3   -1    0    0  501    0  0.00000000000E+00  0.00000000000E+00  0.36220243491E+03  0.36220243491E+03  0.00000000000E+00 0. -1.
         -3   -1    0    0    0  501 -0.00000000000E+00 -0.00000000000E+00 -0.67994799456E+02  0.67994799456E+02  0.00000000000E+00 0.  1.
         25    2    1    2    0    0  0.15037756581E+02 -0.10662832544E+03  0.20454434660E+03  0.26283398838E+03  0.12509029464E+03 0.  0.
          5    1    3    3  502    0  0.88708745584E+01 -0.13504072583E+03  0.16192328799E+03  0.21107182105E+03  0.41800000000E+01 0.  1.
         -5    1    3    3    0  502  0.61668820230E+01  0.28412400389E+02  0.42621058609E+02  0.51762167330E+02  0.41800000000E+01 0.  1.
        -11    1    1    2    0    0  0.77471354674E+01  0.37179598945E+02  0.86194146804E+02  0.94190082434E+02  0.00000000000E+00 0. -1.
         11    1    1    2    0    0 -0.22784892049E+02  0.69448726496E+02  0.34691420524E+01  0.73173163552E+02  0.00000000000E+00 0.  1.
</event>
<event>
 7    1  0.2530765E-009  0.1103516E+03  0.7561462E-02  0.1259920E+00
          1   -1    0    0  501    0  0.00000000000E+00  0.00000000000E+00  0.93074411169E+03  0.93074411169E+03  0.00000000000E+00 0. -1.
         -1   -1    0    0    0  501 -0.00000000000E+00 -0.00000000000E+00 -0.20832384947E+02  0.20832384947E+02  0.00000000000E+00 0.  1.
         25    2    1    2    0    0  0.30646107526E+02  0.72343115232E+02  0.62778379400E+03  0.64492893153E+03  0.12509246375E+03 0.  0.
          5    1    3    3  502    0 -0.80255783483E+01 -0.30587223798E+02  0.78516914121E+02  0.84748842886E+02  0.41800000000E+01 0. -1.
         -5    1    3    3    0  502  0.38671685874E+02  0.10293033903E+03  0.54926687988E+03  0.56018008864E+03  0.41800000000E+01 0. -1.
        -11    1    1    2    0    0 -0.14436685100E+02 -0.41301975732E+02  0.26325713539E+03  0.26686811426E+03  0.00000000000E+00 0. -1.
         11    1    1    2    0    0 -0.16209422426E+02 -0.31041139501E+02  0.18870797355E+02  0.39779450847E+02  0.00000000000E+00 0.  1.
</event>
<event>
 7    1  0.2530765E-009  0.1356299E+03  0.7561462E-02  0.1219333E+00
         -2   -1    0    0    0  501 -0.00000000000E+00  0.00000000000E+00  0.48924988192E+02  0.48924988192E+02  0.00000000000E+00 0.  1.
          2   -1    0    0  501    0  0.00000000000E+00 -0.00000000000E+00 -0.38881051572E+03  0.38881051572E+03  0.00000000000E+00 0. -1.
         25    2    1    2    0    0 -0.14868949598E+01 -0.88956271909E+02 -0.19689884933E+03  0.24966350379E+03  0.12508908461E+03 0.  0.
          5    1    3    3  502    0 -0.57040013713E+02 -0.77463626053E+02 -0.13156189618E+03  0.16303429533E+03  0.41800000000E+01 0. -1.
         -5    1    3    3    0  502  0.55553118753E+02 -0.11492645855E+02 -0.65336953149E+02  0.86629208462E+02  0.41800000000E+01 0. -1.
        -11    1    1    2    0    0  0.25386312804E+02  0.90640478731E+02 -0.13092111295E+03  0.16124670254E+03  0.00000000000E+00 0. -1.
         11    1    1    2    0    0 -0.23899417845E+02 -0.16842068220E+01 -0.12065565243E+02  0.26825297586E+02  0.00000000000E+00 0.  1.
</event>
<event>
 7    1  0.2530765E-009  0.1322743E+03  0.7561462E-02  0.1224120E+00
         -1   -1    0    0    0  501 -0.00000000000E+00  0.00000000000E+00  0.69064577580E+02  0.69064577580E+02  0.00000000000E+00 0.  1.
          1   -1    0    0  501    0  0.00000000000E+00 -0.00000000000E+00 -0.29960049889E+03  0.29960049889E+03  0.00000000000E+00 0. -1.
         25    2    1    2    0    0  0.59656678601E+02  0.53878324744E+02 -0.61436053904E+02  0.16087710520E+03  0.12508101806E+03 0.  0.
          5    1    3    3  502    0  0.77079348165E+02  0.81188857569E+02 -0.31016530016E+02  0.11624265156E+03  0.41800000000E+01 0.  1.
         -5    1    3    3    0  502 -0.17422669564E+02 -0.27310532825E+02 -0.30419523888E+02  0.44634453638E+02  0.41800000000E+01 0.  1.
        -11    1    1    2    0    0 -0.19591268962E+02 -0.72913582795E+02 -0.11839286696E+03  0.14041751786E+03  0.00000000000E+00 0.  1.
         11    1    1    2    0    0 -0.40065409640E+02  0.19035258051E+02 -0.50707000443E+02  0.67370453410E+02  0.00000000000E+00 0. -1.
</event>
<event>
 7    1  0.2530765E-009  0.1204834E+03  0.7561462E-02  0.1242302E+00
         -2   -1    0    0    0  501 -0.00000000000E+00  0.00000000000E+00  0.77752473831E+02  0.77752473831E+02  0.00000000000E+00 0.  1.
          2   -1    0    0  501    0  0.00000000000E+00 -0.00000000000E+00 -0.23324874545E+03  0.23324874545E+03  0.00000000000E+00 0. -1.
         25    2    1    2    0    0 -0.58116378758E+02 -0.17358544859E+02 -0.24631717182E+02  0.14118615454E+03  0.12509187097E+03 0.  0.
          5    1    3    3  502    0 -0.42907766997E+02  0.50059215609E+02  0.41716339989E+01  0.66195743566E+02  0.41800000000E+01 0. -1.
         -5    1    3    3    0  502 -0.15208611761E+02 -0.67417760468E+02 -0.28803351181E+02  0.74990410970E+02  0.41800000000E+01 0. -1.
        -11    1    1    2    0    0  0.66929504103E+02 -0.17931927525E+02 -0.67388662166E+02  0.96655803410E+02  0.00000000000E+00 0. -1.
         11    1    1    2    0    0 -0.88131253452E+01  0.35290472385E+02 -0.63475892270E+02  0.73159261334E+02  0.00000000000E+00 0.  1.
</event>
<event>
 7    1  0.2530765E-009  0.1232153E+03  0.7561462E-02  0.1237885E+00
         -3   -1    0    0    0  501 -0.00000000000E+00  0.00000000000E+00  0.57682201490E+03  0.57682201490E+03  0.00000000000E+00 0.  1.
          3   -1    0    0  501    0  0.00000000000E+00 -0.00000000000E+00 -0.37865393870E+02  0.37865393870E+02  0.00000000000E+00 0. -1.
         25    2    1    2    0    0 -0.36071848616E+02  0.67611038559E+02  0.42164527118E+03  0.44643599770E+03  0.12509170449E+03 0.  0.
          5    1    3    3  502    0 -0.68656640450E+02  0.19585730783E+02  0.12390874416E+03  0.14306706262E+03  0.41800000000E+01 0.  1.
         -5    1    3    3    0  502  0.32584791834E+02  0.48025307776E+02  0.29773652702E+03  0.30336893508E+03  0.41800000000E+01 0.  1.
        -11    1    1    2    0    0 -0.29315991380E+02 -0.15819819314E+02  0.54335543835E+02  0.63734177311E+02  0.00000000000E+00 0. -1.
         11    1    1    2    0    0  0.65387839996E+02 -0.51791219245E+02  0.62975806015E+02  0.10451723376E+03  0.00000000000E+00 0.  1.
</event>
<event>
 7    1  0.2530765E-009  0.1058008E+03  0.7561462E-02  0.1268550E+00
          1   -1    0    0  501    0  0.00000000000E+00  0.00000000000E+00  0.26086265405E+03  0.26086265405E+03  0.00000000000E+00 0. -1.
         -1   -1    0    0    0  501 -0.00000000000E+00 -0.00000000000E+00 -0.61031161990E+02  0.61031161990E+02  0.00000000000E+00 0.  1.
         25    2    1    2    0    0  0.40574985316E+01  0.45147853480E+02  0.53554607073E+02  0.14342605402E+03  0.12509254600E+03 0.  0.
          5    1    3    3  502    0  0.54102482922E+02 -0.96905442698E+01  0.66792075800E+01  0.55525395275E+02  0.41800000000E+01 0. -1.
         -5    1    3    3    0  502 -0.50044984390E+02  0.54838397750E+02  0.46875399493E+02  0.87900658746E+02  0.41800000000E+01 0. -1.
        -11    1    1    2    0    0 -0.88108129104E+01  0.17341133360E+02  0.13075525064E+00  0.19451540486E+02  0.00000000000E+00 0.  1.
         11    1    1    2    0    0  0.47533143788E+01 -0.62488986840E+02  0.14614612974E+03  0.15901622154E+03  0.00000000000E+00 0. -1.
</event>
<event>
 7    1  0.2530765E-009  0.1125579E+03  0.7561462E-02  0.1255905E+00
         -2   -1    0    0    0  501 -0.00000000000E+00  0.00000000000E+00  0.11960376111E+03  0.11960376111E+03  0.00000000000E+00 0.  1.
          2   -1    0    0  501    0  0.00000000000E+00 -0.00000000000E+00 -0.14545863399E+03  0.14545863399E+03  0.00000000000E+00 0. -1.
         25    2    1    2    0    0 -0.41695693028E+02 -0.95637582708E+01 -0.67859148411E+02  0.14860139430E+03  0.12509002388E+03 0.  0.
          5    1    3    3  502    0 -0.40872753477E+02 -0.56311314773E+02 -0.73528967048E+02  0.10131893971E+03  0.41800000000E+01 0. -1.
         -5    1    3    3    0  502 -0.82293955107E+00  0.46747556503E+02  0.56698186371E+01  0.47282454588E+02  0.41800000000E+01 0. -1.
        -11    1    1    2    0    0  0.69676449769E+02  0.27856035100E+02  0.26168922075E+02  0.79470616119E+02  0.00000000000E+00 0.  1.
         11    1    1    2    0    0 -0.27980756741E+02 -0.18292276829E+02  0.15835353456E+02  0.36990384676E+02  0.00000000000E+00 0. -1.
</event>
<event>
 7    1  0.2530765E-009  0.1403905E+03  0.7561462E-02  0.1212804E+00
          2   -1    0    0  501    0  0.00000000000E+00  0.00000000000E+00  0.87055177370E+02  0.87055177370E+02  0.00000000000E+00 0. -1.
         -2   -1    0    0    0  501 -0.00000000000E+00 -0.00000000000E+00 -0.28989256856E+03  0.28989256856E+03  0.00000000000E+00 0.  1.
         25    2    1    2    0    0  0.10942095325E+01  0.11673475739E+03 -0.12336692516E+03  0.21093839167E+03  0.12508959182E+03 0.  0.
          5    1    3    3  502    0 -0.41791237459E+02  0.97102083023E+02 -0.36338913638E+02  0.11186291209E+03  0.41800000000E+01 0.  1.
         -5    1    3    3    0  502  0.42885446991E+02  0.19632674366E+02 -0.87028011522E+02  0.99075479589E+02  0.41800000000E+01 0.  1.
        -11    1    1    2    0    0  0.25008475485E+02 -0.65988474655E+02 -0.30515429129E+01  0.70634372281E+02  0.00000000000E+00 0. -1.
         11    1    1    2    0    0 -0.26102685017E+02 -0.50746282734E+02 -0.76418923117E+02  0.95374981975E+02  0.00000000000E+00 0.  1.
</event>
<event>
 7    1  0.2530765E-009  0.9748322E+02  0.7561462E-02  0.1285679E+00
          2   -1    0    0  501    0  0.00000000000E+00  0.00000000000E+00  0.18534945082E+04  0.18534945082E+04  0.00000000000E+00 0.  1.
         -2   -1    0    0    0  501 -0.00000000000E+00 -0.00000000000E+00 -0.12048224575E+02  0.12048224575E+02  0.00000000000E+00 0. -1.
         25    2    1    2    0    0  0.17546182517E+02 -0.38730164186E+02  0.15854517136E+04  0.15909469911E+04  0.12508916113E+03 0.  0.
          5    1    3    3  502    0  0.32492806708E+02 -0.65460827166E+02  0.14566598406E+04  0.14584979486E+04  0.41800000000E+01 0. -1.
         -5    1    3    3    0  502 -0.14946624191E+02  0.26730662980E+02  0.12879187300E+03  0.13244904253E+03  0.41800000000E+01 0. -1.
        -11    1    1    2    0    0 -0.42610836556E+01  0.63023457654E+02  0.22167543094E+03  0.23049969573E+03  0.00000000000E+00 0.  1.
         11    1    1    2    0    0 -0.13285098861E+02 -0.24293293469E+02  0.34319139073E+02  0.44096045923E+02  0.00000000000E+00 0. -1.
</event>
<event>
 7    1  0.2530765E-009  0.1133645E+03  0.7561462E-02  0.1254463E+00
          2   -1    0    0  501    0  0.00000000000E+00  0.00000000000E+00  0.69794534633E+03  0.69794534633E+03  0.00000000000E+00 0. -1.
         -2   -1    0    0    0  501 -0.00000000000E+00 -0.00000000000E+00 -0.21571982715E+02  0.21571982715E+02  0.00000000000E+00 0.  1.
         25    2    1    2    0    0  0.41676237608E+02  0.49676641065E+01  0.49609385291E+03  0.51333995328E+03  0.12508880954E+03 0.  0.
          5    1    3    3  502    0  0.86522645101E+02  0.59109708995E+01  0.31879881616E+03  0.33041075236E+03  0.41800000000E+01 0.  1.
         -5    1    3    3    0  502 -0.44846407493E+02 -0.94330679295E+00  0.17729503675E+03  0.18292920092E+03  0.41800000000E+01 0.  1.
        -11    1    1    2    0    0 -0.56272984348E+02 -0.31559610822E+02  0.88546550018E+02  0.10955888518E+03  0.00000000000E+00 0.  1.
         11    1    1    2    0    0  0.14596746739E+02  0.26591946715E+02  0.91732960682E+02  0.96618490575E+02  0.00000000000E+00 0. -1.
</event>
<event>
 7    1  0.2530765E-009  0.3158454E+03  0.7561462E-02  0.1077577E+00
         -1   -1    0    0    0  501 -0.00000000000E+00  0.00000000000E+00  0.81807177252E+02  0.81807177252E+02  0.00000000000E+00 0.  1.
          1   -1    0    0  501    0  0.00000000000E+00 -0.00000000000E+00 -0.14735127250E+04  0.14735127250E+04  0.00000000000E+00 0. -1.
         25    2    1    2    0    0  0.30492847462E+03 -0.80209952570E+02 -0.49275445273E+03  0.59822328216E+03  0.12509649680E+03 0.  0.
          5    1    3    3  502    0  0.79523322886E+02 -0.18311892556E+02 -0.45433009779E+02  0.93492861061E+02  0.41800000000E+01 0. -1.
         -5    1    3    3    0  502  0.22540515174E+03 -0.61898060014E+02 -0.44732144295E+03  0.50473042110E+03  0.41800000000E+01 0. -1.
        -11    1    1    2    0    0 -0.50651203883E+02  0.22633615444E+02 -0.77826261383E+02  0.95575896353E+02  0.00000000000E+00 0.  1.
         11    1    1    2    0    0 -0.25427727074E+03  0.57576337126E+02 -0.82112483364E+03  0.86152072374E+03  0.00000000000E+00 0. -1.
</event>
<event>
 7    1  0.2530765E-009  0.8355270E+02  0.7561462E-02  0.1319261E+00
          3   -1    0    0  501    0  0.00000000000E+00  0.00000000000E+00  0.68570888542E+02  0.68570888542E+02  0.00000000000E+00 0. -1.
         -3   -1    0    0    0  501 -0.00000000000E+00 -0.00000000000E+00 -0.23837358948E+03  0.23837358948E+03  0.00000000000E+00 0.  1.
         25    2    1    2    0    0 -0.15164102878E+02 -0.64301199021E+02 -0.11576666454E+03  0.18279525788E+03  0.12509033325E+03 0.  0.
          5    1    3    3  502    0 -0.15805469786E+02 -0.20749371134E+02  0.24397932249E+02  0.35959432360E+02  0.41800000000E+01 0.  1.
         -5    1    3    3    0  502  0.64136690848E+00 -0.43551827886E+02 -0.14016459678E+03  0.14683582552E+03  0.41800000000E+01 0.  1.
        -11    1    1    2    0    0 -0.26682690415E+02  0.41331315849E+02 -0.58228964963E+02  0.76228970859E+02  0.00000000000E+00 0.  1.
         11    1    1    2    0    0  0.41846793293E+02  0.22969883171E+02  0.41929285591E+01  0.47920249287E+02  0.00000000000E+00 0. -1.
</event>
<event>
 7    1  0.2530765E-009  0.1090709E+03  0.7561462E-02  0.1262300E+00
         -3   -1    0    0    0  501 -0.00000000000E+00  0.00000000000E+00  0.31158295955E+03  0.31158295955E+03  0.00000000000E+00 0.  1.
          3   -1    0    0  501    0  0.00000000000E+00 -0.00000000000E+00 -0.56014081563E+02  0.56014081563E+02  0.00000000000E+00 0. -1.
         25    2    1    2    0    0  0.65850266976E+02  0.15327172959E+02  0.98472400016E+02  0.17296064060E+03  0.12508952689E+03 0.  0.
          5    1    3    3  502    0  0.91731453498E+02  0.10242106134E+02  0.11018688405E+03  0.14379910332E+03  0.41800000000E+01 0. -1.
         -5    1    3    3    0  502 -0.25881186521E+02  0.50850668254E+01 -0.11714484030E+02  0.29161537279E+02  0.41800000000E+01 0. -1.
        -11    1    1    2    0    0 -0.10570547190E-01  0.22905302152E+02  0.90919369674E+02  0.93760251494E+02  0.00000000000E+00 0.  1.
         11    1    1    2    0    0 -0.65839696429E+02 -0.38232475112E+02  0.66177108296E+02  0.10087614902E+03  0.00000000000E+00 0. -1.
</event>
<event>
 7    1  0.2530765E-009  0.1511328E+03  0.7561462E-02  0.1199088E+00
          2   -1    0    0  501    0  0.00000000000E+00  0.00000000000E+00  0.45664976946E+03  0.45664976946E+03  0.00000000000E+00 0.  1.
         -2   -1    0    0    0  501 -0.00000000000E+00 -0.00000000000E+00 -0.56677248025E+02  0.56677248025E+02  0.00000000000E+00 0. -1.
         25    2    1    2    0    0 -0.90066796860E+01  0.11640314655E+03  0.24762150986E+03  0.30098993496E+03  0.12509083099E+03 0.  0.
          5    1    3    3  502    0  0.50012004377E+02  0.17494221742E+02  0.54738194308E+02  0.76295417243E+02  0.41800000000E+01 0. -1.
         -5    1    3    3    0  502 -0.59018684063E+02  0.98908924809E+02  0.19288331555E+03  0.22469451772E+03  0.41800000000E+01 0. -1.
        -11    1    1    2    0    0  0.14289902457E+01 -0.12348369424E+03  0.99814272265E+02  0.15878650353E+03  0.00000000000E+00 0. -1.
         11    1    1    2    0    0  0.75776894403E+01  0.70805476880E+01  0.52536739315E+02  0.53550578995E+02  0.00000000000E+00 0.  1.
</event>
<event>
 7    1  0.2530765E-009  0.1048045E+03  0.7561462E-02  0.1270505E+00
          2   -1    0    0  501    0  0.00000000000E+00  0.00000000000E+00  0.20855785396E+03  0.20855785396E+03  0.00000000000E+00 0. -1.
         -2   -1    0    0    0  501 -0.00000000000E+00 -0.00000000000E+00 -0.67989366491E+02  0.67989366491E+02  0.00000000000E+00 0.  1.
         25    2    1    2    0    0 -0.23406480700E+02 -0.32040079823E+02  0.44383346675E+02  0.13854804048E+03  0.12510494796E+03 0.  0.
          5    1    3    3  502    0  0.25313518930E+01 -0.75500002970E+02  0.80078991971E+01  0.76080595689E+02  0.41800000000E+01 0. -1.
         -5    1    3    3    0  502 -0.25937832593E+02  0.43459923147E+02  0.36375447478E+02  0.62467444792E+02  0.41800000000E+01 0. -1.
        -11    1    1    2    0    0  0.47887306037E+02  0.74406486422E+01  0.90738897301E+02  0.10286935800E+03  0.00000000000E+00 0. -1.
         11    1    1    2    0    0 -0.24480825337E+02  0.24599431181E+02  0.54462434930E+01  0.35129821972E+02  0.00000000000E+00 0.  1.
</event>
<event>
 7    1  0.2530765E-009  0.2265234E+03  0.7561462E-02  0.1129111E+00
          2   -1    0    0  501    0  0.00000000000E+00  0.00000000000E+00  0.22203083738E+03  0.22203083738E+03  0.00000000000E+00 0. -1.
         -2   -1    0    0    0  501 -0.00000000000E+00 -0.00000000000E+00 -0.44314302850E+03  0.44314302850E+03  0.00000000000E+00 0.  1.
         25    2    1    2    0    0 -0.12375567099E+03 -0.15800923295E+03  0.11514114702E+03  0.26303420598E+03  0.12508847260E+03 0.  0.
          5    1    3    3  502    0 -0.11984480236E+03 -0.57802693944E+02  0.44753016847E+02  0.14044298842E+03  0.41800000000E+01 0. -1.
         -5    1    3    3    0  502 -0.39108686298E+01 -0.10020653901E+03  0.70388130170E+02  0.12259121756E+03  0.41800000000E+01 0. -1.
        -11    1    1    2    0    0  0.12034799733E+03  0.87089916589E+02 -0.24498294080E+03  0.28650468638E+03  0.00000000000E+00 0. -1.
         11    1    1    2    0    0  0.34076736549E+01  0.70919316365E+02 -0.91270397333E+02  0.11563497353E+03  0.00000000000E+00 0.  1.
</event>
<event>
 7    1  0.2530765E-009  0.2573765E+03  0.7561462E-02  0.1108730E+00
          1   -1    0    0  501    0  0.00000000000E+00  0.00000000000E+00  0.59030149853E+03  0.59030149853E+03  0.00000000000E+00 0. -1.
         -1   -1    0    0    0  501 -0.00000000000E+00 -0.00000000000E+00 -0.16384318731E+03  0.16384318731E+03  0.00000000000E+00 0.  1.
         25    2    1    2    0    0 -0.19095552399E+03  0.16073706831E+03  0.39886309108E+03  0.48686681903E+03  0.12508843584E+03 0.  0.
          5    1    3    3  502    0 -0.45011394802E+02  0.73071946897E+02  0.23628281058E+03  0.25142110902E+03  0.41800000000E+01 0. -1.
         -5    1    3    3    0  502 -0.14594412919E+03  0.87665121411E+02  0.16258028050E+03  0.23544571001E+03  0.41800000000E+01 0. -1.
        -11    1    1    2    0    0  0.10736066256E+03 -0.13196348898E+03  0.47561457038E+02  0.17664304822E+03  0.00000000000E+00 0. -1.
         11    1    1    2    0    0  0.83594861424E+02 -0.28773579334E+02 -0.19966236901E+02  0.90634818586E+02  0.00000000000E+00 0.  1.
</event>
<event>
 7    1  0.2530765E-009  0.1411979E+03  0.7561462E-02  0.1211726E+00
          4   -1    0    0  501    0  0.00000000000E+00  0.00000000000E+00  0.89547435452E+02  0.89547435452E+02  0.00000000000E+00 0. -1.
         -4   -1    0    0    0  501 -0.00000000000E+00 -0.00000000000E+00 -0.47225536891E+03  0.47225536891E+03  0.00000000000E+00 0.  1.
         25    2    1    2    0    0 -0.57890555091E+02 -0.54377689168E+02 -0.15696710875E+02  0.14900275564E+03  0.12508870855E+03 0.  0.
          5    1    3    3  502    0 -0.82544214698E+02 -0.71488202959E+02 -0.32947996631E+02  0.11413655604E+03  0.41800000000E+01 0.  1.
         -5    1    3    3    0  502  0.24653659607E+02  0.17110513791E+02  0.17251285757E+02  0.34866199599E+02  0.41800000000E+01 0.  1.
        -11    1    1    2    0    0 -0.19659425783E+02 -0.25028553980E+02 -0.26822604568E+01  0.31939255746E+02  0.00000000000E+00 0. -1.
         11    1    1    2    0    0  0.77549980874E+02  0.79406243148E+02 -0.36432896213E+03  0.38086079298E+03  0.00000000000E+00 0.  1.
</event>
<event>
 7    1  0.2530765E-009  0.1141785E+03  0.7561462E-02  0.1253022E+00
         -2   -1    0    0    0  501 -0.00000000000E+00  0.00000000000E+00  0.38015150608E+02  0.38015150608E+02  0.00000000000E+00 0.  1.
          2   -1    0    0  501    0  0.00000000000E+00 -0.00000000000E+00 -0.46337484821E+03  0.46337484821E+03  0.00000000000E+00 0. -1.
         25    2    1    2    0    0 -0.19748477709E+02  0.38221561350E+02 -0.34929453098E+03  0.37350382627E+03  0.12509016245E+03 0.  0.
          5    1    3    3  502    0  0.46441371495E+02  0.37524279005E+02 -0.22250188160E+03  0.23041144116E+03  0.41800000000E+01 0. -1.
         -5    1    3    3    0  502 -0.66189849204E+02  0.69728234470E+00 -0.12679264938E+03  0.14309238511E+03  0.41800000000E+01 0. -1.
        -11    1    1    2    0    0 -0.22618489116E+02 -0.52746240238E+02 -0.49662750026E+02  0.75895656327E+02  0.00000000000E+00 0. -1.
         11    1    1    2    0    0  0.42366966824E+02  0.14524678887E+02 -0.26402416594E+02  0.51990516218E+02  0.00000000000E+00 0.  1.
</event>
<event>
 7    1  0.3111802E-009  0.8155406E+02  0.7561462E-02  0.1324698E+00
          3   -1    0    0  501    0  0.00000000000E+00  0.00000000000E+00  0.21011142768E+03  0.21011142768E+03  0.00000000000E+00 0. -1.
         -3   -1    0    0    0  501 -0.00000000000E+00 -0.00000000000E+00 -0.83698112750E+02  0.83698112750E+02  0.00000000000E+00 0.  1.
         25    2    1    2    0    0 -0.18591519539E+02 -0.43311931830E+01 -0.11569110244E+02  0.12706892917E+03  0.12509302385E+03 0.  0.
          5    1    3    3  502    0  0.14461400079E+02  0.25625637578E+02 -0.56359957753E+02  0.63715952723E+02  0.41800000000E+01 0.  1.
         -5    1    3    3    0  502 -0.33052919618E+02 -0.29956830761E+02  0.44790847510E+02  0.63352976451E+02  0.41800000000E+01 0.  1.
        -11    1    1    2    0    0  0.52563228295E+02  0.11636883754E+02  0.55913655212E+02  0.77618598747E+02  0.00000000000E+00 0.  1.
         11    1    1    2    0    0 -0.33971708756E+02 -0.73056905707E+01  0.82068769957E+02  0.89122012504E+02  0.00000000000E+00 0. -1.
</event>
<event>
 7    1  0.2530765E-009  0.1218297E+03  0.7561462E-02  0.1240109E+00
         -4   -1    0    0    0  501 -0.00000000000E+00  0.00000000000E+00  0.19049835880E+02  0.19049835880E+02  0.00000000000E+00 0. -1.
          4   -1    0    0  501    0  0.00000000000E+00 -0.00000000000E+00 -0.12662964847E+04  0.12662964847E+04  0.00000000000E+00 0.  1.
         25    2    1    2    0    0 -0.78400748323E+02 -0.13106963838E+02 -0.96923210881E+03  0.98049801196E+03  0.12508797246E+03 0.  0.
          5    1    3    3  502    0  0.16726042604E+02 -0.27114447867E+02 -0.82150096712E+02  0.88210342784E+02  0.41800000000E+01 0. -1.
         -5    1    3    3    0  502 -0.95126790927E+02  0.14007484029E+02 -0.88708201210E+03  0.89228766917E+03  0.41800000000E+01 0. -1.
        -11    1    1    2    0    0  0.96404717106E+02  0.13024413598E+02 -0.17454078601E+03  0.19981989593E+03  0.00000000000E+00 0. -1.
         11    1    1    2    0    0 -0.18003968782E+02  0.82550240699E-01 -0.10347375401E+03  0.10502841270E+03  0.00000000000E+00 0.  1.
</event>
<event>
 7    1  0.2530765E-009  0.9571396E+02  0.7561462E-02  0.1289576E+00
          3   -1    0    0  501    0  0.00000000000E+00  0.00000000000E+00  0.37923056997E+02  0.37923056997E+02  0.00000000000E+00 0. -1.
         -3   -1    0    0    0  501 -0.00000000000E+00 -0.00000000000E+00 -0.26902216653E+03  0.26902216653E+03  0.00000000000E+00 0.  1.
         25    2    1    2    0    0  0.31901748722E+02 -0.59399974913E+01 -0.14696149544E+03  0.19569879019E+03  0.12508928891E+03 0.  0.
          5    1    3    3  502    0  0.75147870727E+02 -0.53592953332E+00 -0.12689372954E+03  0.14753637074E+03  0.41800000000E+01 0.  1.
         -5    1    3    3    0  502 -0.43246122004E+02 -0.54040679580E+01 -0.20067765896E+02  0.48162419447E+02  0.41800000000E+01 0.  1.
        -11    1    1    2    0    0  0.19367360032E+02  0.82662486109E+01 -0.29956525227E+02  0.36617194109E+02  0.00000000000E+00 0.  1.
         11    1    1    2    0    0 -0.51269108755E+02 -0.23262511196E+01 -0.54181088872E+02  0.74629239231E+02  0.00000000000E+00 0. -1.
</event>
<event>
 7    1  0.2530765E-009  0.1017686E+03  0.7561462E-02  0.1276620E+00
         -2   -1    0    0    0  501 -0.00000000000E+00  0.00000000000E+00  0.26080213241E+02  0.26080213241E+02  0.00000000000E+00 0.  1.
          2   -1    0    0  501    0  0.00000000000E+00 -0.00000000000E+00 -0.47628005544E+03  0.47628005544E+03  0.00000000000E+00 0. -1.
         25    2    1    2    0    0  0.20020261223E+02 -0.16867060658E+02 -0.23385039198E+03  0.26649488096E+03  0.12509279417E+03 0.  0.
          5    1    3    3  502    0  0.69888206613E+02  0.65327678224E+01 -0.15514964537E+03  0.17034060977E+03  0.41800000000E+01 0. -1.
         -5    1    3    3    0  502 -0.49867945390E+02 -0.23399828480E+02 -0.78700746615E+02  0.96154271190E+02  0.41800000000E+01 0. -1.
        -11    1    1    2    0    0  0.19923827715E+02 -0.16547192347E+02 -0.19987236763E+02  0.32714799690E+02  0.00000000000E+00 0.  1.
         11    1    1    2    0    0 -0.39944088938E+02  0.33414253004E+02 -0.19636221345E+03  0.20315058803E+03  0.00000000000E+00 0. -1.
</event>
<event>
 7    1  0.2530765E-009  0.1014335E+03  0.7561462E-02  0.1277310E+00
         -1   -1    0    0    0  501 -0.00000000000E+00  0.00000000000E+00  0.47207618578E+03  0.47207618578E+03  0.00000000000E+00 0.  1.
          1   -1    0    0  501    0  0.00000000000E+00 -0.00000000000E+00 -0.26154484033E+02  0.26154484033E+02  0.00000000000E+00 0. -1.
         25    2    1    2    0    0 -0.30641986701E+02  0.34853354083E+01  0.25990494192E+03  0.29008510598E+03  0.12509081087E+03 0.  0.
          5    1    3    3  502    0  0.42185332370E+02 -0.12125242818E+02  0.46792239862E+02  0.64293155871E+02  0.41800000000E+01 0. -1.
         -5    1    3    3    0  502 -0.72827319071E+02  0.15610578226E+02  0.21311270206E+03  0.22579195011E+03  0.41800000000E+01 0. -1.
        -11    1    1    2    0    0 -0.34285330146E+01 -0.36543342329E+02  0.12812406453E+03  0.13327770488E+03  0.00000000000E+00 0.  1.
         11    1    1    2    0    0  0.34070519716E+02  0.33058006921E+02  0.57892695304E+02  0.74867858957E+02  0.00000000000E+00 0. -1.
</event>
<event>
 7    1  0.2530765E-009  0.7781520E+02  0.7561462E-02  0.1335368E+00
         -2   -1    0    0    0  501 -0.00000000000E+00  0.00000000000E+00  0.87846679988E+01  0.87846679988E+01  0.00000000000E+00 0.  1.
          2   -1    0    0  501    0  0.00000000000E+00 -0.00000000000E+00 -0.15951308772E+04  0.15951308772E+04  0.00000000000E+00 0. -1.
         25    2    1    2    0    0  0.36382234738E+02 -0.11710876222E+02 -0.10855500497E+04  0.10934012417E+04  0.12508618385E+03 0.  0.
          5    1    3    3  502    0  0.35555084515E+01  0.13716299691E+02 -0.97690547571E+03  0.97701717456E+03  0.41800000000E+01 0. -1.
         -5    1    3    3    0  502  0.32826726287E+02 -0.25427175913E+02 -0.10864457400E+03  0.11638406718E+03  0.41800000000E+01 0. -1.
        -11    1    1    2    0    0 -0.67092376413E+02  0.28129887038E+01 -0.34296211561E+03  0.34947433757E+03  0.00000000000E+00 0. -1.
         11    1    1    2    0    0  0.30710141674E+02  0.88978875185E+01 -0.15783404386E+03  0.16103996586E+03  0.00000000000E+00 0.  1.
</event>
<event>
 7    1  0.2530765E-009  0.1025476E+03  0.7561462E-02  0.1275028E+00
         -1   -1    0    0    0  501 -0.00000000000E+00  0.00000000000E+00  0.21311864802E+03  0.21311864802E+03  0.00000000000E+00 0.  1.
          1   -1    0    0  501    0  0.00000000000E+00 -0.00000000000E+00 -0.89332854588E+02  0.89332854588E+02  0.00000000000E+00 0. -1.
         25    2    1    2    0    0 -0.70528004098E+01 -0.58008536978E+02  0.13596315186E+03  0.19377324054E+03  0.12508939895E+03 0.  0.
          5    1    3    3  502    0  0.55108171832E+02 -0.17476439813E+02  0.87797386594E+02  0.10520546585E+03  0.41800000000E+01 0.  1.
         -5    1    3    3    0  502 -0.62160972242E+02 -0.40532097165E+02  0.48165765268E+02  0.88567774695E+02  0.41800000000E+01 0.  1.
        -11    1    1    2    0    0  0.25408123700E+02  0.37320966326E+02 -0.46357432113E+02  0.64710422573E+02  0.00000000000E+00 0. -1.
         11    1    1    2    0    0 -0.18355323290E+02  0.20687570652E+02  0.34180073681E+02  0.43967839490E+02  0.00000000000E+00 0.  1.
</event>
<event>
 7    1  0.2530765E-009  0.1423760E+03  0.7561462E-02  0.1210167E+00
         -2   -1    0    0    0  501 -0.00000000000E+00  0.00000000000E+00  0.47282879428E+02  0.47282879428E+02  0.00000000000E+00 0. -1.
          2   -1    0    0  501    0  0.00000000000E+00 -0.00000000000E+00 -0.81650110952E+03  0.81650110952E+03  0.00000000000E+00 0.  1.
         25    2    1    2    0    0  0.81971828296E+02  0.80426526737E+02 -0.65399639059E+03  0.67568163790E+03  0.12508633041E+03 0.  0.
          5    1    3    3  502    0 -0.69823590481E+00 -0.29182922159E+02 -0.17144884900E+03  0.17396640682E+03  0.41800000000E+01 0. -1.
         -5    1    3    3    0  502  0.82670064201E+02  0.10960944890E+03 -0.48254754159E+03  0.50171523108E+03  0.41800000000E+01 0. -1.
        -11    1    1    2    0    0 -0.68432716894E+02 -0.50456407963E+02 -0.19974831463E+02  0.87337733759E+02  0.00000000000E+00 0. -1.
         11    1    1    2    0    0 -0.13539111402E+02 -0.29970118774E+02 -0.95247008040E+02  0.10076461729E+03  0.00000000000E+00 0.  1.
</event>
<event>
 7    1  0.2530765E-009  0.7741792E+02  0.7561462E-02  0.1336543E+00
         -2   -1    0    0    0  501 -0.00000000000E+00  0.00000000000E+00  0.71446401960E+02  0.71446401960E+02  0.00000000000E+00 0. -1.
          2   -1    0    0  501    0  0.00000000000E+00 -0.00000000000E+00 -0.25360954893E+03  0.25360954893E+03  0.00000000000E+00 0.  1.
         25    2    1    2    0    0 -0.32058454938E+02 -0.15277715658E+02 -0.19085677834E+03  0.23094296338E+03  0.12508872598E+03 0.  0.
          5    1    3    3  502    0  0.13858750687E+02 -0.13560567481E+01 -0.18124879131E+03  0.18183096715E+03  0.41800000000E+01 0. -1.
         -5    1    3    3    0  502 -0.45917205626E+02 -0.13921658910E+02 -0.96079870264E+01  0.49111996233E+02  0.41800000000E+01 0. -1.
        -11    1    1    2    0    0 -0.29284944238E+02  0.80167604319E+01 -0.51836941526E+01  0.30801738456E+02  0.00000000000E+00 0.  1.
         11    1    1    2    0    0  0.61343399176E+02  0.72609552258E+01  0.13877325523E+02  0.63311249055E+02  0.00000000000E+00 0. -1.
</event>
<event>
 7    1  0.2530765E-009  0.1007401E+03  0.7561462E-02  0.1278747E+00
          2   -1    0    0  501    0  0.00000000000E+00  0.00000000000E+00  0.56561293762E+03  0.56561293762E+03  0.00000000000E+00 0. -1.
         -2   -1    0    0    0  501 -0.00000000000E+00 -0.00000000000E+00 -0.25832975377E+02  0.25832975377E+02  0.00000000000E+00 0.  1.
         25    2    1    2    0    0  0.50612404880E+02  0.40613429303E+01  0.28191954667E+03  0.31257642463E+03  0.12508908986E+03 0.  0.
          5    1    3    3  502    0  0.52058811025E+01 -0.42662769900E+02  0.30624569511E+02  0.52939114002E+02  0.41800000000E+01 0.  1.
         -5    1    3    3    0  502  0.45406523778E+02  0.46724112831E+02  0.25129497716E+03  0.25963731062E+03  0.41800000000E+01 0.  1.
        -11    1    1    2    0    0 -0.21024798030E+02 -0.40764784774E+02  0.60301204208E+02  0.75763084934E+02  0.00000000000E+00 0.  1.
         11    1    1    2    0    0 -0.29587606850E+02  0.36703441844E+02  0.19755921136E+03  0.20310640343E+03  0.00000000000E+00 0. -1.
</event>
<event>
 7    1  0.2530765E-009  0.1658652E+03  0.7561462E-02  0.1182230E+00
         -1   -1    0    0    0  501 -0.00000000000E+00  0.00000000000E+00  0.53204766367E+02  0.53204766367E+02  0.00000000000E+00 0.  1.
          1   -1    0    0  501    0  0.00000000000E+00 -0.00000000000E+00 -0.60645610794E+03  0.60645610794E+03  0.00000000000E+00 0. -1.
         25    2    1    2    0    0  0.25960250618E+02 -0.13781340109E+03 -0.34455858597E+03  0.39247136108E+03  0.12508669782E+03 0.  0.
          5    1    3    3  502    0  0.72998660496E+02 -0.77662170173E+02 -0.24265285380E+03  0.26506243976E+03  0.41800000000E+01 0.  1.
         -5    1    3    3    0  502 -0.47038409878E+02 -0.60151230918E+02 -0.10190573216E+03  0.12740892132E+03  0.41800000000E+01 0.  1.
        -11    1    1    2    0    0 -0.40734757977E+02  0.98361040278E+02 -0.19624170163E+03  0.22325998345E+03  0.00000000000E+00 0. -1.
         11    1    1    2    0    0  0.14774507359E+02  0.39452360812E+02 -0.12451053976E+02  0.43929529778E+02  0.00000000000E+00 0.  1.
</event>
<event>
 7    1  0.2530765E-009  0.9711539E+02  0.7561462E-02  0.1286482E+00
          2   -1    0    0  501    0  0.00000000000E+00  0.00000000000E+00  0.28268929383E+03  0.28268929383E+03  0.00000000000E+00 0. -1.
         -2   -1    0    0    0  501 -0.00000000000E+00 -0.00000000000E+00 -0.60831286161E+02  0.60831286161E+02  0.00000000000E+00 0.  1.
         25    2    1    2    0    0  0.22925356045E+02 -0.41512167657E+02  0.47783085784E+02  0.14205751387E+03  0.12509309312E+03 0.  0.
          5    1    3    3  502    0  0.46051264230E+02 -0.53268051013E+02 -0.16646022586E+02  0.72475973010E+02  0.41800000000E+01 0.  1.
         -5    1    3    3    0  502 -0.23125908184E+02  0.11755883355E+02  0.64429108370E+02  0.69581540858E+02  0.41800000000E+01 0.  1.
        -11    1    1    2    0    0 -0.41781442325E+02  0.58599063486E+02  0.15028233629E+03  0.16662628774E+03  0.00000000000E+00 0. -1.
         11    1    1    2    0    0  0.18856086279E+02 -0.17086895829E+02  0.23792585586E+02  0.34836778377E+02  0.00000000000E+00 0.  1.
</event>
<event>
 7    1  0.2530765E-009  0.1337044E+03  0.7561462E-02  0.1222060E+00
          2   -1    0    0  501    0  0.00000000000E+00  0.00000000000E+00  0.35926120471E+03  0.35926120471E+03  0.00000000000E+00 0. -1.
         -2   -1    0    0    0  501 -0.00000000000E+00 -0.00000000000E+00 -0.70619392581E+02  0.70619392581E+02  0.00000000000E+00 0.  1.
         25    2    1    2    0    0 -0.18758596005E+01  0.94422006557E+02  0.24072139968E+03  0.28724604085E+03  0.12507782197E+03 0.  0.
          5    1    3    3  502    0 -0.22543275943E+02  0.11325191347E+03  0.13445937180E+03  0.17728787398E+03  0.41800000000E+01 0. -1.
         -5    1    3    3    0  502  0.20667416342E+02 -0.18829906912E+02  0.10626202788E+03  0.10995816687E+03  0.41800000000E+01 0. -1.
        -11    1    1    2    0    0 -0.34301589675E+02 -0.75129529632E+02  0.41986802415E+01  0.82696276777E+02  0.00000000000E+00 0.  1.
         11    1    1    2    0    0  0.36177449276E+02 -0.19292476924E+02  0.43721732209E+02  0.59938279666E+02  0.00000000000E+00 0. -1.
</event>
<event>
 7    1  0.2530765E-009  0.1568209E+03  0.7561462E-02  0.1192333E+00
         -1   -1    0    0    0  501 -0.00000000000E+00  0.00000000000E+00  0.46799308980E+02  0.46799308980E+02  0.00000000000E+00 0.  1.
          1   -1    0    0  501    0  0.00000000000E+00 -0.00000000000E+00 -0.79079986732E+03  0.79079986732E+03  0.00000000000E+00 0. -1.
         25    2    1    2    0    0 -0.14757806313E+03 -0.21241915665E+02 -0.52793889019E+03  0.56266986929E+03  0.12508959323E+03 0.  0.
          5    1    3    3  502    0  0.23449555095E+01  0.98587375643E+01  0.19082887207E+01  0.11126881349E+02  0.41800000000E+01 0. -1.
         -5    1    3    3    0  502 -0.14992301864E+03 -0.31100653229E+02 -0.52984717891E+03  0.55154298794E+03  0.41800000000E+01 0. -1.
        -11    1    1    2    0    0  0.52047088439E+02  0.12844388640E+02 -0.21012242251E+02  0.57579441288E+02  0.00000000000E+00 0.  1.
         11    1    1    2    0    0  0.95530974691E+02  0.83975270243E+01 -0.19504942590E+03  0.21734986572E+03  0.00000000000E+00 0. -1.
</event>
<event>
 7    1  0.2530765E-009  0.1165913E+03  0.7561462E-02  0.1248829E+00
         -1   -1    0    0    0  501 -0.00000000000E+00  0.00000000000E+00  0.10313479931E+03  0.10313479931E+03  0.00000000000E+00 0.  1.
          1   -1    0    0  501    0  0.00000000000E+00 -0.00000000000E+00 -0.17281577677E+03  0.17281577677E+03  0.00000000000E+00 0. -1.
         25    2    1    2    0    0 -0.75653887671E+02  0.13007562500E+02 -0.28849572011E+02  0.14957338036E+03  0.12508873213E+03 0.  0.
          5    1    3    3  502    0 -0.47966827535E+02  0.59728318542E+02  0.16762695151E+02  0.78528650366E+02  0.41800000000E+01 0. -1.
         -5    1    3    3    0  502 -0.27687060136E+02 -0.46720756042E+02 -0.45612267161E+02  0.71044729993E+02  0.41800000000E+01 0. -1.
        -11    1    1    2    0    0  0.18261344480E+02  0.26597777373E+02  0.16376571346E+02  0.36181632805E+02  0.00000000000E+00 0.  1.
         11    1    1    2    0    0  0.57392543191E+02 -0.39605339872E+02 -0.57207976800E+02  0.90195562917E+02  0.00000000000E+00 0. -1.
</event>
<event>
 7    1  0.2530765E-009  0.8657687E+02  0.7561462E-02  0.1311360E+00
          2   -1    0    0  501    0  0.00000000000E+00  0.00000000000E+00  0.10501675923E+03  0.10501675923E+03  0.00000000000E+00 0. -1.
         -2   -1    0    0    0  501 -0.00000000000E+00 -0.00000000000E+00 -0.16336897921E+03  0.16336897921E+03  0.00000000000E+00 0.  1.
         25    2    1    2    0    0  0.42719060344E+02  0.12408993400E+02  0.23715548101E+02  0.13486454491E+03  0.12508843679E+03 0.  0.
          5    1    3    3  502    0  0.41736039158E+02 -0.30841320176E+02 -0.34320835817E+02  0.62357647213E+02  0.41800000000E+01 0.  1.
         -5    1    3    3    0  502  0.98302118580E+00  0.43250313576E+02  0.58036383918E+02  0.72506897695E+02  0.41800000000E+01 0.  1.
        -11    1    1    2    0    0 -0.84259991911E+01 -0.35368613948E+02  0.54466253149E+01  0.36764140712E+02  0.00000000000E+00 0. -1.
         11    1    1    2    0    0 -0.34293061153E+02  0.22959620549E+02 -0.87514393400E+02  0.96757052824E+02  0.00000000000E+00 0.  1.
</event>
<event>
 7    1  0.2530765E-009  0.6904228E+02  0.7561462E-02  0.1363380E+00
         -1   -1    0    0    0  501 -0.00000000000E+00  0.00000000000E+00  0.52992136335E+02  0.52992136335E+02  0.00000000000E+00 0.  1.
          1   -1    0    0  501    0  0.00000000000E+00 -0.00000000000E+00 -0.79885046070E+03  0.79885046070E+03  0.00000000000E+00 0. -1.
         25    2    1    2    0    0 -0.55719864720E+01 -0.45014304953E+01 -0.74775399392E+03  0.75817916351E+03  0.12509315992E+03 0.  0.
          5    1    3    3  502    0  0.36809382624E+02  0.28129635421E+01 -0.71775706451E+02  0.80821209157E+02  0.41800000000E+01 0.  1.
         -5    1    3    3    0  502 -0.42381369096E+02 -0.73143940374E+01 -0.67597828747E+03  0.67735795436E+03  0.41800000000E+01 0.  1.
        -11    1    1    2    0    0  0.10887280763E+02  0.29875045417E+02 -0.35820146316E+02  0.47897119989E+02  0.00000000000E+00 0. -1.
         11    1    1    2    0    0 -0.53152942911E+01 -0.25373614922E+02  0.37715815869E+02  0.45766313532E+02  0.00000000000E+00 0.  1.
</event>
<event>
 7    1  0.2530765E-009  0.1082850E+03  0.7561462E-02  0.1263779E+00
         -2   -1    0    0    0  501 -0.00000000000E+00  0.00000000000E+00  0.13267075938E+03  0.13267075938E+03  0.00000000000E+00 0.  1.
          2   -1    0    0  501    0  0.00000000000E+00 -0.00000000000E+00 -0.12547807867E+03  0.12547807867E+03  0.00000000000E+00 0. -1.
         25    2    1    2    0    0 -0.14960978927E+02 -0.70486403679E+02  0.10044227167E+02  0.14470640336E+03  0.12508754006E+03 0.  0.
          5    1    3    3  502    0  0.37123081045E+02 -0.74154812862E+02  0.30522427052E+02  0.88465532102E+02  0.41800000000E+01 0.  1.
         -5    1    3    3    0  502 -0.52084059972E+02  0.36684091835E+01 -0.20478199885E+02  0.56240871256E+02  0.41800000000E+01 0.  1.
        -11    1    1    2    0    0 -0.20561721156E+01  0.62191154052E+02  0.34803045868E+02  0.71296700399E+02  0.00000000000E+00 0.  1.
         11    1    1    2    0    0  0.17017151043E+02  0.82952496263E+01 -0.37654592320E+02  0.42145734289E+02  0.00000000000E+00 0. -1.
</event>
<event>
 7    1  0.2530765E-009  0.1350183E+03  0.7561462E-02  0.1220194E+00
         -1   -1    0    0    0  501 -0.00000000000E+00  0.00000000000E+00  0.60001259361E+03  0.60001259361E+03  0.00000000000E+00 0.  1.
          1   -1    0    0  501    0  0.00000000000E+00 -0.00000000000E+00 -0.52453016921E+02  0.52453016921E+02  0.00000000000E+00 0. -1.
         25    2    1    2    0    0  0.26835830024E+02  0.12957759495E+03  0.37619961220E+03  0.41795265210E+03  0.12509099206E+03 0.  0.
          5    1    3    3  502    0  0.30381644894E+02  0.11424100243E+03  0.38258931991E+03  0.40045737738E+03  0.41800000000E+01 0.  1.
         -5    1    3    3    0  502 -0.35458148694E+01  0.15336592520E+02 -0.63897077105E+01  0.17495274729E+02  0.41800000000E+01 0.  1.
        -11    1    1    2    0    0 -0.13177238259E+01 -0.77099761570E+02  0.15623993355E+03  0.17423267910E+03  0.00000000000E+00 0.  1.
         11    1    1    2    0    0 -0.25518106198E+02 -0.52477833376E+02  0.15120030928E+02  0.60280279322E+02  0.00000000000E+00 0. -1.
</event>
<event>
 7    1  0.2530765E-009  0.1170207E+03  0.7561462E-02  0.1248095E+00
         -1   -1    0    0    0  501 -0.00000000000E+00  0.00000000000E+00  0.26835125087E+02  0.26835125087E+02  0.00000000000E+00 0.  1.
          1   -1    0    0  501    0  0.00000000000E+00 -0.00000000000E+00 -0.64792435515E+03  0.64792435515E+03  0.00000000000E+00 0. -1.
         25    2    1    2    0    0  0.70598235201E+02 -0.15765960897E+02 -0.40024963896E+03  0.42553540316E+03  0.12509168443E+03 0.  0.
          5    1    3    3  502    0  0.72836350023E+02  0.38204125855E+02 -0.16864928979E+03  0.18768256303E+03  0.41800000000E+01 0. -1.
         -5    1    3    3    0  502 -0.22381148221E+01 -0.53970086753E+02 -0.23160034917E+03  0.23785284013E+03  0.41800000000E+01 0. -1.
        -11    1    1    2    0    0 -0.52218339752E+02 -0.21096519582E+02 -0.56401046221E+02  0.79705057303E+02  0.00000000000E+00 0.  1.
         11    1    1    2    0    0 -0.18379895450E+02  0.36862480480E+02 -0.16443854488E+03  0.16951901978E+03  0.00000000000E+00 0. -1.
</event>
<event>
 7    1  0.2530765E-009  0.9011430E+02  0.7561462E-02  0.1302575E+00
         -2   -1    0    0    0  501 -0.00000000000E+00  0.00000000000E+00  0.17922605632E+02  0.17922605632E+02  0.00000000000E+00 0. -1.
          2   -1    0    0  501    0  0.00000000000E+00 -0.00000000000E+00 -0.14689452144E+04  0.14689452144E+04  0.00000000000E+00 0.  1.
         25    2    1    2    0    0  0.55880142355E+02 -0.34453061323E+02 -0.12454886328E+04  0.12534745891E+04  0.12508799780E+03 0.  0.
          5    1    3    3  502    0  0.68031474015E+02 -0.24616511589E+02 -0.12260131309E+04  0.12281530538E+04  0.41800000000E+01 0. -1.
         -5    1    3    3    0  502 -0.12151331660E+02 -0.98365497334E+01 -0.19475501962E+02  0.25321535271E+02  0.41800000000E+01 0. -1.
        -11    1    1    2    0    0  0.78316723425E+01  0.26184740888E+02 -0.13601429367E+03  0.13873306682E+03  0.00000000000E+00 0.  1.
         11    1    1    2    0    0 -0.63711814698E+02  0.82683204346E+01 -0.69519682319E+02  0.94660164190E+02  0.00000000000E+00 0. -1.
</event>
<event>
 7    1  0.2530765E-009  0.1355798E+03  0.7561462E-02  0.1219404E+00
          2   -1    0    0  501    0  0.00000000000E+00  0.00000000000E+00  0.38492044304E+03  0.38492044304E+03  0.00000000000E+00 0. -1.
         -2   -1    0    0    0  501 -0.00000000000E+00 -0.00000000000E+00 -0.10292853723E+03  0.10292853723E+03  0.00000000000E+00 0.  1.
         25    2    1    2    0    0 -0.11801028280E+03  0.64539242681E+02  0.26723407379E+03  0.32427317987E+03  0.12508918537E+03 0.  0.
          5    1    3    3  502    0 -0.86933309649E+02  0.41437234631E+02  0.60290488037E+02  0.11369635037E+03  0.41800000000E+01 0. -1.
         -5    1    3    3    0  502 -0.31076973148E+02  0.23102008049E+02  0.20694358576E+03  0.21057682950E+03  0.41800000000E+01 0. -1.
        -11    1    1    2    0    0  0.25861661656E+02 -0.23495833682E+02 -0.36411163257E+02  0.50464369151E+02  0.00000000000E+00 0.  1.
         11    1    1    2    0    0  0.92148621141E+02 -0.41043408998E+02  0.51168995275E+02  0.11311143124E+03  0.00000000000E+00 0. -1.
</event>
<event>
 7    1  0.2530765E-009  0.2443622E+03  0.7561462E-02  0.1116921E+00
         -2   -1    0    0    0  501 -0.00000000000E+00  0.00000000000E+00  0.52544322124E+02  0.52544322124E+02  0.00000000000E+00 0.  1.
          2   -1    0    0  501    0  0.00000000000E+00 -0.00000000000E+00 -0.14553825570E+04  0.14553825570E+04  0.00000000000E+00 0. -1.
         25    2    1    2    0    0 -0.20276185197E+03 -0.11214682206E+03 -0.43214158938E+03  0.50604586258E+03  0.12508710346E+03 0.  0.
          5    1    3    3  502    0 -0.17956056618E+02 -0.40591930507E+02 -0.17934474304E+03  0.18480296006E+03  0.41800000000E+01 0. -1.
         -5    1    3    3    0  502 -0.18480579535E+03 -0.71554891557E+02 -0.25279684634E+03  0.32124290252E+03  0.41800000000E+01 0. -1.
        -11    1    1    2    0    0  0.35592581878E+02 -0.12148289703E+02 -0.10696869498E+03  0.11338745316E+03  0.00000000000E+00 0. -1.
         11    1    1    2    0    0  0.16716927009E+03  0.12429511177E+03 -0.86372795050E+03  0.88849356337E+03  0.00000000000E+00 0.  1.
</event>
<event>
 7    1  0.2530765E-009  0.1138746E+03  0.7561462E-02  0.1253558E+00
         -3   -1    0    0    0  501 -0.00000000000E+00  0.00000000000E+00  0.22225902022E+03  0.22225902022E+03  0.00000000000E+00 0.  1.
          3   -1    0    0  501    0  0.00000000000E+00 -0.00000000000E+00 -0.12509838894E+03  0.12509838894E+03  0.00000000000E+00 0. -1.
         25    2    1    2    0    0  0.48125445657E+02  0.47832361378E+02  0.16298943057E+03  0.21637390398E+03  0.12509243994E+03 0.  0.
          5    1    3    3  502    0  0.68910276872E+02  0.61070137165E+02  0.59034754674E+02  0.10945666984E+03  0.41800000000E+01 0. -1.
         -5    1    3    3    0  502 -0.20784831215E+02 -0.13237775787E+02  0.10395467589E+03  0.10691723414E+03  0.41800000000E+01 0. -1.
        -11    1    1    2    0    0  0.14649212244E+02  0.15558245557E+02 -0.23654962310E+01  0.21500092944E+02  0.00000000000E+00 0.  1.
         11    1    1    2    0    0 -0.62774657902E+02 -0.63390606934E+02 -0.63463303058E+02  0.10948341225E+03  0.00000000000E+00 0. -1.
</event>
<event>
 7    1  0.2530765E-009  0.1101956E+03  0.7561462E-02  0.1260208E+00
          2   -1    0    0  501    0  0.00000000000E+00  0.00000000000E+00  0.17289838727E+04  0.17289838727E+04  0.00000000000E+00 0.  1.
         -2   -1    0    0    0  501 -0.00000000000E+00 -0.00000000000E+00 -0.14130199410E+02  0.14130199410E+02  0.00000000000E+00 0. -1.
         25    2    1    2    0    0 -0.66842475464E+02 -0.20482634347E+02  0.14115270432E+04  0.14187824799E+04  0.12509067391E+03 0.  0.
          5    1    3    3  502    0 -0.87351339940E+02 -0.19353085273E+02  0.56997815956E+03  0.57697259317E+03  0.41800000000E+01 0.  1.
         -5    1    3    3    0  502  0.20508864475E+02 -0.11295490742E+01  0.84154888364E+03  0.84180988671E+03  0.41800000000E+01 0.  1.
        -11    1    1    2    0    0  0.48073048698E+02  0.53474136467E+02  0.23960106896E+03  0.25015829694E+03  0.00000000000E+00 0.  1.
         11    1    1    2    0    0  0.18769426766E+02 -0.32991502120E+02  0.63725561182E+02  0.74173295337E+02  0.00000000000E+00 0. -1.
</event>
<event>
 7    1  0.2530765E-009  0.1350730E+03  0.7561462E-02  0.1220117E+00
          2   -1    0    0  501    0  0.00000000000E+00  0.00000000000E+00  0.21501201470E+03  0.21501201470E+03  0.00000000000E+00 0. -1.
         -2   -1    0    0    0  501 -0.00000000000E+00 -0.00000000000E+00 -0.11152770038E+03  0.11152770038E+03  0.00000000000E+00 0.  1.
         25    2    1    2    0    0  0.80236009866E+02  0.33265831186E+02 -0.15638212451E+02  0.15310077518E+03  0.12510340071E+03 0.  0.
          5    1    3    3  502    0 -0.21696910806E+02 -0.19286676197E+02 -0.24198421665E+02  0.38023253784E+02  0.41800000000E+01 0. -1.
         -5    1    3    3    0  502  0.10193292067E+03  0.52552507383E+02  0.85602092143E+01  0.11507752140E+03  0.41800000000E+01 0. -1.
        -11    1    1    2    0    0  0.17335221311E+02 -0.21744688986E+02  0.25996773165E+02  0.38068012976E+02  0.00000000000E+00 0. -1.
         11    1    1    2    0    0 -0.97571231177E+02 -0.11521142200E+02  0.93125753612E+02  0.13537092693E+03  0.00000000000E+00 0.  1.
</event>
<event>
 7    1  0.2530765E-009  0.1249150E+03  0.7561462E-02  0.1235202E+00
         -1   -1    0    0    0  501 -0.00000000000E+00  0.00000000000E+00  0.94361600886E+02  0.94361600886E+02  0.00000000000E+00 0.  1.
          1   -1    0    0  501    0  0.00000000000E+00 -0.00000000000E+00 -0.51786406601E+03  0.51786406601E+03  0.00000000000E+00 0. -1.
         25    2    1    2    0    0  0.87789716017E+02 -0.64488527034E+02  0.16127473726E+00  0.16587901836E+03  0.12510003344E+03 0.  0.
          5    1    3    3  502    0  0.67177788504E+02 -0.86035378904E+02 -0.39434363089E+02  0.11613562366E+03  0.41800000000E+01 0.  1.
         -5    1    3    3    0  502  0.20611927513E+02  0.21546851870E+02  0.39595637826E+02  0.49743394699E+02  0.41800000000E+01 0.  1.
        -11    1    1    2    0    0 -0.78007131831E+02  0.48855596092E+02 -0.41652185132E+03  0.42657055046E+03  0.00000000000E+00 0. -1.
         11    1    1    2    0    0 -0.97825841856E+01  0.15632930942E+02 -0.71418885324E+01  0.19776098073E+02  0.00000000000E+00 0.  1.
</event>
<event>
 7    1  0.3361780E-009  0.1226241E+03  0.7561462E-02  0.1238830E+00
         -1   -1    0    0    0  501 -0.00000000000E+00  0.00000000000E+00  0.24522043114E+02  0.24522043114E+02  0.00000000000E+00 0.  1.
          1   -1    0    0  501    0  0.00000000000E+00 -0.00000000000E+00 -0.77858811537E+03  0.77858811537E+03  0.00000000000E+00 0. -1.
         25    2    1    2    0    0 -0.60172804510E+00  0.76920115293E+02 -0.30916824932E+03  0.34227263600E+03  0.12509390374E+03 0.  0.
          5    1    3    3  502    0 -0.27306501853E+02  0.10354088271E+03 -0.24982628333E+03  0.27184003325E+03  0.41800000000E+01 0.  1.
         -5    1    3    3    0  502  0.26704773808E+02 -0.26620767420E+02 -0.59341965995E+02  0.70432602751E+02  0.41800000000E+01 0.  1.
        -11    1    1    2    0    0  0.29533913782E+02 -0.18212053375E+02 -0.51921636640E+02  0.62448277021E+02  0.00000000000E+00 0.  1.
         11    1    1    2    0    0 -0.28932185737E+02 -0.58708061917E+02 -0.39297618630E+03  0.39838924546E+03  0.00000000000E+00 0. -1.
</event>
<event>
 7    1  0.2530765E-009  0.1148040E+03  0.7561462E-02  0.1251924E+00
         -2   -1    0    0    0  501 -0.00000000000E+00  0.00000000000E+00  0.41716554706E+02  0.41716554706E+02  0.00000000000E+00 0. -1.
          2   -1    0    0  501    0  0.00000000000E+00 -0.00000000000E+00 -0.46844752393E+03  0.46844752393E+03  0.00000000000E+00 0.  1.
         25    2    1    2    0    0  0.41225875506E+02  0.47670046321E+02 -0.34358567617E+03  0.37104276324E+03  0.12509839789E+03 0.  0.
          5    1    3    3  502    0  0.85396628349E+02  0.20211457749E+02 -0.22004344675E+03  0.23693391065E+03  0.41800000000E+01 0.  1.
         -5    1    3    3    0  502 -0.44170752843E+02  0.27458588573E+02 -0.12354222942E+03  0.13410885259E+03  0.41800000000E+01 0.  1.
        -11    1    1    2    0    0 -0.52272189112E+02 -0.13964202470E+02 -0.62820981518E+01  0.54468756755E+02  0.00000000000E+00 0. -1.
         11    1    1    2    0    0  0.11046313606E+02 -0.33705843852E+02 -0.76863194908E+02  0.84652558648E+02  0.00000000000E+00 0.  1.
</event>
<event>
 7    1  0.2530765E-009  0.1054143E+03  0.7561462E-02  0.1269306E+00
         -1   -1    0    0    0  501 -0.00000000000E+00  0.00000000000E+00  0.34495046136E+02  0.34495046136E+02  0.00000000000E+00 0.  1.
          1   -1    0    0  501    0  0.00000000000E+00 -0.00000000000E+00 -0.34562618736E+03  0.34562618736E+03  0.00000000000E+00 0. -1.
         25    2    1    2    0    0  0.15414522263E+02 -0.48571750924E+01 -0.19629348498E+03  0.23331982600E+03  0.12508320956E+03 0.  0.
          5    1    3    3  502    0  0.64075485914E+02 -0.29890057292E+02 -0.11987901703E+03  0.13923912720E+03  0.41800000000E+01 0.  1.
         -5    1    3    3    0  502 -0.48660963651E+02  0.25032882199E+02 -0.76414467950E+02  0.94080698800E+02  0.41800000000E+01 0.  1.
        -11    1    1    2    0    0  0.33286388817E+02  0.13013689132E+02 -0.22914072799E+02  0.42454617152E+02  0.00000000000E+00 0.  1.
         11    1    1    2    0    0 -0.48700911080E+02 -0.81565140393E+01 -0.91923583447E+02  0.10434679034E+03  0.00000000000E+00 0. -1.
</event>
<event>
 7    1  0.2530765E-009  0.6952330E+02  0.7561462E-02  0.1361722E+00
          1   -1    0    0  501    0  0.00000000000E+00  0.00000000000E+00  0.14732916525E+03  0.14732916525E+03  0.00000000000E+00 0. -1.
         -1   -1    0    0    0  501 -0.00000000000E+00 -0.00000000000E+00 -0.89332791395E+02  0.89332791395E+02  0.00000000000E+00 0.  1.
         25    2    1    2    0    0 -0.10268694934E+02 -0.26634713115E+02  0.59377534891E+02  0.14137971471E+03  0.12509067929E+03 0.  0.
          5    1    3    3  502    0  0.70299706556E+01 -0.30019172858E+02 -0.34101071028E+02  0.46161961308E+02  0.41800000000E+01 0.  1.
         -5    1    3    3    0  502 -0.17298665590E+02  0.33844597434E+01  0.93478605919E+02  0.95217753405E+02  0.41800000000E+01 0.  1.
        -11    1    1    2    0    0  0.99907680279E+01 -0.30801262750E+02  0.14809926807E+02  0.35607122389E+02  0.00000000000E+00 0. -1.
         11    1    1    2    0    0  0.27792690618E+00  0.57435975865E+02 -0.16191087843E+02  0.59675119543E+02  0.00000000000E+00 0.  1.
</event>
<event>
 7    1  0.2530765E-009  0.1045671E+03  0.7561462E-02  0.1270975E+00
         -2   -1    0    0    0  501 -0.00000000000E+00  0.00000000000E+00  0.66495806190E+02  0.66495806190E+02  0.00000000000E+00 0.  1.
          2   -1    0    0  501    0  0.00000000000E+00 -0.00000000000E+00 -0.22138890053E+03  0.22138890053E+03  0.00000000000E+00 0. -1.
         25    2    1    2    0    0 -0.40165162056E+02  0.19753074864E+02 -0.56247434058E+02  0.14427371610E+03  0.12509079546E+03 0.  0.
          5    1    3    3  502    0 -0.70634549769E+02 -0.27937139418E+02 -0.30528947179E+02  0.81970802093E+02  0.41800000000E+01 0.  1.
         -5    1    3    3    0  502  0.30469387713E+02  0.47690214282E+02 -0.25718486879E+02  0.62302914002E+02  0.41800000000E+01 0.  1.
        -11    1    1    2    0    0  0.53330347192E+02 -0.92387828742E+00 -0.12948616505E+02  0.54887577393E+02  0.00000000000E+00 0.  1.
         11    1    1    2    0    0 -0.13165185136E+02 -0.18829196577E+02 -0.85697043774E+02  0.88723413229E+02  0.00000000000E+00 0. -1.
</event>
<event>
 7    1  0.2530765E-009  0.1453809E+03  0.7561462E-02  0.1206267E+00
          1   -1    0    0  501    0  0.00000000000E+00  0.00000000000E+00  0.15370754549E+03  0.15370754549E+03  0.00000000000E+00 0. -1.
         -1   -1    0    0    0  501 -0.00000000000E+00 -0.00000000000E+00 -0.17152757552E+03  0.17152757552E+03  0.00000000000E+00 0.  1.
         25    2    1    2    0    0 -0.63012000495E+02 -0.83328929397E+02  0.51500835508E+02  0.17091779104E+03  0.12508530111E+03 0.  0.
          5    1    3    3  502    0  0.34540746611E+02 -0.26937250473E+02 -0.58932625395E+01  0.44394612093E+02  0.41800000000E+01 0.  1.
         -5    1    3    3    0  502 -0.97552747107E+02 -0.56391678924E+02  0.57394098048E+02  0.12652317895E+03  0.41800000000E+01 0.  1.
        -11    1    1    2    0    0  0.74698203393E+02  0.31832872150E+02 -0.59356382923E+02  0.10057998575E+03  0.00000000000E+00 0.  1.
         11    1    1    2    0    0 -0.11686202898E+02  0.51496057247E+02 -0.99644826157E+01  0.53737344222E+02  0.00000000000E+00 0. -1.
</event>
<event>
 7    1  0.2530765E-009  0.1102895E+03  0.7561462E-02  0.1260035E+00
          2   -1    0    0  501    0  0.00000000000E+00  0.00000000000E+00  0.52559852338E+03  0.52559852338E+03  0.00000000000E+00 0. -1.
         -2   -1    0    0    0  501 -0.00000000000E+00 -0.00000000000E+00 -0.30605355406E+02  0.30605355406E+02  0.00000000000E+00 0.  1.
         25    2    1    2    0    0  0.59095305128E+02  0.32716754417E+01  0.21557239776E+03  0.25616850294E+03  0.12509150361E+03 0.  0.
          5    1    3    3  502    0 -0.23959089327E+02 -0.19868312070E+02  0.95988038650E+01  0.32838958898E+02  0.41800000000E+01 0.  1.
         -5    1    3    3    0  502  0.83054394455E+02  0.23139987511E+02  0.20597359390E+03  0.22332954404E+03  0.41800000000E+01 0.  1.
        -11    1    1    2    0    0  0.21840427772E+02 -0.16596259080E+01  0.25985680645E+02  0.33985500467E+02  0.00000000000E+00 0.  1.
         11    1    1    2    0    0 -0.80935732900E+02 -0.16120495337E+01  0.25343508957E+03  0.26604987538E+03  0.00000000000E+00 0. -1.
</event>
<event>
 7    1  0.2530765E-009  0.8012282E+02  0.7561462E-02  0.1328703E+00
          1   -1    0    0  501    0  0.00000000000E+00  0.00000000000E+00  0.50125139845E+03  0.50125139845E+03  0.00000000000E+00 0. -1.
         -1   -1    0    0    0  501 -0.00000000000E+00 -0.00000000000E+00 -0.24410764007E+02  0.24410764007E+02  0.00000000000E+00 0.  1.
         25    2    1    2    0    0 -0.27678853804E+02  0.15545009117E+02  0.26271357014E+03  0.29270010852E+03  0.12508863792E+03 0.  0.
          5    1    3    3  502    0 -0.39641109206E+02  0.40959868984E+02  0.25757554096E+03  0.26384040651E+03  0.41800000000E+01 0.  1.
         -5    1    3    3    0  502  0.11962255403E+02 -0.25414859868E+02  0.51380291805E+01  0.28859702013E+02  0.41800000000E+01 0.  1.
        -11    1    1    2    0    0  0.28237191956E+02  0.22831185104E+02  0.17275025845E+03  0.17652550472E+03  0.00000000000E+00 0. -1.
         11    1    1    2    0    0 -0.55833815228E+00 -0.38376194221E+02  0.41376805852E+02  0.56436549211E+02  0.00000000000E+00 0.  1.
</event>
<event>
 7    1  0.2530765E-009  0.8011433E+02  0.7561462E-02  0.1328727E+00
          1   -1    0    0  501    0  0.00000000000E+00  0.00000000000E+00  0.33486585054E+02  0.33486585054E+02  0.00000000000E+00 0. -1.
         -1   -1    0    0    0  501 -0.00000000000E+00 -0.00000000000E+00 -0.40839933539E+03  0.40839933539E+03  0.00000000000E+00 0.  1.
         25    2    1    2    0    0 -0.10560088806E+02  0.13566994475E+02 -0.28788564972E+03  0.31436506086E+03  0.12510661596E+03 0.  0.
          5    1    3    3  502    0 -0.36249208720E+02  0.42840273566E+02 -0.56702787991E+02  0.79887250160E+02  0.41800000000E+01 0. -1.
         -5    1    3    3    0  502  0.25689119915E+02 -0.29273279092E+02 -0.23118286173E+03  0.23447781070E+03  0.41800000000E+01 0. -1.
        -11    1    1    2    0    0  0.10002670470E+02  0.24629695998E+02 -0.85228192297E+02  0.89277769370E+02  0.00000000000E+00 0.  1.
         11    1    1    2    0    0  0.55741833598E+00 -0.38196690472E+02 -0.17989083168E+01  0.38243090217E+02  0.00000000000E+00 0. -1.
</event>
<event>
 7    1  0.2530765E-009  0.1214772E+03  0.7561462E-02  0.1240680E+00
          2   -1    0    0  501    0  0.00000000000E+00  0.00000000000E+00  0.52090066538E+03  0.52090066538E+03  0.00000000000E+00 0. -1.
         -2   -1    0    0    0  501 -0.00000000000E+00 -0.00000000000E+00 -0.52475297389E+02  0.52475297389E+02  0.00000000000E+00 0.  1.
         25    2    1    2    0    0  0.34710269067E+02  0.92901724389E+02  0.37295648343E+03  0.40568371667E+03  0.12508879353E+03 0.  0.
          5    1    3    3  502    0 -0.24117900275E+02  0.87315450759E+01  0.21923436160E+03  0.22076931557E+03  0.41800000000E+01 0.  1.
         -5    1    3    3    0  502  0.58828169342E+02  0.84170179313E+02  0.15372212183E+03  0.18491440110E+03  0.41800000000E+01 0.  1.
        -11    1    1    2    0    0 -0.42724570288E+02 -0.33611227136E+02 -0.77639359146E+00  0.54366407670E+02  0.00000000000E+00 0. -1.
         11    1    1    2    0    0  0.80143012217E+01 -0.59290497253E+02  0.96245278153E+02  0.11332583843E+03  0.00000000000E+00 0.  1.
</event>
<event>
 7    1  0.2530765E-009  0.1148806E+03  0.7561462E-02  0.1251790E+00
         -1   -1    0    0    0  501 -0.00000000000E+00  0.00000000000E+00  0.26763212862E+03  0.26763212862E+03  0.00000000000E+00 0.  1.
          1   -1    0    0  501    0  0.00000000000E+00 -0.00000000000E+00 -0.87297985858E+02  0.87297985858E+02  0.00000000000E+00 0. -1.
         25    2    1    2    0    0  0.31453390736E+02 -0.36841390278E+02  0.21050423424E+03  0.24961168707E+03  0.12508939948E+03 0.  0.
          5    1    3    3  502    0  0.36489825030E+02  0.39704644329E+02  0.11466529701E+03  0.12678157930E+03  0.41800000000E+01 0.  1.
         -5    1    3    3    0  502 -0.50364342940E+01 -0.76546034607E+02  0.95838937229E+02  0.12283010777E+03  0.41800000000E+01 0.  1.
        -11    1    1    2    0    0  0.13586560633E+02 -0.21323396954E+02  0.12726137809E+01  0.25316031153E+02  0.00000000000E+00 0. -1.
         11    1    1    2    0    0 -0.45039951369E+02  0.58164787233E+02 -0.31442705258E+02  0.80002396258E+02  0.00000000000E+00 0.  1.
</event>
<event>
 7    1  0.2530765E-009  0.9869190E+02  0.7561462E-02  0.1283071E+00
          2   -1    0    0  501    0  0.00000000000E+00  0.00000000000E+00  0.92373278863E+02  0.92373278863E+02  0.00000000000E+00 0. -1.
         -2   -1    0    0    0  501 -0.00000000000E+00 -0.00000000000E+00 -0.16299158107E+03  0.16299158107E+03  0.00000000000E+00 0.  1.
         25    2    1    2    0    0  0.33614823180E+02  0.38172752128E+02 -0.66970490226E+02  0.15073054214E+03  0.12509010525E+03 0.  0.
          5    1    3    3  502    0 -0.42342805224E+02 -0.34400169877E+01 -0.26519477878E+01  0.42769756817E+02  0.41800000000E+01 0.  1.
         -5    1    3    3    0  502  0.75957628404E+02  0.41612769116E+02 -0.64318542438E+02  0.10796078532E+03  0.41800000000E+01 0.  1.
        -11    1    1    2    0    0 -0.33774889296E+02 -0.42251117247E+01 -0.41576010002E+02  0.53732293118E+02  0.00000000000E+00 0.  1.
         11    1    1    2    0    0  0.16006611529E+00 -0.33947640403E+02  0.37928198025E+02  0.50902024671E+02  0.00000000000E+00 0. -1.
</event>
<event>
 7    1  0.2530765E-009  0.1319027E+03  0.7561462E-02  0.1224660E+00
          1   -1    0    0  501    0  0.00000000000E+00  0.00000000000E+00  0.19549775310E+03  0.19549775310E+03  0.00000000000E+00 0. -1.
         -1   -1    0    0    0  501 -0.00000000000E+00 -0.00000000000E+00 -0.96993609074E+02  0.96993609074E+02  0.00000000000E+00 0.  1.
         25    2    1    2    0    0  0.60436827938E+02 -0.48954362094E+02  0.94075329861E+02  0.17477618057E+03  0.12508959136E+03 0.  0.
          5    1    3    3  502    0  0.11650088329E+02 -0.84746853314E+02  0.44951339794E+02  0.96725638038E+02  0.41800000000E+01 0.  1.
         -5    1    3    3    0  502  0.48786739609E+02  0.35792491220E+02  0.49123990067E+02  0.78050542532E+02  0.41800000000E+01 0.  1.
        -11    1    1    2    0    0 -0.78351093471E+02  0.15955780414E+02  0.55414276242E+01  0.80151033660E+02  0.00000000000E+00 0. -1.
         11    1    1    2    0    0  0.17914265532E+02  0.32998581679E+02 -0.11126134548E+01  0.37564147949E+02  0.00000000000E+00 0.  1.
</event>
<event>
 7    1  0.2530765E-009  0.1052247E+03  0.7561462E-02  0.1269677E+00
          1   -1    0    0  501    0  0.00000000000E+00  0.00000000000E+00  0.68950351156E+02  0.68950351156E+02  0.00000000000E+00 0. -1.
         -1   -1    0    0    0  501 -0.00000000000E+00 -0.00000000000E+00 -0.28641569638E+03  0.28641569638E+03  0.00000000000E+00 0.  1.
         25    2    1    2    0    0  0.55887143004E+01 -0.41461505701E+02 -0.21968236715E+03  0.25623811881E+03  0.12508933173E+03 0.  0.
          5    1    3    3  502    0  0.28480755426E+02 -0.79257527119E+02 -0.16899378276E+03  0.18886312517E+03  0.41800000000E+01 0.  1.
         -5    1    3    3    0  502 -0.22892041126E+02  0.37796021418E+02 -0.50688584387E+02  0.67374993648E+02  0.41800000000E+01 0.  1.
        -11    1    1    2    0    0  0.22664401115E+02  0.47697102435E+02  0.28527480328E+02  0.60020877971E+02  0.00000000000E+00 0. -1.
         11    1    1    2    0    0 -0.28253115415E+02 -0.62355967330E+01 -0.26310458405E+02  0.39107050755E+02  0.00000000000E+00 0.  1.
</event>
<event>
 7    1  0.2530765E-009  0.1134058E+03  0.7561462E-02  0.1254390E+00
          2   -1    0    0  501    0  0.00000000000E+00  0.00000000000E+00  0.30087718310E+03  0.30087718310E+03  0.00000000000E+00 0. -1.
         -2   -1    0    0    0  501 -0.00000000000E+00 -0.00000000000E+00 -0.87812016450E+02  0.87812016450E+02  0.00000000000E+00 0.  1.
         25    2    1    2    0    0 -0.40535532503E+02  0.74936586222E+02  0.11520952475E+02  0.15178682597E+03  0.12509151387E+03 0.  0.
          5    1    3    3  502    0 -0.33727349625E+02  0.16058745954E+01 -0.46724115876E+02  0.57799034164E+02  0.41800000000E+01 0. -1.
         -5    1    3    3    0  502 -0.68081828786E+01  0.73330711627E+02  0.58245068351E+02  0.93987791809E+02  0.41800000000E+01 0. -1.
        -11    1    1    2    0    0 -0.25126175325E+02 -0.11179866603E+02  0.81063353190E+02  0.85601292829E+02  0.00000000000E+00 0. -1.
         11    1    1    2    0    0  0.65661707828E+02 -0.63756719619E+02  0.12048086098E+03  0.15130108074E+03  0.00000000000E+00 0.  1.
</event>
<event>
 7    1  0.2530765E-009  0.1116137E+03  0.7561462E-02  0.1257610E+00
          1   -1    0    0  501    0  0.00000000000E+00  0.00000000000E+00  0.13647706601E+03  0.13647706601E+03  0.00000000000E+00 0. -1.
         -1   -1    0    0    0  501 -0.00000000000E+00 -0.00000000000E+00 -0.11588395550E+03  0.11588395550E+03  0.00000000000E+00 0.  1.
         25    2    1    2    0    0  0.30859237954E+02 -0.54987178568E+02  0.16538223602E+02  0.14105800926E+03  0.12509183332E+03 0.  0.
          5    1    3    3  502    0  0.63895277755E+02 -0.21392463103E+02 -0.30739920250E+02  0.74179910313E+02  0.41800000000E+01 0. -1.
         -5    1    3    3    0  502 -0.33036039801E+02 -0.33594715465E+02  0.47278143852E+02  0.66878098949E+02  0.41800000000E+01 0. -1.
        -11    1    1    2    0    0  0.21728898323E+02 -0.10740573386E+02 -0.95164045808E+01  0.26039717647E+02  0.00000000000E+00 0.  1.
         11    1    1    2    0    0 -0.52588136277E+02  0.65727751954E+02  0.13571291491E+02  0.85263294604E+02  0.00000000000E+00 0. -1.
</event>
<event>
 7    1  0.2530765E-009  0.1608478E+03  0.7561462E-02  0.1187743E+00
         -1   -1    0    0    0  501 -0.00000000000E+00  0.00000000000E+00  0.25147541435E+02  0.25147541435E+02  0.00000000000E+00 0.  1.
          1   -1    0    0  501    0  0.00000000000E+00 -0.00000000000E+00 -0.10854742496E+04  0.10854742496E+04  0.00000000000E+00 0. -1.
         25    2    1    2    0    0  0.12172722189E+03 -0.25238972842E+02 -0.58054207448E+03  0.60673836810E+03  0.12509126580E+03 0.  0.
          5    1    3    3  502    0  0.14199997142E+03 -0.32613699054E+02 -0.55080089745E+03  0.56976025334E+03  0.41800000000E+01 0. -1.
         -5    1    3    3    0  502 -0.20272749530E+02  0.73747262119E+01 -0.29741177031E+02  0.36978114762E+02  0.41800000000E+01 0. -1.
        -11    1    1    2    0    0 -0.12113074858E+03 -0.73658698419E+01 -0.37846501329E+03  0.39744519192E+03  0.00000000000E+00 0. -1.
         11    1    1    2    0    0 -0.59647331071E+00  0.32604842684E+02 -0.10131962042E+03  0.10643823105E+03  0.00000000000E+00 0.  1.
</event>
<event>
 7    1  0.2530765E-009  0.1319391E+03  0.7561462E-02  0.1224606E+00
          2   -1    0    0  501    0  0.00000000000E+00  0.00000000000E+00  0.12075963011E+04  0.12075963011E+04  0.00000000000E+00 0. -1.
         -2   -1    0    0    0  501 -0.00000000000E+00 -0.00000000000E+00 -0.18813334845E+02  0.18813334845E+02  0.00000000000E+00 0.  1.
         25    2    1    2    0    0 -0.85124796745E+02  0.35051550424E+02  0.77414901672E+03  0.78957492053E+03  0.12508802033E+03 0.  0.
          5    1    3    3  502    0 -0.25980216984E+01  0.64586827373E+02  0.25721684290E+03  0.26524740274E+03  0.41800000000E+01 0. -1.
         -5    1    3    3    0  502 -0.82526775047E+02 -0.29535276949E+02  0.51693217382E+03  0.52432751779E+03  0.41800000000E+01 0. -1.
        -11    1    1    2    0    0  0.93805121479E+02 -0.23147080385E+02  0.41023443845E+03  0.42145875556E+03  0.00000000000E+00 0. -1.
         11    1    1    2    0    0 -0.86803247341E+01 -0.11904470040E+02  0.43995111124E+01  0.15375959887E+02  0.00000000000E+00 0.  1.
</event>
<event>
 7    1  0.2530765E-009  0.7776686E+02  0.7561462E-02  0.1335511E+00
         -1   -1    0    0    0  501 -0.00000000000E+00  0.00000000000E+00  0.12569574718E+03  0.12569574718E+03  0.00000000000E+00 0.  1.
          1   -1    0    0  501    0  0.00000000000E+00 -0.00000000000E+00 -0.10814317851E+03  0.10814317851E+03  0.00000000000E+00 0. -1.
         25    2    1    2    0    0 -0.34889425485E+02  0.26571356470E+02  0.10575932852E+02  0.13297578534E+03  0.12508956846E+03 0.  0.
          5    1    3    3  502    0  0.36443438820E+02  0.12976955690E+02 -0.30502420459E+02  0.49440829947E+02  0.41800000000E+01 0.  1.
         -5    1    3    3    0  502 -0.71332864304E+02  0.13594400780E+02  0.41078353310E+02  0.83534955397E+02  0.41800000000E+01 0.  1.
        -11    1    1    2    0    0  0.25719587108E+02 -0.20487988699E+02  0.48115317524E+02  0.58278114437E+02  0.00000000000E+00 0.  1.
         11    1    1    2    0    0  0.91698383765E+01 -0.60833677708E+01 -0.41138681703E+02  0.42585025907E+02  0.00000000000E+00 0. -1.
</event>
<event>
 7    1  0.2530765E-009  0.1104590E+03  0.7561462E-02  0.1259722E+00
         -1   -1    0    0    0  501 -0.00000000000E+00  0.00000000000E+00  0.10336038695E+03  0.10336038695E+03  0.00000000000E+00 0.  1.
          1   -1    0    0  501    0  0.00000000000E+00 -0.00000000000E+00 -0.17148469770E+03  0.17148469770E+03  0.00000000000E+00 0. -1.
         25    2    1    2    0    0  0.52646601456E+02 -0.43215218582E+02 -0.18953689436E+02  0.14368472870E+03  0.12508732613E+03 0.  0.
          5    1    3    3  502    0 -0.22779411949E+01 -0.67040938399E+02  0.22351538300E+02  0.70828949603E+02  0.41800000000E+01 0. -1.
         -5    1    3    3    0  502  0.54924542651E+02  0.23825719817E+02 -0.41305227736E+02  0.72855779102E+02  0.41800000000E+01 0. -1.
        -11    1    1    2    0    0 -0.63803869154E+02  0.18273103413E+02 -0.70255437424E+02  0.96647123677E+02  0.00000000000E+00 0. -1.
         11    1    1    2    0    0  0.11157267698E+02  0.24942115169E+02  0.21084816101E+02  0.34513232268E+02  0.00000000000E+00 0.  1.
</event>
<event>
 7    1  0.2530765E-009  0.1056739E+03  0.7561462E-02  0.1268798E+00
          2   -1    0    0  501    0  0.00000000000E+00  0.00000000000E+00  0.24086752085E+03  0.24086752085E+03  0.00000000000E+00 0. -1.
         -2   -1    0    0    0  501 -0.00000000000E+00 -0.00000000000E+00 -0.52659668197E+02  0.52659668197E+02  0.00000000000E+00 0.  1.
         25    2    1    2    0    0 -0.10126593567E+02 -0.16888305315E+02  0.77090468832E+02  0.14824922141E+03  0.12508848273E+03 0.  0.
          5    1    3    3  502    0  0.23911244838E+02  0.46186378226E+02  0.17774458902E+02  0.55121075394E+02  0.41800000000E+01 0.  1.
         -5    1    3    3    0  502 -0.34037838405E+02 -0.63074683541E+02  0.59316009930E+02  0.93128146020E+02  0.41800000000E+01 0.  1.
        -11    1    1    2    0    0  0.27483442246E+01 -0.34928829764E+02  0.71540833277E+02  0.79659697279E+02  0.00000000000E+00 0.  1.
         11    1    1    2    0    0  0.73782493425E+01  0.51817135079E+02  0.39576550543E+02  0.65618270352E+02  0.00000000000E+00 0. -1.
</event>
<event>
 7    1  0.2530765E-009  0.1240837E+03  0.7561462E-02  0.1236508E+00
         -3   -1    0    0    0  501 -0.00000000000E+00  0.00000000000E+00  0.13324793539E+03  0.13324793539E+03  0.00000000000E+00 0.  1.
          3   -1    0    0  501    0  0.00000000000E+00 -0.00000000000E+00 -0.12611247660E+03  0.12611247660E+03  0.00000000000E+00 0. -1.
         25    2    1    2    0    0 -0.36294518959E+02  0.60418024882E+02 -0.99401732365E+01  0.14391696874E+03  0.12508260075E+03 0.  0.
          5    1    3    3  502    0  0.45183455142E+02  0.33826875294E+02  0.49959280313E+01  0.56817548413E+02  0.41800000000E+01 0. -1.
         -5    1    3    3    0  502 -0.81477974101E+02  0.26591149588E+02 -0.14936101268E+02  0.87099420326E+02  0.41800000000E+01 0. -1.
        -11    1    1    2    0    0  0.15575695570E+02 -0.77412387918E+02 -0.71925352453E+01  0.79290684566E+02  0.00000000000E+00 0.  1.
         11    1    1    2    0    0  0.20718823389E+02  0.16994363036E+02  0.24268167267E+02  0.36152758680E+02  0.00000000000E+00 0. -1.
</event>
<event>
 7    1  0.2530765E-009  0.6287388E+02  0.7561462E-02  0.1386152E+00
          1   -1    0    0  501    0  0.00000000000E+00  0.00000000000E+00  0.51857745191E+03  0.51857745191E+03  0.00000000000E+00 0. -1.
         -1   -1    0    0    0  501 -0.00000000000E+00 -0.00000000000E+00 -0.23245775801E+02  0.23245775801E+02  0.00000000000E+00 0.  1.
         25    2    1    2    0    0 -0.14998739665E+02 -0.96970113290E+01  0.41266744910E+03  0.43157924204E+03  0.12508886598E+03 0.  0.
          5    1    3    3  502    0 -0.73578980135E+01  0.21285984889E+02  0.39340505559E+03  0.39407136660E+03  0.41800000000E+01 0. -1.
         -5    1    3    3    0  502 -0.76408416513E+01 -0.30982996218E+02  0.19262393510E+02  0.37507875433E+02  0.41800000000E+01 0. -1.
        -11    1    1    2    0    0  0.25896890098E+02  0.34749075504E+02  0.63474482574E+02  0.76858032132E+02  0.00000000000E+00 0. -1.
         11    1    1    2    0    0 -0.10898150433E+02 -0.25052064175E+02  0.19189744437E+02  0.33385953541E+02  0.00000000000E+00 0.  1.
</event>
<event>
 7    1  0.2530765E-009  0.1404679E+03  0.7561462E-02  0.1212701E+00
         -2   -1    0    0    0  501 -0.00000000000E+00  0.00000000000E+00  0.63177691680E+02  0.63177691680E+02  0.00000000000E+00 0.  1.
          2   -1    0    0  501    0  0.00000000000E+00 -0.00000000000E+00 -0.36814280897E+03  0.36814280897E+03  0.00000000000E+00 0. -1.
         25    2    1    2    0    0  0.94843724309E+02  0.20187722680E+02 -0.23344625664E+03  0.28204398774E+03  0.12509508420E+03 0.  0.
          5    1    3    3  502    0 -0.68288038753E+01 -0.35232968502E+02 -0.26290197786E+02  0.44683794954E+02  0.41800000000E+01 0. -1.
         -5    1    3    3    0  502  0.10167252818E+03  0.55420691183E+02 -0.20715605885E+03  0.23736019278E+03  0.41800000000E+01 0. -1.
        -11    1    1    2    0    0 -0.83267599753E+02 -0.49879618422E+02 -0.64800825073E+02  0.11670739665E+03  0.00000000000E+00 0.  1.
         11    1    1    2    0    0 -0.11576124556E+02  0.29691895742E+02 -0.67180355834E+01  0.32569116270E+02  0.00000000000E+00 0. -1.
</event>
<event>
 7    1  0.2530765E-009  0.9090517E+02  0.7561462E-02  0.1300674E+00
         -2   -1    0    0    0  501 -0.00000000000E+00  0.00000000000E+00  0.32366472279E+02  0.32366472279E+02  0.00000000000E+00 0. -1.
          2   -1    0    0  501    0  0.00000000000E+00 -0.00000000000E+00 -0.36270100059E+03  0.36270100059E+03  0.00000000000E+00 0.  1.
         25    2    1    2    0    0  0.79658234219E+01  0.21149469540E+02 -0.16136484813E+03  0.20541871127E+03  0.12508988097E+03 0.  0.
          5    1    3    3  502    0 -0.72095080172E+01 -0.38868482899E+02 -0.87930921270E+01  0.40712735573E+02  0.41800000000E+01 0.  1.
         -5    1    3    3    0  502  0.15175331439E+02  0.60017952439E+02 -0.15257175601E+03  0.16470597570E+03  0.41800000000E+01 0.  1.
        -11    1    1    2    0    0 -0.17015785438E+02  0.26509249835E+02 -0.10335578740E+03  0.10804950749E+03  0.00000000000E+00 0.  1.
         11    1    1    2    0    0  0.90499620162E+01 -0.47658719375E+02 -0.65613892781E+02  0.81599254107E+02  0.00000000000E+00 0. -1.
</event>
<event>
 7    1  0.2530765E-009  0.1113881E+03  0.7561462E-02  0.1258021E+00
          1   -1    0    0  501    0  0.00000000000E+00  0.00000000000E+00  0.23542133537E+03  0.23542133537E+03  0.00000000000E+00 0. -1.
         -1   -1    0    0    0  501 -0.00000000000E+00 -0.00000000000E+00 -0.63049673424E+02  0.63049673424E+02  0.00000000000E+00 0.  1.
         25    2    1    2    0    0 -0.58353276951E+00  0.37294743256E+02  0.44612926555E+02  0.13794976522E+03  0.12509430892E+03 0.  0.
          5    1    3    3  502    0 -0.33784276062E+02 -0.34754868695E+02  0.42278220009E+01  0.48832623173E+02  0.41800000000E+01 0.  1.
         -5    1    3    3    0  502  0.33200743293E+02  0.72049611951E+02  0.40385104554E+02  0.89117142051E+02  0.41800000000E+01 0.  1.
        -11    1    1    2    0    0  0.49829274729E+01 -0.65726723120E+02  0.70957683174E+02  0.96849494060E+02  0.00000000000E+00 0.  1.
         11    1    1    2    0    0 -0.43993947033E+01  0.28431979864E+02  0.56801052215E+02  0.63671749509E+02  0.00000000000E+00 0. -1.
</event>
<event>
 7    1  0.2530765E-009  0.1377127E+03  0.7561462E-02  0.1216440E+00
          2   -1    0    0  501    0  0.00000000000E+00  0.00000000000E+00  0.82233320803E+03  0.82233320803E+03  0.00000000000E+00 0. -1.
         -2   -1    0    0    0  501 -0.00000000000E+00 -0.00000000000E+00 -0.36075467911E+02  0.36075467911E+02  0.00000000000E+00 0.  1.
         25    2    1    2    0    0 -0.11293730969E+01 -0.13666780843E+03  0.41593403335E+03  0.45533207164E+03  0.12508720966E+03 0.  0.
          5    1    3    3  502    0 -0.46271138712E+01 -0.10252870812E+03  0.12249074062E+03  0.15985931348E+03  0.41800000000E+01 0. -1.
         -5    1    3    3    0  502  0.34977407743E+01 -0.34139100314E+02  0.29344329274E+03  0.29547275816E+03  0.41800000000E+01 0. -1.
        -11    1    1    2    0    0  0.10579800472E+02  0.67047759464E+02  0.82663666524E+02  0.10696081521E+03  0.00000000000E+00 0.  1.
         11    1    1    2    0    0 -0.94504273750E+01  0.69620048968E+02  0.28766004025E+03  0.29611578909E+03  0.00000000000E+00 0. -1.
</event>
<event>
 7    1  0.2530765E-009  0.8599858E+02  0.7561462E-02  0.1312842E+00
         -2   -1    0    0    0  501 -0.00000000000E+00  0.00000000000E+00  0.37939475147E+02  0.37939475147E+02  0.00000000000E+00 0.  1.
          2   -1    0    0  501    0  0.00000000000E+00 -0.00000000000E+00 -0.39318972526E+03  0.39318972526E+03  0.00000000000E+00 0. -1.
         25    2    1    2    0    0  0.44677021620E+02 -0.29724157945E+02 -0.21842829096E+03  0.25736706487E+03  0.12508927198E+03 0.  0.
          5    1    3    3  502    0 -0.86175094563E+01 -0.37128718000E+02 -0.67707186538E+01  0.38937362528E+02  0.41800000000E+01 0. -1.
         -5    1    3    3    0  502  0.53294531077E+02  0.74045600551E+01 -0.21165757231E+03  0.21842970235E+03  0.41800000000E+01 0. -1.
        -11    1    1    2    0    0 -0.37340072935E+02  0.47520054589E+02 -0.14157516917E+03  0.15393493808E+03  0.00000000000E+00 0. -1.
         11    1    1    2    0    0 -0.73369486854E+01 -0.17795896644E+02  0.47532100205E+01  0.19827197454E+02  0.00000000000E+00 0.  1.
</event>
<event>
 7    1  0.2530765E-009  0.8706783E+02  0.7561462E-02  0.1310112E+00
         -2   -1    0    0    0  501 -0.00000000000E+00  0.00000000000E+00  0.71994188229E+02  0.71994188229E+02  0.00000000000E+00 0.  1.
          2   -1    0    0  501    0  0.00000000000E+00 -0.00000000000E+00 -0.16755521820E+03  0.16755521820E+03  0.00000000000E+00 0. -1.
         25    2    1    2    0    0  0.10956327639E+02  0.16324199118E+02 -0.50412916516E+02  0.13628968321E+03  0.12508754936E+03 0.  0.
          5    1    3    3  502    0  0.11335068936E+02  0.53187902856E+02  0.18856086803E+02  0.57710148220E+02  0.41800000000E+01 0. -1.
         -5    1    3    3    0  502 -0.37874129655E+00 -0.36863703738E+02 -0.69269003320E+02  0.78579534990E+02  0.41800000000E+01 0. -1.
        -11    1    1    2    0    0 -0.45678698570E+02 -0.13608214932E+02 -0.18585058848E+01  0.47698858066E+02  0.00000000000E+00 0.  1.
         11    1    1    2    0    0  0.34722370931E+02 -0.27159841859E+01 -0.43289607571E+02  0.55560865155E+02  0.00000000000E+00 0. -1.
</event>
<event>
 7    1  0.2530765E-009  0.8825216E+02  0.7561462E-02  0.1307140E+00
         -2   -1    0    0    0  501 -0.00000000000E+00  0.00000000000E+00  0.41975409872E+02  0.41975409872E+02  0.00000000000E+00 0. -1.
          2   -1    0    0  501    0  0.00000000000E+00 -0.00000000000E+00 -0.33588357714E+03  0.33588357714E+03  0.00000000000E+00 0.  1.
         25    2    1    2    0    0  0.15313063528E+02  0.23307917906E+02 -0.98720453425E+02  0.16177418805E+03  0.12508961205E+03 0.  0.
          5    1    3    3  502    0  0.47827939769E+02  0.14687981397E+02 -0.11402008849E+03  0.12458451589E+03  0.41800000000E+01 0.  1.
         -5    1    3    3    0  502 -0.32514876241E+02  0.86199365094E+01  0.15299635065E+02  0.37189672162E+02  0.41800000000E+01 0.  1.
        -11    1    1    2    0    0 -0.51725677206E+02 -0.21279206804E+02 -0.10945024864E+03  0.12291341364E+03  0.00000000000E+00 0.  1.
         11    1    1    2    0    0  0.36412613678E+02 -0.20287111023E+01 -0.85737465196E+02  0.93171385317E+02  0.00000000000E+00 0. -1.
</event>
<event>
 7    1  0.2530765E-009  0.1103400E+03  0.7561462E-02  0.1259942E+00
          1   -1    0    0  501    0  0.00000000000E+00  0.00000000000E+00  0.24524980426E+03  0.24524980426E+03  0.00000000000E+00 0. -1.
         -1   -1    0    0    0  501 -0.00000000000E+00 -0.00000000000E+00 -0.68375249504E+02  0.68375249504E+02  0.00000000000E+00 0.  1.
         25    2    1    2    0    0  0.42184897903E+02 -0.13953481271E+01  0.17334005356E+03  0.21788892852E+03  0.12508916178E+03 0.  0.
          5    1    3    3  502    0  0.50340121062E+02 -0.56594271915E+02  0.93713274772E+02  0.12056819510E+03  0.41800000000E+01 0. -1.
         -5    1    3    3    0  502 -0.81552231592E+01  0.55198923788E+02  0.79626778789E+02  0.97320733415E+02  0.41800000000E+01 0. -1.
        -11    1    1    2    0    0 -0.34251643118E+02 -0.36556217444E+02 -0.15642809552E+02  0.52480754385E+02  0.00000000000E+00 0. -1.
         11    1    1    2    0    0 -0.79332547847E+01  0.37951565571E+02  0.19177310747E+02  0.43255370860E+02  0.00000000000E+00 0.  1.
</event>
<event>
 7    1  0.2798405E-009  0.1596149E+03  0.7561462E-02  0.1189132E+00
          1   -1    0    0  501    0  0.00000000000E+00  0.00000000000E+00  0.58093342915E+03  0.58093342915E+03  0.00000000000E+00 0. -1.
         -1   -1    0    0    0  501 -0.00000000000E+00 -0.00000000000E+00 -0.53911960754E+02  0.53911960754E+02  0.00000000000E+00 0.  1.
         25    2    1    2    0    0  0.23148628239E+02 -0.13089357618E+03  0.20386619539E+03  0.27363866809E+03  0.12509079813E+03 0.  0.
          5    1    3    3  502    0 -0.60761112715E+01 -0.14780677273E+03  0.17341521233E+03  0.22797822146E+03  0.41800000000E+01 0. -1.
         -5    1    3    3    0  502  0.29224739511E+02  0.16913196551E+02  0.30450983056E+02  0.45660446626E+02  0.41800000000E+01 0. -1.
        -11    1    1    2    0    0 -0.30919253481E+02  0.80637582587E+02  0.28452993190E+03  0.29734777973E+03  0.00000000000E+00 0. -1.
         11    1    1    2    0    0  0.77706252420E+01  0.50255993593E+02  0.38625341102E+02  0.63858942082E+02  0.00000000000E+00 0.  1.
</event>
<event>
 7    1  0.2530765E-009  0.9157902E+02  0.7561462E-02  0.1299072E+00
         -1   -1    0    0    0  501 -0.00000000000E+00  0.00000000000E+00  0.24202165920E+02  0.24202165920E+02  0.00000000000E+00 0.  1.
          1   -1    0    0  501    0  0.00000000000E+00 -0.00000000000E+00 -0.56120346031E+03  0.56120346031E+03  0.00000000000E+00 0. -1.
         25    2    1    2    0    0  0.17741302175E+02 -0.40902398419E+02 -0.29778767692E+03  0.32605739441E+03  0.12509262139E+03 0.  0.
          5    1    3    3  502    0 -0.25506473234E+02 -0.33107883653E+02 -0.27139540400E+03  0.27462638229E+03  0.41800000000E+01 0.  1.
         -5    1    3    3    0  502  0.43247775410E+02 -0.77945147658E+01 -0.26392272924E+02  0.51431012127E+02  0.41800000000E+01 0.  1.
        -11    1    1    2    0    0  0.27542822813E+02 -0.96123602084E+01 -0.10480261539E+03  0.10878691443E+03  0.00000000000E+00 0. -1.
         11    1    1    2    0    0 -0.45284124988E+02  0.50514758627E+02 -0.13441100208E+03  0.15056131739E+03  0.00000000000E+00 0.  1.
</event>
<event>
 7    1  0.2530765E-009  0.1141117E+03  0.7561462E-02  0.1253140E+00
          1   -1    0    0  501    0  0.00000000000E+00  0.00000000000E+00  0.62321062436E+02  0.62321062436E+02  0.00000000000E+00 0. -1.
         -1   -1    0    0    0  501 -0.00000000000E+00 -0.00000000000E+00 -0.21434191615E+03  0.21434191615E+03  0.00000000000E+00 0.  1.
         25    2    1    2    0    0 -0.12122445603E+02  0.38693035990E+02 -0.92473495351E+02  0.16075728812E+03  0.12508978223E+03 0.  0.
          5    1    3    3  502    0 -0.10572565301E+02  0.84397458395E+02 -0.53890379338E+02  0.10077874531E+03  0.41800000000E+01 0.  1.
         -5    1    3    3    0  502 -0.15498803021E+01 -0.45704422404E+02 -0.38583116014E+02  0.59978542810E+02  0.41800000000E+01 0.  1.
        -11    1    1    2    0    0 -0.38221789006E+02 -0.22009156458E+02 -0.39496220732E+02  0.59205232665E+02  0.00000000000E+00 0.  1.
         11    1    1    2    0    0  0.50344234609E+02 -0.16683879532E+02 -0.20051137628E+02  0.56700457801E+02  0.00000000000E+00 0. -1.
</event>
<event>
 7    1  0.2530765E-009  0.9171410E+02  0.7561462E-02  0.1298753E+00
          1   -1    0    0  501    0  0.00000000000E+00  0.00000000000E+00  0.15637855194E+03  0.15637855194E+03  0.00000000000E+00 0. -1.
         -1   -1    0    0    0  501 -0.00000000000E+00 -0.00000000000E+00 -0.15021961578E+03  0.15021961578E+03  0.00000000000E+00 0.  1.
         25    2    1    2    0    0 -0.30269159044E+02  0.16155805514E+02  0.10567093425E+03  0.16730320665E+03  0.12508710793E+03 0.  0.
          5    1    3    3  502    0  0.92208278359E+01 -0.48239088969E+02  0.64481474795E+02  0.81162592136E+02  0.41800000000E+01 0.  1.
         -5    1    3    3    0  502 -0.39489986880E+02  0.64394894483E+02  0.41189459457E+02  0.86140614519E+02  0.41800000000E+01 0.  1.
        -11    1    1    2    0    0  0.19542566640E+02 -0.33094646575E+02 -0.66977606835E+00  0.38439772929E+02  0.00000000000E+00 0. -1.
         11    1    1    2    0    0  0.10726592404E+02  0.16938841061E+02 -0.98842222019E+02  0.10085518814E+03  0.00000000000E+00 0.  1.
</event>
<event>
 7    1  0.2530765E-009  0.1239464E+03  0.7561462E-02  0.1236725E+00
          1   -1    0    0  501    0  0.00000000000E+00  0.00000000000E+00  0.18877415797E+03  0.18877415797E+03  0.00000000000E+00 0. -1.
         -1   -1    0    0    0  501 -0.00000000000E+00 -0.00000000000E+00 -0.10246671278E+03  0.10246671278E+03  0.00000000000E+00 0.  1.
         25    2    1    2    0    0  0.64013029479E+02 -0.23822163560E+02 -0.62457340932E+01  0.14266330195E+03  0.12509454468E+03 0.  0.
          5    1    3    3  502    0 -0.30039371321E+02  0.13594966581E+02 -0.22393006516E+02  0.40076253399E+02  0.41800000000E+01 0.  1.
         -5    1    3    3    0  502  0.94052400800E+02 -0.37417130141E+02  0.16147272423E+02  0.10258704855E+03  0.41800000000E+01 0.  1.
        -11    1    1    2    0    0 -0.77194073844E+02  0.44294413075E+02  0.57719167234E+02  0.10607743555E+03  0.00000000000E+00 0.  1.
         11    1    1    2    0    0  0.13181044365E+02 -0.20472249514E+02  0.34834012049E+02  0.42500133249E+02  0.00000000000E+00 0. -1.
</event>
<event>
 7    1  0.2530765E-009  0.1022649E+03  0.7561462E-02  0.1275604E+00
          1   -1    0    0  501    0  0.00000000000E+00  0.00000000000E+00  0.49904898339E+03  0.49904898339E+03  0.00000000000E+00 0. -1.
         -1   -1    0    0    0  501 -0.00000000000E+00 -0.00000000000E+00 -0.53950339185E+02  0.53950339185E+02  0.00000000000E+00 0.  1.
         25    2    1    2    0    0 -0.66157321385E+02  0.25831289229E+02  0.41385240506E+03  0.43813762671E+03  0.12508685020E+03 0.  0.
          5    1    3    3  502    0  0.15866506235E+02 -0.21575381203E+01  0.13453328823E+01  0.16603713784E+02  0.41800000000E+01 0.  1.
         -5    1    3    3    0  502 -0.82023827620E+02  0.27988827349E+02  0.41250707218E+03  0.42153391293E+03  0.41800000000E+01 0.  1.
        -11    1    1    2    0    0  0.41709361471E+02 -0.51161088187E+02 -0.25546936446E+01  0.66057961204E+02  0.00000000000E+00 0.  1.
         11    1    1    2    0    0  0.24447959915E+02  0.25329798958E+02  0.33800932793E+02  0.48803734662E+02  0.00000000000E+00 0. -1.
</event>
<event>
 7    1  0.2530765E-009  0.1082031E+03  0.7561462E-02  0.1263934E+00
         -3   -1    0    0    0  501 -0.00000000000E+00  0.00000000000E+00  0.27897175436E+02  0.27897175436E+02  0.00000000000E+00 0.  1.
          3   -1    0    0  501    0  0.00000000000E+00 -0.00000000000E+00 -0.76459055961E+03  0.76459055961E+03  0.00000000000E+00 0. -1.
         25    2    1    2    0    0  0.59467479570E+01  0.28172801351E+02 -0.65563913653E+03  0.66808681923E+03  0.12509296593E+03 0.  0.
          5    1    3    3  502    0  0.16535039003E+02 -0.45066373449E+02 -0.36404997709E+03  0.36722505872E+03  0.41800000000E+01 0. -1.
         -5    1    3    3    0  502 -0.10588291046E+02  0.73239174800E+02 -0.29158915944E+03  0.30086176050E+03  0.41800000000E+01 0. -1.
        -11    1    1    2    0    0  0.16141697076E+02  0.28790049952E+02 -0.24021633984E+02  0.40822301013E+02  0.00000000000E+00 0. -1.
         11    1    1    2    0    0 -0.22088445033E+02 -0.56962851303E+02 -0.57032613660E+02  0.83578614809E+02  0.00000000000E+00 0.  1.
</event>
<event>
 7    1  0.2530765E-009  0.1611340E+03  0.7561462E-02  0.1187422E+00
          2   -1    0    0  501    0  0.00000000000E+00  0.00000000000E+00  0.51317943475E+03  0.51317943475E+03  0.00000000000E+00 0. -1.
         -2   -1    0    0    0  501 -0.00000000000E+00 -0.00000000000E+00 -0.75658876653E+02  0.75658876653E+02  0.00000000000E+00 0.  1.
         25    2    1    2    0    0 -0.10699093758E+03  0.11604306422E+03  0.29832259271E+03  0.35994025005E+03  0.12509021067E+03 0.  0.
          5    1    3    3  502    0  0.12639318329E+01  0.57414145294E+01  0.13446158590E+03  0.13465493622E+03  0.41800000000E+01 0. -1.
         -5    1    3    3    0  502 -0.10825486941E+03  0.11030164969E+03  0.16386100681E+03  0.22528531383E+03  0.41800000000E+01 0. -1.
        -11    1    1    2    0    0  0.63861583596E+02 -0.48005290125E+02  0.12309431659E+03  0.14674815337E+03  0.00000000000E+00 0. -1.
         11    1    1    2    0    0  0.43129353984E+02 -0.68037774091E+02  0.16103648798E+02  0.82149907991E+02  0.00000000000E+00 0.  1.
</event>
<event>
 7    1  0.2530765E-009  0.8241163E+02  0.7561462E-02  0.1322344E+00
          1   -1    0    0  501    0  0.00000000000E+00  0.00000000000E+00  0.19660261234E+03  0.19660261234E+03  0.00000000000E+00 0. -1.
         -1   -1    0    0    0  501 -0.00000000000E+00 -0.00000000000E+00 -0.65424708816E+02  0.65424708816E+02  0.00000000000E+00 0.  1.
         25    2    1    2    0    0 -0.32380271284E+02 -0.23973979687E+01  0.59773989835E+02  0.14239062936E+03  0.12509169430E+03 0.  0.
          5    1    3    3  502    0 -0.28898396946E+02  0.26736856944E+02  0.91060508889E+02  0.99294841479E+02  0.41800000000E+01 0.  1.
         -5    1    3    3    0  502 -0.34818743379E+01 -0.29134254913E+02 -0.31286519054E+02  0.43095787877E+02  0.41800000000E+01 0.  1.
        -11    1    1    2    0    0  0.23249280739E+02 -0.43217686010E+02  0.42083298312E+02  0.64647516857E+02  0.00000000000E+00 0.  1.
         11    1    1    2    0    0  0.91309905451E+01  0.45615083979E+02  0.29320615375E+02  0.54989174941E+02  0.00000000000E+00 0. -1.
</event>
<event>
 7    1  0.2530765E-009  0.2375227E+03  0.7561462E-02  0.1121454E+00
         -1   -1    0    0    0  501 -0.00000000000E+00  0.00000000000E+00  0.28436422217E+02  0.28436422217E+02  0.00000000000E+00 0.  1.
          1   -1    0    0  501    0  0.00000000000E+00 -0.00000000000E+00 -0.23168869347E+04  0.23168869347E+04  0.00000000000E+00 0. -1.
         25    2    1    2    0    0  0.20366076700E+03 -0.10656501944E+03 -0.13201410158E+04  0.13458282260E+04  0.12508997134E+03 0.  0.
          5    1    3    3  502    0  0.83289944385E+02 -0.19777401252E+02 -0.81010755295E+03  0.81462879902E+03  0.41800000000E+01 0.  1.
         -5    1    3    3    0  502  0.12037082262E+03 -0.86787618189E+02 -0.51003346284E+03  0.53119942698E+03  0.41800000000E+01 0.  1.
        -11    1    1    2    0    0 -0.16399368141E+03  0.49341820683E+02 -0.57092736596E+03  0.59605922525E+03  0.00000000000E+00 0. -1.
         11    1    1    2    0    0 -0.39667085590E+02  0.57223198758E+02 -0.39738213072E+03  0.40343590566E+03  0.00000000000E+00 0.  1.
</event>
<event>
 7    1  0.2530765E-009  0.1443706E+03  0.7561462E-02  0.1207566E+00
         -1   -1    0    0    0  501 -0.00000000000E+00  0.00000000000E+00  0.69889742609E+02  0.69889742609E+02  0.00000000000E+00 0.  1.
          1   -1    0    0  501    0  0.00000000000E+00 -0.00000000000E+00 -0.43224898944E+03  0.43224898944E+03  0.00000000000E+00 0. -1.
         25    2    1    2    0    0 -0.78631074193E+02  0.10223891968E+03 -0.25349639204E+03  0.31071177118E+03  0.12508293827E+03 0.  0.
          5    1    3    3  502    0  0.11955481980E+02 -0.68058262552E+01 -0.10269556541E+03  0.10369717631E+03  0.41800000000E+01 0. -1.
         -5    1    3    3    0  502 -0.90586556173E+02  0.10904474593E+03 -0.15080082663E+03  0.20701459487E+03  0.41800000000E+01 0. -1.
        -11    1    1    2    0    0  0.35520809355E+02 -0.70706532054E+02 -0.10933723525E+02  0.79879208074E+02  0.00000000000E+00 0.  1.
         11    1    1    2    0    0  0.43110264838E+02 -0.31532387623E+02 -0.97929131264E+02  0.11154775280E+03  0.00000000000E+00 0. -1.
</event>
<event>
 7    1  0.2530765E-009  0.1511666E+03  0.7561462E-02  0.1199047E+00
          1   -1    0    0  501    0  0.00000000000E+00  0.00000000000E+00  0.33477925879E+03  0.33477925879E+03  0.00000000000E+00 0. -1.
         -1   -1    0    0    0  501 -0.00000000000E+00 -0.00000000000E+00 -0.94637675308E+02  0.94637675308E+02  0.00000000000E+00 0.  1.
         25    2    1    2    0    0 -0.15497061568E+02  0.13968793538E+03  0.11671953594E+03  0.22141209123E+03  0.12508791256E+03 0.  0.
          5    1    3    3  502    0  0.19917833556E+02  0.10764017233E+03  0.17124798331E+02  0.11087767093E+03  0.41800000000E+01 0. -1.
         -5    1    3    3    0  502 -0.35414895124E+02  0.32047763045E+02  0.99594737607E+02  0.11053442030E+03  0.41800000000E+01 0. -1.
        -11    1    1    2    0    0 -0.11179547404E+02 -0.31958955986E+02 -0.91867736554E+01  0.35082103102E+02  0.00000000000E+00 0.  1.
         11    1    1    2    0    0  0.26676608972E+02 -0.10772897939E+03  0.13260882120E+03  0.17292273976E+03  0.00000000000E+00 0. -1.
</event>
<event>
 7    1  0.2530765E-009  0.2561653E+03  0.7561462E-02  0.1109469E+00
          2   -1    0    0  501    0  0.00000000000E+00  0.00000000000E+00  0.73123928523E+02  0.73123928523E+02  0.00000000000E+00 0. -1.
         -2   -1    0    0    0  501 -0.00000000000E+00 -0.00000000000E+00 -0.95407692127E+03  0.95407692127E+03  0.00000000000E+00 0.  1.
         25    2    1    2    0    0 -0.19311496051E+03  0.13596761896E+03 -0.51966501127E+03  0.58436431327E+03  0.12509734331E+03 0.  0.
          5    1    3    3  502    0 -0.14777858502E+03  0.15209376943E+03 -0.36302854690E+03  0.42045002456E+03  0.41800000000E+01 0. -1.
         -5    1    3    3    0  502 -0.45336375482E+02 -0.16126150470E+02 -0.15663646437E+03  0.16391428870E+03  0.41800000000E+01 0. -1.
        -11    1    1    2    0    0  0.66923909865E+02 -0.10067943604E+03 -0.21328291563E+03  0.24516272280E+03  0.00000000000E+00 0.  1.
         11    1    1    2    0    0  0.12619105064E+03 -0.35288182913E+02 -0.14800506585E+03  0.19767381372E+03  0.00000000000E+00 0. -1.
</event>
<event>
 7    1  0.2530765E-009  0.1443419E+03  0.7561462E-02  0.1207603E+00
          2   -1    0    0  501    0  0.00000000000E+00  0.00000000000E+00  0.14464150337E+04  0.14464150337E+04  0.00000000000E+00 0. -1.
         -2   -1    0    0    0  501 -0.00000000000E+00 -0.00000000000E+00 -0.16937042738E+02  0.16937042738E+02  0.00000000000E+00 0.  1.
         25    2    1    2    0    0 -0.10786056429E+03 -0.26818074301E+02  0.85087979137E+03  0.86717838789E+03  0.12509527014E+03 0.  0.
          5    1    3    3  502    0 -0.50943138766E+00 -0.40325008212E+02  0.91007994565E+02  0.99630784813E+02  0.41800000000E+01 0.  1.
         -5    1    3    3    0  502 -0.10735113290E+03  0.13506933911E+02  0.75987179681E+03  0.76754760307E+03  0.41800000000E+01 0.  1.
        -11    1    1    2    0    0  0.53152261711E+02 -0.29960432826E+02  0.32218954522E+03  0.32791598544E+03  0.00000000000E+00 0. -1.
         11    1    1    2    0    0  0.54708302581E+02  0.56778507128E+02  0.25640865442E+03  0.26825770316E+03  0.00000000000E+00 0.  1.
</event>
<event>
 7    1  0.2530765E-009  0.8201610E+02  0.7561462E-02  0.1323425E+00
          1   -1    0    0  501    0  0.00000000000E+00  0.00000000000E+00  0.92541209493E+02  0.92541209493E+02  0.00000000000E+00 0. -1.
         -1   -1    0    0    0  501 -0.00000000000E+00 -0.00000000000E+00 -0.18977242358E+03  0.18977242358E+03  0.00000000000E+00 0.  1.
         25    2    1    2    0    0  0.43221712319E+02 -0.14970703918E+02  0.13779034335E+02  0.13390128931E+03  0.12508978816E+03 0.  0.
          5    1    3    3  502    0  0.32353972554E+02  0.14638001875E+02  0.64662248072E+02  0.73889981490E+02  0.41800000000E+01 0. -1.
         -5    1    3    3    0  502  0.10867739765E+02 -0.29608705793E+02 -0.50883213737E+02  0.60011307822E+02  0.41800000000E+01 0. -1.
        -11    1    1    2    0    0  0.63009427723E+01  0.40331769890E+02 -0.62195225676E+02  0.74394889873E+02  0.00000000000E+00 0.  1.
         11    1    1    2    0    0 -0.49522655091E+02 -0.25361065971E+02 -0.48815022748E+02  0.74017453890E+02  0.00000000000E+00 0. -1.
</event>
<event>
 7    1  0.2530765E-009  0.9807715E+02  0.7561462E-02  0.1284392E+00
          2   -1    0    0  501    0  0.00000000000E+00  0.00000000000E+00  0.10127400939E+03  0.10127400939E+03  0.00000000000E+00 0. -1.
         -2   -1    0    0    0  501 -0.00000000000E+00 -0.00000000000E+00 -0.12796950790E+03  0.12796950790E+03  0.00000000000E+00 0.  1.
         25    2    1    2    0    0 -0.14854769092E+01  0.42846408208E+01  0.21795363173E+02  0.12705463412E+03  0.12508907789E+03 0.  0.
          5    1    3    3  502    0  0.50648166167E+02  0.32510391186E+02 -0.75026591174E+01  0.60794116203E+02  0.41800000000E+01 0.  1.
         -5    1    3    3    0  502 -0.52133643076E+02 -0.28225750365E+02  0.29298022291E+02  0.66260517914E+02  0.41800000000E+01 0.  1.
        -11    1    1    2    0    0 -0.33817193754E+02  0.14042880494E+02  0.34362243843E+01  0.36777883625E+02  0.00000000000E+00 0. -1.
         11    1    1    2    0    0  0.35302670663E+02 -0.18327521314E+02 -0.51927086077E+02  0.65410999548E+02  0.00000000000E+00 0.  1.
</event>
<event>
 7    1  0.2530765E-009  0.1347311E+03  0.7561462E-02  0.1220600E+00
          2   -1    0    0  501    0  0.00000000000E+00  0.00000000000E+00  0.76696097791E+03  0.76696097791E+03  0.00000000000E+00 0.  1.
         -2   -1    0    0    0  501 -0.00000000000E+00 -0.00000000000E+00 -0.27570305045E+02  0.27570305045E+02  0.00000000000E+00 0. -1.
         25    2    1    2    0    0  0.96140692205E+02 -0.15705106236E+02  0.43232914706E+03  0.46048374055E+03  0.12508837218E+03 0.  0.
          5    1    3    3  502    0  0.94702228768E+02  0.24237381529E+02  0.17908361798E+03  0.20406954066E+03  0.41800000000E+01 0.  1.
         -5    1    3    3    0  502  0.14384634366E+01 -0.39942487765E+02  0.25324552908E+03  0.25641419989E+03  0.41800000000E+01 0.  1.
        -11    1    1    2    0    0 -0.32356978554E+02  0.49584985915E+02  0.13182677285E+03  0.14451277774E+03  0.00000000000E+00 0.  1.
         11    1    1    2    0    0 -0.63783713650E+02 -0.33879879679E+02  0.17523475296E+03  0.18953476467E+03  0.00000000000E+00 0. -1.
</event>
<event>
 7    1  0.2530765E-009  0.9489098E+02  0.7561462E-02  0.1291422E+00
         -1   -1    0    0    0  501 -0.00000000000E+00  0.00000000000E+00  0.24446528874E+02  0.24446528874E+02  0.00000000000E+00 0.  1.
          1   -1    0    0  501    0  0.00000000000E+00 -0.00000000000E+00 -0.46670410202E+03  0.46670410202E+03  0.00000000000E+00 0. -1.
         25    2    1    2    0    0  0.17185855277E+01 -0.26530349716E+02 -0.28461270858E+03  0.31202414853E+03  0.12509141612E+03 0.  0.
          5    1    3    3  502    0  0.17943167927E+02 -0.62440105847E+02 -0.77778288971E+02  0.10142809635E+03  0.41800000000E+01 0.  1.
         -5    1    3    3    0  502 -0.16224582400E+02  0.35909756131E+02 -0.20683441961E+03  0.21059605218E+03  0.41800000000E+01 0.  1.
        -11    1    1    2    0    0  0.29349513984E+02  0.41290356450E+02 -0.94250264856E+02  0.10700186883E+03  0.00000000000E+00 0. -1.
         11    1    1    2    0    0 -0.31068099511E+02 -0.14760006734E+02 -0.63394599715E+02  0.72124613545E+02  0.00000000000E+00 0.  1.
</event>
<event>
 7    1  0.3330648E-009  0.9760094E+02  0.7561462E-02  0.1285423E+00
          1   -1    0    0  501    0  0.00000000000E+00  0.00000000000E+00  0.16078591848E+03  0.16078591848E+03  0.00000000000E+00 0. -1.
         -1   -1    0    0    0  501 -0.00000000000E+00 -0.00000000000E+00 -0.11976594848E+03  0.11976594848E+03  0.00000000000E+00 0.  1.
         25    2    1    2    0    0 -0.85477813889E+02 -0.33605162329E+01  0.33486267071E+02  0.15519793040E+03  0.12508923927E+03 0.  0.
          5    1    3    3  502    0  0.67744236352E+01  0.13308764482E+02 -0.35493397100E+02  0.38733314670E+02  0.41800000000E+01 0. -1.
         -5    1    3    3    0  502 -0.92252237524E+02 -0.16669280715E+02  0.68979664170E+02  0.11646461573E+03  0.41800000000E+01 0. -1.
        -11    1    1    2    0    0  0.48564003734E+02 -0.17121169374E+01 -0.41407209933E+02  0.63843173774E+02  0.00000000000E+00 0.  1.
         11    1    1    2    0    0  0.36913810155E+02  0.50726331704E+01  0.48940912855E+02  0.61510762786E+02  0.00000000000E+00 0. -1.
</event>
<event>
 7    1  0.2530765E-009  0.1348733E+03  0.7561462E-02  0.1220399E+00
         -2   -1    0    0    0  501 -0.00000000000E+00  0.00000000000E+00  0.12750433711E+03  0.12750433711E+03  0.00000000000E+00 0.  1.
          2   -1    0    0  501    0  0.00000000000E+00 -0.00000000000E+00 -0.16307693986E+03  0.16307693986E+03  0.00000000000E+00 0. -1.
         25    2    1    2    0    0  0.84888083830E+02 -0.39471482126E+02 -0.52931765080E+00  0.15623572267E+03  0.12508131828E+03 0.  0.
          5    1    3    3  502    0  0.85713546068E+02  0.23957057467E+02  0.16066436815E+02  0.90533725064E+02  0.41800000000E+01 0. -1.
         -5    1    3    3    0  502 -0.82546223782E+00 -0.63428539593E+02 -0.16595754466E+02  0.65701997603E+02  0.41800000000E+01 0. -1.
        -11    1    1    2    0    0 -0.35407898270E+02 -0.19239818559E+02 -0.40804388964E+02  0.57348827685E+02  0.00000000000E+00 0. -1.
         11    1    1    2    0    0 -0.49480185560E+02  0.58711300685E+02  0.57611038633E+01  0.76996726612E+02  0.00000000000E+00 0.  1.
</event>
<event>
 7    1  0.2530765E-009  0.1255582E+03  0.7561462E-02  0.1234199E+00
         -1   -1    0    0    0  501 -0.00000000000E+00  0.00000000000E+00  0.37840263765E+03  0.37840263765E+03  0.00000000000E+00 0.  1.
          1   -1    0    0  501    0  0.00000000000E+00 -0.00000000000E+00 -0.64025124141E+02  0.64025124141E+02  0.00000000000E+00 0. -1.
         25    2    1    2    0    0  0.10755635621E+03 -0.78483146416E+01  0.11658034705E+03  0.20215980953E+03  0.12509054907E+03 0.  0.
          5    1    3    3  502    0  0.58499133697E+01  0.94126247525E+01  0.96194612707E+02  0.96921075650E+02  0.41800000000E+01 0. -1.
         -5    1    3    3    0  502  0.10170644284E+03 -0.17260939394E+02  0.20385734340E+02  0.10523873388E+03  0.41800000000E+01 0. -1.
        -11    1    1    2    0    0 -0.82840703841E+02  0.42780562619E+02  0.14362653485E+03  0.17123475191E+03  0.00000000000E+00 0. -1.
         11    1    1    2    0    0 -0.24715652370E+02 -0.34932247978E+02  0.54170631618E+02  0.69033200351E+02  0.00000000000E+00 0.  1.
</event>
<event>
 7    1  0.2530765E-009  0.1892214E+03  0.7561462E-02  0.1159165E+00
          3   -1    0    0  501    0  0.00000000000E+00  0.00000000000E+00  0.27179384438E+03  0.27179384438E+03  0.00000000000E+00 0. -1.
         -3   -1    0    0    0  501 -0.00000000000E+00 -0.00000000000E+00 -0.18971659521E+03  0.18971659521E+03  0.00000000000E+00 0.  1.
         25    2    1    2    0    0 -0.16370950533E+03 -0.57665425236E+02  0.14170074104E+03  0.25661746901E+03  0.12508925608E+03 0.  0.
          5    1    3    3  502    0 -0.13404136649E+03 -0.11681698835E+01  0.46524720939E+02  0.14195236740E+03  0.41800000000E+01 0.  1.
         -5    1    3    3    0  502 -0.29668138837E+02 -0.56497255352E+02  0.95176020104E+02  0.11466510161E+03  0.41800000000E+01 0.  1.
        -11    1    1    2    0    0  0.15894211088E+03  0.42560561966E+02 -0.24490318478E+02  0.16635435595E+03  0.00000000000E+00 0. -1.
         11    1    1    2    0    0  0.47673944511E+01  0.15104863270E+02 -0.35133173402E+02  0.38538614629E+02  0.00000000000E+00 0.  1.
</event>
<event>
 7    1  0.2530765E-009  0.1275114E+03  0.7561462E-02  0.1231196E+00
         -1   -1    0    0    0  501 -0.00000000000E+00  0.00000000000E+00  0.13301083859E+03  0.13301083859E+03  0.00000000000E+00 0.  1.
          1   -1    0    0  501    0  0.00000000000E+00 -0.00000000000E+00 -0.18265277920E+03  0.18265277920E+03  0.00000000000E+00 0. -1.
         25    2    1    2    0    0 -0.46649106645E+02 -0.97505005438E+02 -0.64477469488E+00  0.16532088447E+03  0.12508882393E+03 0.  0.
          5    1    3    3  502    0 -0.26111660640E+02 -0.85778215542E+02 -0.55433854969E+02  0.10549931639E+03  0.41800000000E+01 0.  1.
         -5    1    3    3    0  502 -0.20537446005E+02 -0.11726789896E+02  0.54789080274E+02  0.59821568075E+02  0.41800000000E+01 0.  1.
        -11    1    1    2    0    0 -0.22168443468E+02  0.57543624324E+02 -0.29761203425E+02  0.68472168181E+02  0.00000000000E+00 0.  1.
         11    1    1    2    0    0  0.68817550113E+02  0.39961381114E+02 -0.19235962485E+02  0.81870565143E+02  0.00000000000E+00 0. -1.
</event>
<event>
 7    1  0.2530765E-009  0.1007030E+03  0.7561462E-02  0.1278825E+00
         -1   -1    0    0    0  501 -0.00000000000E+00  0.00000000000E+00  0.35669276092E+02  0.35669276092E+02  0.00000000000E+00 0.  1.
          1   -1    0    0  501    0  0.00000000000E+00 -0.00000000000E+00 -0.34785590384E+03  0.34785590384E+03  0.00000000000E+00 0. -1.
         25    2    1    2    0    0  0.26960117227E+02  0.26356317725E+01 -0.17306363257E+03  0.21524916858E+03  0.12508952466E+03 0.  0.
          5    1    3    3  502    0  0.52197142194E+02 -0.45909895365E+02 -0.71498831663E+02  0.99808894769E+02  0.41800000000E+01 0. -1.
         -5    1    3    3    0  502 -0.25237024967E+02  0.48545527138E+02 -0.10156480090E+03  0.11544027381E+03  0.41800000000E+01 0. -1.
        -11    1    1    2    0    0 -0.95909155660E+01  0.34546949409E+02 -0.17462346589E+02  0.39879956409E+02  0.00000000000E+00 0. -1.
         11    1    1    2    0    0 -0.17369201661E+02 -0.37182581181E+02 -0.12166064859E+03  0.12839605494E+03  0.00000000000E+00 0.  1.
</event>
<event>
 7    1  0.2757539E-009  0.7999498E+02  0.7561462E-02  0.1329066E+00
         -2   -1    0    0    0  501 -0.00000000000E+00  0.00000000000E+00  0.12992147941E+03  0.12992147941E+03  0.00000000000E+00 0.  1.
          2   -1    0    0  501    0  0.00000000000E+00 -0.00000000000E+00 -0.12738941469E+03  0.12738941469E+03  0.00000000000E+00 0. -1.
         25    2    1    2    0    0 -0.24290308915E+02  0.43905462904E+02  0.49102453298E+02  0.14344774804E+03  0.12509395157E+03 0.  0.
          5    1    3    3  502    0  0.28339217878E+02 -0.62763331688E+01  0.62820370633E+02  0.69328024596E+02  0.41800000000E+01 0. -1.
         -5    1    3    3    0  502 -0.52629526794E+02  0.50181796073E+02 -0.13717917334E+02  0.74119723445E+02  0.41800000000E+01 0. -1.
        -11    1    1    2    0    0  0.24327084337E+02 -0.14297643605E+02 -0.70407967004E+02  0.75851904806E+02  0.00000000000E+00 0. -1.
         11    1    1    2    0    0 -0.36775421661E-01 -0.29607819299E+02  0.23837578428E+02  0.38011241250E+02  0.00000000000E+00 0.  1.
</event>
<event>
 7    1  0.2530765E-009  0.1140087E+03  0.7561462E-02  0.1253321E+00
         -2   -1    0    0    0  501 -0.00000000000E+00  0.00000000000E+00  0.30133102282E+03  0.30133102282E+03  0.00000000000E+00 0.  1.
          2   -1    0    0  501    0  0.00000000000E+00 -0.00000000000E+00 -0.76769051162E+02  0.76769051162E+02  0.00000000000E+00 0. -1.
         25    2    1    2    0    0 -0.78625534443E+02  0.29841086217E+02  0.48385278243E+02  0.15830747903E+03  0.12509059787E+03 0.  0.
          5    1    3    3  502    0 -0.65920012201E+02 -0.21835583621E+02  0.71838850986E+02  0.10000266812E+03  0.41800000000E+01 0. -1.
         -5    1    3    3    0  502 -0.12705522242E+02  0.51676669838E+02 -0.23453572744E+02  0.58304810912E+02  0.41800000000E+01 0. -1.
        -11    1    1    2    0    0  0.50702969784E+02  0.14440947659E+02  0.22277036594E+02  0.57232844361E+02  0.00000000000E+00 0. -1.
         11    1    1    2    0    0  0.27922564659E+02 -0.44282033876E+02  0.15389965682E+03  0.16255975059E+03  0.00000000000E+00 0.  1.
</event>
<event>
 7    1  0.2530765E-009  0.1071797E+03  0.7561462E-02  0.1265884E+00
         -1   -1    0    0    0  501 -0.00000000000E+00  0.00000000000E+00  0.58938937901E+02  0.58938937901E+02  0.00000000000E+00 0.  1.
          1   -1    0    0  501    0  0.00000000000E+00 -0.00000000000E+00 -0.21382408785E+03  0.21382408785E+03  0.00000000000E+00 0. -1.
         25    2    1    2    0    0  0.20540016962E+02  0.76765479643E+01 -0.59486070841E+02  0.14023664971E+03  0.12508758377E+03 0.  0.
          5    1    3    3  502    0 -0.48236850461E+02  0.20136124038E+02 -0.44165675160E+02  0.68559000109E+02  0.41800000000E+01 0. -1.
         -5    1    3    3    0  502  0.68776867423E+02 -0.12459576074E+02 -0.15320395681E+02  0.71677649601E+02  0.41800000000E+01 0. -1.
        -11    1    1    2    0    0 -0.25270217655E+01 -0.47827313306E+02 -0.46782024655E+02  0.66950695052E+02  0.00000000000E+00 0. -1.
         11    1    1    2    0    0 -0.18012995197E+02  0.40150765342E+02 -0.48617054454E+02  0.65575680990E+02  0.00000000000E+00 0.  1.
</event>
<event>
 7    1  0.3024782E-009  0.1293025E+03  0.7561462E-02  0.1228494E+00
          2   -1    0    0  501    0  0.00000000000E+00  0.00000000000E+00  0.40026731927E+03  0.40026731927E+03  0.00000000000E+00 0. -1.
         -2   -1    0    0    0  501 -0.00000000000E+00 -0.00000000000E+00 -0.49172865912E+02  0.49172865912E+02  0.00000000000E+00 0.  1.
         25    2    1    2    0    0  0.46711914275E+02 -0.75495868396E+02  0.20046465582E+03  0.25241617618E+03  0.12508484594E+03 0.  0.
          5    1    3    3  502    0  0.44428121860E+01  0.31582868589E+02  0.77559944818E+02  0.83965669226E+02  0.41800000000E+01 0.  1.
         -5    1    3    3    0  502  0.42269102089E+02 -0.10707873699E+03  0.12290471100E+03  0.16845050695E+03  0.41800000000E+01 0.  1.
        -11    1    1    2    0    0 -0.60494440337E+02  0.38358688372E+02  0.13793840102E+03  0.15542833964E+03  0.00000000000E+00 0.  1.
         11    1    1    2    0    0  0.13782526062E+02  0.37137180024E+02  0.12691396517E+02  0.41595669371E+02  0.00000000000E+00 0. -1.
</event>
<event>
 7    1  0.2530765E-009  0.1586207E+03  0.7561462E-02  0.1190263E+00
         -2   -1    0    0    0  501 -0.00000000000E+00  0.00000000000E+00  0.52576766353E+02  0.52576766353E+02  0.00000000000E+00 0. -1.
          2   -1    0    0  501    0  0.00000000000E+00 -0.00000000000E+00 -0.50795205976E+03  0.50795205976E+03  0.00000000000E+00 0.  1.
         25    2    1    2    0    0  0.92406406631E+02 -0.82255940687E+02 -0.31621297004E+03  0.36185590306E+03  0.12507625031E+03 0.  0.
          5    1    3    3  502    0  0.32418506831E+01 -0.85949105791E+02 -0.14195982513E+03  0.16603560682E+03  0.41800000000E+01 0. -1.
         -5    1    3    3    0  502  0.89164555947E+02  0.36931651045E+01 -0.17425314491E+03  0.19582029624E+03  0.41800000000E+01 0. -1.
        -11    1    1    2    0    0  0.67307999714E+01  0.27959988750E+02 -0.27998720108E+02  0.40137176866E+02  0.00000000000E+00 0. -1.
         11    1    1    2    0    0 -0.99137206602E+02  0.54295951937E+02 -0.11116360325E+03  0.15853574618E+03  0.00000000000E+00 0.  1.
</event>
<event>
 7    1  0.2530765E-009  0.2797778E+03  0.7561462E-02  0.1095810E+00
         -2   -1    0    0    0  501 -0.00000000000E+00  0.00000000000E+00  0.93272309719E+02  0.93272309719E+02  0.00000000000E+00 0.  1.
          2   -1    0    0  501    0  0.00000000000E+00 -0.00000000000E+00 -0.97177039198E+03  0.97177039198E+03  0.00000000000E+00 0. -1.
         25    2    1    2    0    0  0.83930098400E+02 -0.26551549843E+03 -0.50165693670E+03  0.58723912759E+03  0.12508944603E+03 0.  0.
          5    1    3    3  502    0  0.41182624509E+02 -0.17976104670E+03 -0.20651238966E+03  0.27690229677E+03  0.41800000000E+01 0.  1.
         -5    1    3    3    0  502  0.42747473891E+02 -0.85754451726E+02 -0.29514454705E+03  0.31033683082E+03  0.41800000000E+01 0.  1.
        -11    1    1    2    0    0 -0.52407225130E+02  0.19537949959E+03 -0.19767643217E+03  0.28283500126E+03  0.00000000000E+00 0. -1.
         11    1    1    2    0    0 -0.31522873270E+02  0.70135998840E+02 -0.17916471339E+03  0.19496857285E+03  0.00000000000E+00 0.  1.
</event>
<event>
 7    1  0.2530765E-009  0.1459036E+03  0.7561462E-02  0.1205599E+00
         -2   -1    0    0    0  501 -0.00000000000E+00  0.00000000000E+00  0.37446044846E+02  0.37446044846E+02  0.00000000000E+00 0.  1.
          2   -1    0    0  501    0  0.00000000000E+00 -0.00000000000E+00 -0.62309640131E+03  0.62309640131E+03  0.00000000000E+00 0. -1.
         25    2    1    2    0    0  0.50746734537E+02  0.92547524899E+02 -0.26497345745E+03  0.31144580222E+03  0.12508908482E+03 0.  0.
          5    1    3    3  502    0  0.10544883026E+02  0.11430623099E+03 -0.21378238811E+03  0.24268805258E+03  0.41800000000E+01 0. -1.
         -5    1    3    3    0  502  0.40201851512E+02 -0.21758706089E+02 -0.51191069335E+02  0.68757749638E+02  0.41800000000E+01 0. -1.
        -11    1    1    2    0    0  0.75673095144E+01 -0.66907945483E+02 -0.21895502531E+03  0.22907474861E+03  0.00000000000E+00 0. -1.
         11    1    1    2    0    0 -0.58314044052E+02 -0.25639579416E+02 -0.10172187371E+03  0.12002189532E+03  0.00000000000E+00 0.  1.
</event>
<event>
 7    1  0.2530765E-009  0.9714833E+02  0.7561462E-02  0.1286410E+00
          1   -1    0    0  501    0  0.00000000000E+00  0.00000000000E+00  0.45070134542E+03  0.45070134542E+03  0.00000000000E+00 0. -1.
         -1   -1    0    0    0  501 -0.00000000000E+00 -0.00000000000E+00 -0.29561581283E+02  0.29561581283E+02  0.00000000000E+00 0.  1.
         25    2    1    2    0    0  0.33300450675E+02  0.18408399691E+02  0.26995448320E+03  0.29994935152E+03  0.12508557582E+03 0.  0.
          5    1    3    3  502    0 -0.16262569306E+02  0.59512313197E+02  0.17079601797E+03  0.18164509004E+03  0.41800000000E+01 0. -1.
         -5    1    3    3    0  502  0.49563019981E+02 -0.41103913505E+02  0.99158465234E+02  0.11830426147E+03  0.41800000000E+01 0. -1.
        -11    1    1    2    0    0  0.98274688222E+01 -0.22560890672E+02  0.16901521753E+01  0.24666364664E+02  0.00000000000E+00 0.  1.
         11    1    1    2    0    0 -0.43127919497E+02  0.41524909807E+01  0.14949512876E+03  0.15564721053E+03  0.00000000000E+00 0. -1.
</event>
<event>
 7    1  0.2530765E-009  0.1097668E+03  0.7561462E-02  0.1261002E+00
         -1   -1    0    0    0  501 -0.00000000000E+00  0.00000000000E+00  0.10597197232E+04  0.10597197232E+04  0.00000000000E+00 0.  1.
          1   -1    0    0  501    0  0.00000000000E+00 -0.00000000000E+00 -0.12907002768E+02  0.12907002768E+02  0.00000000000E+00 0. -1.
         25    2    1    2    0    0 -0.35651374239E+02  0.41318398404E+00  0.71470960690E+03  0.72645147167E+03  0.12510286685E+03 0.  0.
          5    1    3    3  502    0 -0.95246987766E+01  0.62029690886E+02  0.36224271357E+03  0.36766242448E+03  0.41800000000E+01 0.  1.
         -5    1    3    3    0  502 -0.26126675462E+02 -0.61616506902E+02  0.35246689333E+03  0.35878904719E+03  0.41800000000E+01 0.  1.
        -11    1    1    2    0    0 -0.23496490309E+02  0.15722293675E+02  0.49558520262E+02  0.57055433622E+02  0.00000000000E+00 0.  1.
         11    1    1    2    0    0  0.59147864547E+02 -0.16135477659E+02  0.28254459323E+03  0.28911982064E+03  0.00000000000E+00 0. -1.
</event>
<event>
 7    1  0.2530765E-009  0.1115979E+03  0.7561462E-02  0.1257639E+00
          2   -1    0    0  501    0  0.00000000000E+00  0.00000000000E+00  0.71310378845E+03  0.71310378845E+03  0.00000000000E+00 0. -1.
         -2   -1    0    0    0  501 -0.00000000000E+00 -0.00000000000E+00 -0.22973842578E+02  0.22973842578E+02  0.00000000000E+00 0.  1.
         25    2    1    2    0    0 -0.60083764695E+01 -0.66553019468E+02  0.42056417060E+03  0.44383325553E+03  0.12509329374E+03 0.  0.
          5    1    3    3  502    0 -0.15282589784E+02  0.25475527536E+02  0.29934318719E+02  0.42380371529E+02  0.41800000000E+01 0.  1.
         -5    1    3    3    0  502  0.92742133148E+01 -0.92028547004E+02  0.39062985188E+03  0.40145288400E+03  0.41800000000E+01 0.  1.
        -11    1    1    2    0    0 -0.19916272890E+02  0.71492898813E+02  0.12566657685E+03  0.14594513025E+03  0.00000000000E+00 0.  1.
         11    1    1    2    0    0  0.25924649359E+02 -0.49398793449E+01  0.14389919842E+03  0.14629924524E+03  0.00000000000E+00 0. -1.
</event>
<event>
 7    1  0.2530765E-009  0.2828377E+03  0.7561462E-02  0.1094149E+00
          1   -1    0    0  501    0  0.00000000000E+00  0.00000000000E+00  0.94195545718E+03  0.94195545718E+03  0.00000000000E+00 0. -1.
         -1   -1    0    0    0  501 -0.00000000000E+00 -0.00000000000E+00 -0.10784141135E+03  0.10784141135E+03  0.00000000000E+00 0.  1.
         25    2    1    2    0    0  0.13497376883E+03 -0.23512338322E+03  0.21617148430E+03  0.36861796754E+03  0.12509265272E+03 0.  0.
          5    1    3    3  502    0  0.43411474739E+02 -0.15704298501E+03  0.65278076830E+02  0.17557264877E+03  0.41800000000E+01 0. -1.
         -5    1    3    3    0  502  0.91562294089E+02 -0.78080398201E+02  0.15089340747E+03  0.19304531877E+03  0.41800000000E+01 0. -1.
        -11    1    1    2    0    0 -0.10280914356E+02  0.91530285161E+02  0.14938215961E+03  0.17549507090E+03  0.00000000000E+00 0.  1.
         11    1    1    2    0    0 -0.12469285447E+03  0.14359309805E+03  0.46856040192E+03  0.50568383009E+03  0.00000000000E+00 0. -1.
</event>
<event>
 7    1  0.2530765E-009  0.1109817E+03  0.7561462E-02  0.1258763E+00
          2   -1    0    0  501    0  0.00000000000E+00  0.00000000000E+00  0.44510420436E+03  0.44510420436E+03  0.00000000000E+00 0. -1.
         -2   -1    0    0    0  501 -0.00000000000E+00 -0.00000000000E+00 -0.37083247048E+02  0.37083247048E+02  0.00000000000E+00 0.  1.
         25    2    1    2    0    0 -0.19293498964E+01 -0.65830208968E+02  0.18747136474E+03  0.23479983207E+03  0.12509240479E+03 0.  0.
          5    1    3    3  502    0  0.93552276525E+01  0.35798895123E+02  0.34566286588E+02  0.50807300114E+02  0.41800000000E+01 0. -1.
         -5    1    3    3    0  502 -0.11284577549E+02 -0.10162910409E+03  0.15290507816E+03  0.18399253195E+03  0.41800000000E+01 0. -1.
        -11    1    1    2    0    0  0.24437966002E+02  0.47272134030E+02  0.20956418660E+03  0.21621521025E+03  0.00000000000E+00 0. -1.
         11    1    1    2    0    0 -0.22508616106E+02  0.18558074938E+02  0.10985405972E+02  0.31172409095E+02  0.00000000000E+00 0.  1.
</event>
<event>
 7    1  0.2530765E-009  0.1257003E+03  0.7561462E-02  0.1233979E+00
          2   -1    0    0  501    0  0.00000000000E+00  0.00000000000E+00  0.81829259955E+02  0.81829259955E+02  0.00000000000E+00 0. -1.
         -2   -1    0    0    0  501 -0.00000000000E+00 -0.00000000000E+00 -0.24570562157E+03  0.24570562157E+03  0.00000000000E+00 0.  1.
         25    2    1    2    0    0  0.39306096660E+02 -0.74870838899E+02 -0.51666672933E+02  0.15958481896E+03  0.12508899871E+03 0.  0.
          5    1    3    3  502    0  0.82817635635E+02 -0.53132477099E+02 -0.50671013128E+02  0.11075578931E+03  0.41800000000E+01 0.  1.
         -5    1    3    3    0  502 -0.43511538975E+02 -0.21738361801E+02 -0.99565980554E+00  0.48829029646E+02  0.41800000000E+01 0.  1.
        -11    1    1    2    0    0 -0.26773937985E+02  0.84276807723E+02 -0.12108893532E+03  0.14993983571E+03  0.00000000000E+00 0.  1.
         11    1    1    2    0    0 -0.12532158675E+02 -0.94059688233E+01  0.88792466401E+01  0.18010226858E+02  0.00000000000E+00 0. -1.
</event>
<event>
 7    1  0.2530765E-009  0.9881938E+02  0.7561462E-02  0.1282798E+00
          1   -1    0    0  501    0  0.00000000000E+00  0.00000000000E+00  0.68953241059E+02  0.68953241059E+02  0.00000000000E+00 0. -1.
         -1   -1    0    0    0  501 -0.00000000000E+00 -0.00000000000E+00 -0.23018711264E+03  0.23018711264E+03  0.00000000000E+00 0.  1.
         25    2    1    2    0    0  0.24454967193E+02 -0.33915141443E+02 -0.31796285550E+02  0.13566988550E+03  0.12508809623E+03 0.  0.
          5    1    3    3  502    0 -0.28164456723E+02 -0.35048303322E+02 -0.60562866326E+02  0.75544380108E+02  0.41800000000E+01 0.  1.
         -5    1    3    3    0  502  0.52619423916E+02  0.11331618786E+01  0.28766580776E+02  0.60125505392E+02  0.41800000000E+01 0.  1.
        -11    1    1    2    0    0 -0.71041016361E+00  0.62511658297E+02 -0.76686568298E+02  0.98939586936E+02  0.00000000000E+00 0. -1.
         11    1    1    2    0    0 -0.23744557029E+02 -0.28596516854E+02 -0.52751017728E+02  0.64530881259E+02  0.00000000000E+00 0.  1.
</event>
<event>
 7    1  0.2530765E-009  0.9095977E+02  0.7561462E-02  0.1300544E+00
         -1   -1    0    0    0  501 -0.00000000000E+00  0.00000000000E+00  0.19068934812E+03  0.19068934812E+03  0.00000000000E+00 0.  1.
          1   -1    0    0  501    0  0.00000000000E+00 -0.00000000000E+00 -0.90970139669E+02  0.90970139669E+02  0.00000000000E+00 0. -1.
         25    2    1    2    0    0 -0.57976448742E+02  0.40594477463E+02  0.28690608430E+02  0.14655643273E+03  0.12508579757E+03 0.  0.
          5    1    3    3  502    0 -0.78026872441E+02  0.24870352420E+02 -0.26043295056E+02  0.86037508505E+02  0.41800000000E+01 0.  1.
         -5    1    3    3    0  502  0.20050423699E+02  0.15724125043E+02  0.54733903486E+02  0.60518924228E+02  0.41800000000E+01 0.  1.
        -11    1    1    2    0    0  0.31558856738E+02 -0.88063329310E+01  0.85299936832E+02  0.91376102794E+02  0.00000000000E+00 0.  1.
         11    1    1    2    0    0  0.26417592004E+02 -0.31788144532E+02 -0.14271336808E+02  0.43726952265E+02  0.00000000000E+00 0. -1.
</event>
<event>
 7    1  0.2530765E-009  0.1202631E+03  0.7561462E-02  0.1242664E+00
          4   -1    0    0  501    0  0.00000000000E+00  0.00000000000E+00  0.23750946967E+02  0.23750946967E+02  0.00000000000E+00 0. -1.
         -4   -1    0    0    0  501 -0.00000000000E+00 -0.00000000000E+00 -0.69236217986E+03  0.69236217986E+03  0.00000000000E+00 0.  1.
         25    2    1    2    0    0  0.16341360807E+01  0.60395745270E+02 -0.28241086472E+03  0.31472819542E+03  0.12509046341E+03 0.  0.
          5    1    3    3  502    0 -0.10246588778E+02 -0.34151272221E+02 -0.37569091612E+02  0.51963554732E+02  0.41800000000E+01 0. -1.
         -5    1    3    3    0  502  0.11880724859E+02  0.94547017491E+02 -0.24484177311E+03  0.26276464069E+03  0.41800000000E+01 0. -1.
        -11    1    1    2    0    0 -0.46163921852E+02 -0.35438343144E+02 -0.19660173852E+03  0.20503469812E+03  0.00000000000E+00 0.  1.
         11    1    1    2    0    0  0.44529785771E+02 -0.24957402126E+02 -0.18959862966E+03  0.19635023328E+03  0.00000000000E+00 0. -1.
</event>
<event>
 7    1  0.2530765E-009  0.9398582E+02  0.7561462E-02  0.1293477E+00
          1   -1    0    0  501    0  0.00000000000E+00  0.00000000000E+00  0.76096289648E+03  0.76096289648E+03  0.00000000000E+00 0. -1.
         -1   -1    0    0    0  501 -0.00000000000E+00 -0.00000000000E+00 -0.32093989906E+02  0.32093989906E+02  0.00000000000E+00 0.  1.
         25    2    1    2    0    0 -0.25929623444E+02  0.26304320711E+02  0.65901985191E+03  0.67180264153E+03  0.12508941322E+03 0.  0.
          5    1    3    3  502    0 -0.14536666859E+02 -0.49981275307E+02  0.30675971472E+03  0.31117268123E+03  0.41800000000E+01 0. -1.
         -5    1    3    3    0  502 -0.11392956585E+02  0.76285596018E+02  0.35226013718E+03  0.36062996030E+03  0.41800000000E+01 0. -1.
        -11    1    1    2    0    0 -0.12607731645E+02 -0.15466625436E+01 -0.18088186986E+02  0.22102705054E+02  0.00000000000E+00 0.  1.
         11    1    1    2    0    0  0.38537355090E+02 -0.24757658167E+02  0.87937241650E+02  0.99151539798E+02  0.00000000000E+00 0. -1.
</event>
<event>
 7    1  0.2530765E-009  0.1178440E+03  0.7561462E-02  0.1246697E+00
         -1   -1    0    0    0  501 -0.00000000000E+00  0.00000000000E+00  0.40578626312E+02  0.40578626312E+02  0.00000000000E+00 0.  1.
          1   -1    0    0  501    0  0.00000000000E+00 -0.00000000000E+00 -0.46865268141E+03  0.46865268141E+03  0.00000000000E+00 0. -1.
         25    2    1    2    0    0  0.67573696448E+02  0.24642121758E+02 -0.32487081857E+03  0.35547566335E+03  0.12509380425E+03 0.  0.
          5    1    3    3  502    0 -0.13199941135E+02  0.55713193966E+02 -0.11943053337E+03  0.13251159621E+03  0.41800000000E+01 0. -1.
         -5    1    3    3    0  502  0.80773637583E+02 -0.31071072208E+02 -0.20544028519E+03  0.22296406714E+03  0.41800000000E+01 0. -1.
        -11    1    1    2    0    0 -0.77721849843E+02 -0.18944656849E+02 -0.39907909378E+02  0.89399257251E+02  0.00000000000E+00 0.  1.
         11    1    1    2    0    0  0.10148153395E+02 -0.56974649087E+01 -0.63295327147E+02  0.64356387114E+02  0.00000000000E+00 0. -1.
</event>
<event>
 7    1  0.2556298E-009  0.8735190E+02  0.7561462E-02  0.1309394E+00
          2   -1    0    0  501    0  0.00000000000E+00  0.00000000000E+00  0.33675931095E+03  0.33675931095E+03  0.00000000000E+00 0. -1.
         -2   -1    0    0    0  501 -0.00000000000E+00 -0.00000000000E+00 -0.40227729596E+02  0.40227729596E+02  0.00000000000E+00 0.  1.
         25    2    1    2    0    0  0.35295137947E+02 -0.20454920187E+02  0.14500799167E+03  0.19580866722E+03  0.12509822536E+03 0.  0.
          5    1    3    3  502    0 -0.39969220521E+02  0.15409058864E+02  0.76679038171E+02  0.87932502403E+02  0.41800000000E+01 0.  1.
         -5    1    3    3    0  502  0.75264358468E+02 -0.35863979051E+02  0.68328953495E+02  0.10787616481E+03  0.41800000000E+01 0.  1.
        -11    1    1    2    0    0 -0.18538316565E+02 -0.35861154732E+01 -0.68728681072E+01  0.20093922496E+02  0.00000000000E+00 0.  1.
         11    1    1    2    0    0 -0.16756821382E+02  0.24041035660E+02  0.15839645779E+03  0.16108445083E+03  0.00000000000E+00 0. -1.
</event>
<event>
 7    1  0.2530765E-009  0.1231418E+03  0.7561462E-02  0.1238002E+00
          2   -1    0    0  501    0  0.00000000000E+00  0.00000000000E+00  0.89898525019E+03  0.89898525019E+03  0.00000000000E+00 0. -1.
         -2   -1    0    0    0  501 -0.00000000000E+00 -0.00000000000E+00 -0.27211361132E+02  0.27211361132E+02  0.00000000000E+00 0.  1.
         25    2    1    2    0    0 -0.11038111027E+02 -0.10362759147E+03  0.57581467660E+03  0.59838971108E+03  0.12508871623E+03 0.  0.
          5    1    3    3  502    0 -0.15643856407E+01 -0.70294149815E+02  0.55119191916E+03  0.55567411218E+03  0.41800000000E+01 0. -1.
         -5    1    3    3    0  502 -0.94737253859E+01 -0.33333441657E+02  0.24622757441E+02  0.42715598900E+02  0.41800000000E+01 0. -1.
        -11    1    1    2    0    0 -0.40861266237E+02  0.62737698896E+02  0.15635950917E+03  0.17336077425E+03  0.00000000000E+00 0.  1.
         11    1    1    2    0    0  0.51899377264E+02  0.40889892576E+02  0.13959970329E+03  0.15444612599E+03  0.00000000000E+00 0. -1.
</event>
<event>
 7    1  0.2530765E-009  0.1017692E+03  0.7561462E-02  0.1276619E+00
         -1   -1    0    0    0  501 -0.00000000000E+00  0.00000000000E+00  0.22094380116E+03  0.22094380116E+03  0.00000000000E+00 0.  1.
          1   -1    0    0  501    0  0.00000000000E+00 -0.00000000000E+00 -0.56758975749E+02  0.56758975749E+02  0.00000000000E+00 0. -1.
         25    2    1    2    0    0 -0.17477684158E+02  0.24720223409E+02  0.64378755117E+02  0.14391363711E+03  0.12509976798E+03 0.  0.
          5    1    3    3  502    0  0.41321677689E+02 -0.15326600745E+02 -0.48804328658E+01  0.44538486305E+02  0.41800000000E+01 0. -1.
         -5    1    3    3    0  502 -0.58799361846E+02  0.40046824154E+02  0.69259187983E+02  0.99375150810E+02  0.41800000000E+01 0. -1.
        -11    1    1    2    0    0  0.49955059686E+02 -0.54788143096E+01  0.46478230145E+02  0.68452547592E+02  0.00000000000E+00 0. -1.
         11    1    1    2    0    0 -0.32477375529E+02 -0.19241409100E+02  0.53327840146E+02  0.65336592198E+02  0.00000000000E+00 0.  1.
</event>
<event>
 7    1  0.2530765E-009  0.1412063E+03  0.7561462E-02  0.1211715E+00
         -1   -1    0    0    0  501 -0.00000000000E+00  0.00000000000E+00  0.26348795623E+02  0.26348795623E+02  0.00000000000E+00 0.  1.
          1   -1    0    0  501    0  0.00000000000E+00 -0.00000000000E+00 -0.11304449909E+04  0.11304449909E+04  0.00000000000E+00 0. -1.
         25    2    1    2    0    0  0.51490436821E+02  0.11284807151E+03 -0.74309532566E+03  0.76369222220E+03  0.12509674220E+03 0.  0.
          5    1    3    3  502    0 -0.99981841458E+00  0.50394820383E+02 -0.74027064030E+02  0.89655541753E+02  0.41800000000E+01 0.  1.
         -5    1    3    3    0  502  0.52490255236E+02  0.62453251126E+02 -0.66906826163E+03  0.67403668045E+03  0.41800000000E+01 0.  1.
        -11    1    1    2    0    0 -0.66749633287E+02 -0.44757319129E+02 -0.24375692315E+03  0.25666353217E+03  0.00000000000E+00 0.  1.
         11    1    1    2    0    0  0.15259196466E+02 -0.68090752379E+02 -0.11724394649E+03  0.13643803218E+03  0.00000000000E+00 0. -1.
</event>
<event>
 7    1  0.2530765E-009  0.1183623E+03  0.7561462E-02  0.1245823E+00
         -2   -1    0    0    0  501 -0.00000000000E+00  0.00000000000E+00  0.31405448752E+02  0.31405448752E+02  0.00000000000E+00 0.  1.
          2   -1    0    0  501    0  0.00000000000E+00 -0.00000000000E+00 -0.78111657797E+03  0.78111657797E+03  0.00000000000E+00 0. -1.
         25    2    1    2    0    0 -0.86522979545E+02  0.36098354024E+02 -0.57332873536E+03  0.59425845373E+03  0.12509178186E+03 0.  0.
          5    1    3    3  502    0 -0.10680874148E+03  0.26647173523E+02 -0.55258531569E+03  0.56345912241E+03  0.41800000000E+01 0.  1.
         -5    1    3    3    0  502  0.20285761933E+02  0.94511805002E+01 -0.20743419666E+02  0.30799331316E+02  0.41800000000E+01 0.  1.
        -11    1    1    2    0    0  0.15664392547E+02  0.10617811850E+02 -0.10694254100E+03  0.10860395111E+03  0.00000000000E+00 0. -1.
         11    1    1    2    0    0  0.70858586998E+02 -0.46716165874E+02 -0.69439852864E+02  0.10965962188E+03  0.00000000000E+00 0.  1.
</event>
<event>
 7    1  0.2530765E-009  0.1398913E+03  0.7561462E-02  0.1213475E+00
          2   -1    0    0  501    0  0.00000000000E+00  0.00000000000E+00  0.92265098121E+03  0.92265098121E+03  0.00000000000E+00 0. -1.
         -2   -1    0    0    0  501 -0.00000000000E+00 -0.00000000000E+00 -0.25987540824E+02  0.25987540824E+02  0.00000000000E+00 0.  1.
         25    2    1    2    0    0  0.78657772652E+02 -0.75760656326E+02  0.47413223069E+03  0.50237164802E+03  0.12509667585E+03 0.  0.
          5    1    3    3  502    0  0.97454471968E+02 -0.72068916091E+02  0.25508249815E+03  0.28244620025E+03  0.41800000000E+01 0. -1.
         -5    1    3    3    0  502 -0.18796699316E+02 -0.36917402349E+01  0.21904973254E+03  0.21992544777E+03  0.41800000000E+01 0. -1.
        -11    1    1    2    0    0 -0.72802216325E+02  0.10713800348E+02  0.27960162845E+03  0.28912284388E+03  0.00000000000E+00 0. -1.
         11    1    1    2    0    0 -0.58555563265E+01  0.65046855978E+02  0.14292958125E+03  0.15714403014E+03  0.00000000000E+00 0.  1.
</event>
<event>
 7    1  0.2530765E-009  0.1317719E+03  0.7561462E-02  0.1224850E+00
          2   -1    0    0  501    0  0.00000000000E+00  0.00000000000E+00  0.27903470287E+03  0.27903470287E+03  0.00000000000E+00 0. -1.
         -2   -1    0    0    0  501 -0.00000000000E+00 -0.00000000000E+00 -0.78341063236E+02  0.78341063236E+02  0.00000000000E+00 0.  1.
         25    2    1    2    0    0 -0.52992849854E+02  0.79853737784E+02  0.76238963510E+02  0.17505674574E+03  0.12509045967E+03 0.  0.
          5    1    3    3  502    0 -0.61527198699E+02  0.95597112050E+02  0.19511903597E+02  0.11542352791E+03  0.41800000000E+01 0. -1.
         -5    1    3    3    0  502  0.85343488449E+01 -0.15743374266E+02  0.56727059913E+02  0.59633217839E+02  0.41800000000E+01 0. -1.
        -11    1    1    2    0    0 -0.22617101875E+02 -0.39926605395E+02  0.29558374210E+02  0.54583556146E+02  0.00000000000E+00 0.  1.
         11    1    1    2    0    0  0.75609951729E+02 -0.39927132389E+02  0.94896301910E+02  0.12773546421E+03  0.00000000000E+00 0. -1.
</event>
<event>
 7    1  0.2530765E-009  0.8151754E+02  0.7561462E-02  0.1324799E+00
          1   -1    0    0  501    0  0.00000000000E+00  0.00000000000E+00  0.22586965019E+03  0.22586965019E+03  0.00000000000E+00 0. -1.
         -1   -1    0    0    0  501 -0.00000000000E+00 -0.00000000000E+00 -0.12051107642E+03  0.12051107642E+03  0.00000000000E+00 0.  1.
         25    2    1    2    0    0  0.77767666505E+02  0.11588872232E+02 -0.44708454606E+02  0.15436728821E+03  0.12509317265E+03 0.  0.
          5    1    3    3  502    0  0.31718243850E+02  0.19445991504E+02 -0.84780078360E+02  0.92678625720E+02  0.41800000000E+01 0.  1.
         -5    1    3    3    0  502  0.46049422654E+02 -0.78571192722E+01  0.40071623755E+02  0.61688662495E+02  0.41800000000E+01 0.  1.
        -11    1    1    2    0    0 -0.32059457390E+02 -0.64105015697E+01 -0.23767818311E+01  0.32780366538E+02  0.00000000000E+00 0.  1.
         11    1    1    2    0    0 -0.45708209115E+02 -0.51783706619E+01  0.15244381021E+03  0.15923307186E+03  0.00000000000E+00 0. -1.
</event>
<event>
 7    1  0.2530765E-009  0.9141529E+02  0.7561462E-02  0.1299460E+00
          2   -1    0    0  501    0  0.00000000000E+00  0.00000000000E+00  0.20357479686E+03  0.20357479686E+03  0.00000000000E+00 0.  1.
         -2   -1    0    0    0  501 -0.00000000000E+00 -0.00000000000E+00 -0.63119253088E+02  0.63119253088E+02  0.00000000000E+00 0. -1.
         25    2    1    2    0    0  0.10342951943E+01 -0.65418700291E+01  0.11737359068E+03  0.17166267112E+03  0.12509055535E+03 0.  0.
          5    1    3    3  502    0 -0.44672769660E+01  0.46198873415E+02  0.10803507098E+03  0.11765773000E+03  0.41800000000E+01 0. -1.
         -5    1    3    3    0  502  0.55015721603E+01 -0.52740743445E+02  0.93385197035E+01  0.54004941122E+02  0.41800000000E+01 0. -1.
        -11    1    1    2    0    0 -0.18353029990E+02 -0.34174235572E+02 -0.96751124832E+01  0.39978993088E+02  0.00000000000E+00 0.  1.
         11    1    1    2    0    0  0.17318734796E+02  0.40716105601E+02  0.32757065579E+02  0.55052385740E+02  0.00000000000E+00 0. -1.
</event>
<event>
 7    1  0.2530765E-009  0.7199321E+02  0.7561462E-02  0.1353443E+00
         -1   -1    0    0    0  501 -0.00000000000E+00  0.00000000000E+00  0.47526782481E+02  0.47526782481E+02  0.00000000000E+00 0.  1.
          1   -1    0    0  501    0  0.00000000000E+00 -0.00000000000E+00 -0.32601080537E+03  0.32601080537E+03  0.00000000000E+00 0. -1.
         25    2    1    2    0    0  0.34114280435E+02  0.28507766123E+02 -0.96328780573E+02  0.16401987960E+03  0.12508720989E+03 0.  0.
          5    1    3    3  502    0  0.46770847253E+02  0.12084866248E+02  0.14957010464E+02  0.50741902871E+02  0.41800000000E+01 0.  1.
         -5    1    3    3    0  502 -0.12656566818E+02  0.16422899875E+02 -0.11128579104E+03  0.11327797672E+03  0.41800000000E+01 0.  1.
        -11    1    1    2    0    0 -0.73089782026E+01 -0.43176920358E+02 -0.27139749763E+02  0.51519254956E+02  0.00000000000E+00 0.  1.
         11    1    1    2    0    0 -0.26805302232E+02  0.14669154235E+02 -0.15501549255E+03  0.15799845330E+03  0.00000000000E+00 0. -1.
</event>
<event>
 7    1  0.2530765E-009  0.2283753E+03  0.7561462E-02  0.1127789E+00
         -2   -1    0    0    0  501 -0.00000000000E+00  0.00000000000E+00  0.62764375556E+03  0.62764375556E+03  0.00000000000E+00 0.  1.
          2   -1    0    0  501    0  0.00000000000E+00 -0.00000000000E+00 -0.85136351380E+02  0.85136351380E+02  0.00000000000E+00 0. -1.
         25    2    1    2    0    0 -0.64746378324E+02 -0.18950367779E+03  0.22582188994E+03  0.32672345595E+03  0.12509577645E+03 0.  0.
          5    1    3    3  502    0  0.35071988753E+02 -0.82280801639E+02  0.87970597511E+02  0.12552479094E+03  0.41800000000E+01 0. -1.
         -5    1    3    3    0  502 -0.99818367077E+02 -0.10722287615E+03  0.13785129243E+03  0.20119866501E+03  0.41800000000E+01 0. -1.
        -11    1    1    2    0    0  0.75286603170E+02  0.77108189726E+02  0.16150273309E+03  0.19415683953E+03  0.00000000000E+00 0.  1.
         11    1    1    2    0    0 -0.10540224846E+02  0.11239548806E+03  0.15518278115E+03  0.19189981147E+03  0.00000000000E+00 0. -1.
</event>
<event>
 7    1  0.2530765E-009  0.1053032E+03  0.7561462E-02  0.1269523E+00
         -2   -1    0    0    0  501 -0.00000000000E+00  0.00000000000E+00  0.10352403397E+03  0.10352403397E+03  0.00000000000E+00 0. -1.
          2   -1    0    0  501    0  0.00000000000E+00 -0.00000000000E+00 -0.15870308034E+03  0.15870308034E+03  0.00000000000E+00 0.  1.
         25    2    1    2    0    0 -0.12692405468E+02  0.30003363394E+02 -0.86847072863E+02  0.15572890559E+03  0.12509108281E+03 0.  0.
          5    1    3    3  502    0  0.45256598261E+02  0.40043620707E+02 -0.73559107941E+02  0.95289380345E+02  0.41800000000E+01 0.  1.
         -5    1    3    3    0  502 -0.57949003728E+02 -0.10040257313E+02 -0.13287964922E+02  0.60439525245E+02  0.41800000000E+01 0.  1.
        -11    1    1    2    0    0  0.79163935842E+01 -0.60089899653E+02 -0.25777454069E+01  0.60663911010E+02  0.00000000000E+00 0.  1.
         11    1    1    2    0    0  0.47760118835E+01  0.30086536259E+02  0.34245771901E+02  0.45834297711E+02  0.00000000000E+00 0. -1.
</event>
<event>
 7    1  0.2530765E-009  0.9597062E+02  0.7561462E-02  0.1289005E+00
          1   -1    0    0  501    0  0.00000000000E+00  0.00000000000E+00  0.57899980284E+02  0.57899980284E+02  0.00000000000E+00 0. -1.
         -1   -1    0    0    0  501 -0.00000000000E+00 -0.00000000000E+00 -0.22754331186E+03  0.22754331186E+03  0.00000000000E+00 0.  1.
         25    2    1    2    0    0  0.95263502087E+01  0.35036812794E+02 -0.10325617650E+03  0.16622551091E+03  0.12510296916E+03 0.  0.
          5    1    3    3  502    0  0.13028884053E+01  0.63374136166E+02 -0.51964247328E+01  0.63737382147E+02  0.41800000000E+01 0. -1.
         -5    1    3    3    0  502  0.82234618034E+01 -0.28337323372E+02 -0.98059751769E+02  0.10248812876E+03  0.41800000000E+01 0. -1.
        -11    1    1    2    0    0  0.41170526749E+02 -0.11672012908E+02 -0.34205016951E+02  0.54783495167E+02  0.00000000000E+00 0. -1.
         11    1    1    2    0    0 -0.50696876958E+02 -0.23364799886E+02 -0.32182138122E+02  0.64434286068E+02  0.00000000000E+00 0.  1.
</event>
<event>
 7    1  0.2530765E-009  0.7372702E+02  0.7561462E-02  0.1347859E+00
         -1   -1    0    0    0  501 -0.00000000000E+00  0.00000000000E+00  0.24080905859E+03  0.24080905859E+03  0.00000000000E+00 0.  1.
          1   -1    0    0  501    0  0.00000000000E+00 -0.00000000000E+00 -0.55064416061E+02  0.55064416061E+02  0.00000000000E+00 0. -1.
         25    2    1    2    0    0  0.35532894836E+02  0.37651818706E+01  0.91990213693E+02  0.15932652898E+03  0.12508389269E+03 0.  0.
          5    1    3    3  502    0 -0.57699651573E+01  0.27740206472E+01  0.11267510511E+03  0.11293422599E+03  0.41800000000E+01 0. -1.
         -5    1    3    3    0  502  0.41302859993E+02  0.99116122339E+00 -0.20684891414E+02  0.46392302993E+02  0.41800000000E+01 0. -1.
        -11    1    1    2    0    0 -0.59753010327E+02  0.21291913150E+02  0.69454217974E+02  0.94061980646E+02  0.00000000000E+00 0.  1.
         11    1    1    2    0    0  0.24220115491E+02 -0.25057095020E+02  0.24300210863E+02  0.42484965026E+02  0.00000000000E+00 0. -1.
</event>
<event>
 7    1  0.2530765E-009  0.1010393E+03  0.7561462E-02  0.1278126E+00
         -1   -1    0    0    0  501 -0.00000000000E+00  0.00000000000E+00  0.60390365466E+02  0.60390365466E+02  0.00000000000E+00 0.  1.
          1   -1    0    0  501    0  0.00000000000E+00 -0.00000000000E+00 -0.20043309147E+03  0.20043309147E+03  0.00000000000E+00 0. -1.
         25    2    1    2    0    0 -0.25441431784E+02  0.31818611610E+02 -0.85997073167E+02  0.15717112350E+03  0.12509026730E+03 0.  0.
          5    1    3    3  502    0  0.33980683953E+02  0.45728119747E+02 -0.76177302044E+02  0.95216603406E+02  0.41800000000E+01 0. -1.
         -5    1    3    3    0  502 -0.59422115737E+02 -0.13909508137E+02 -0.98197711228E+01  0.61954520095E+02  0.41800000000E+01 0. -1.
        -11    1    1    2    0    0  0.31393649399E+02  0.16247848553E+02 -0.68107323623E+01  0.35999164997E+02  0.00000000000E+00 0. -1.
         11    1    1    2    0    0 -0.59522176158E+01 -0.48066460163E+02 -0.47234920471E+02  0.67653168433E+02  0.00000000000E+00 0.  1.
</event>
<event>
 7    1  0.3013093E-009  0.1079108E+03  0.7561462E-02  0.1264488E+00
         -1   -1    0    0    0  501 -0.00000000000E+00  0.00000000000E+00  0.11172896007E+02  0.11172896007E+02  0.00000000000E+00 0.  1.
          1   -1    0    0  501    0  0.00000000000E+00 -0.00000000000E+00 -0.17488410924E+04  0.17488410924E+04  0.00000000000E+00 0. -1.
         25    2    1    2    0    0  0.51992313945E+02  0.30206889862E+02 -0.13488590446E+04  0.13559809240E+04  0.12509151510E+03 0.  0.
          5    1    3    3  502    0  0.71382085839E+02 -0.20764638424E+01 -0.39868713777E+03  0.40505384840E+03  0.41800000000E+01 0. -1.
         -5    1    3    3    0  502 -0.19389771894E+02  0.32283353704E+02 -0.95017190687E+03  0.95092707564E+03  0.41800000000E+01 0. -1.
        -11    1    1    2    0    0  0.20522251334E+02 -0.26863439954E+02 -0.17504784188E+03  0.17828223173E+03  0.00000000000E+00 0.  1.
         11    1    1    2    0    0 -0.72514565279E+02 -0.33434499082E+01 -0.21376130989E+03  0.22575083265E+03  0.00000000000E+00 0. -1.
</event>
<event>
 7    1  0.2530765E-009  0.1912605E+03  0.7561462E-02  0.1157329E+00
          2   -1    0    0  501    0  0.00000000000E+00  0.00000000000E+00  0.51632139076E+03  0.51632139076E+03  0.00000000000E+00 0.  1.
         -2   -1    0    0    0  501 -0.00000000000E+00 -0.00000000000E+00 -0.88131931381E+02  0.88131931381E+02  0.00000000000E+00 0. -1.
         25    2    1    2    0    0  0.11903247254E+02 -0.17871823580E+03  0.16616855121E+03  0.27448407600E+03  0.12509046912E+03 0.  0.
          5    1    3    3  502    0 -0.26422541230E+02 -0.11923104214E+03  0.37912186004E+02  0.12794138636E+03  0.41800000000E+01 0.  1.
         -5    1    3    3    0  502  0.38325788483E+02 -0.59487193660E+02  0.12825636521E+03  0.14654268964E+03  0.41800000000E+01 0.  1.
        -11    1    1    2    0    0 -0.33417885017E+02  0.59040764183E+02  0.15004241799E+03  0.16466722221E+03  0.00000000000E+00 0.  1.
         11    1    1    2    0    0  0.21514637763E+02  0.11967747162E+03  0.11197849018E+03  0.16530202393E+03  0.00000000000E+00 0. -1.
</event>
<event>
 7    1  0.2530765E-009  0.1414259E+03  0.7561462E-02  0.1211423E+00
          1   -1    0    0  501    0  0.00000000000E+00  0.00000000000E+00  0.30995314733E+02  0.30995314733E+02  0.00000000000E+00 0. -1.
         -1   -1    0    0    0  501 -0.00000000000E+00 -0.00000000000E+00 -0.69639050987E+03  0.69639050987E+03  0.00000000000E+00 0.  1.
         25    2    1    2    0    0 -0.64928158534E+02  0.68575574314E+02 -0.43195963196E+03  0.45951589726E+03  0.12508981182E+03 0.  0.
          5    1    3    3  502    0  0.22595221699E+02 -0.19751666434E+02 -0.11733731546E+03  0.12118659319E+03  0.41800000000E+01 0. -1.
         -5    1    3    3    0  502 -0.87523380232E+02  0.88327240748E+02 -0.31462231650E+03  0.33832930406E+03  0.41800000000E+01 0. -1.
        -11    1    1    2    0    0  0.14063765292E+02  0.20911903071E+02 -0.25499461491E+02  0.35851355910E+02  0.00000000000E+00 0. -1.
         11    1    1    2    0    0  0.50864393242E+02 -0.89487477385E+02 -0.20793610168E+03  0.23201857144E+03  0.00000000000E+00 0.  1.
</event>
<event>
 7    1  0.2530765E-009  0.9826139E+02  0.7561462E-02  0.1283995E+00
          2   -1    0    0  501    0  0.00000000000E+00  0.00000000000E+00  0.22052783112E+03  0.22052783112E+03  0.00000000000E+00 0.  1.
         -2   -1    0    0    0  501 -0.00000000000E+00 -0.00000000000E+00 -0.84862695433E+02  0.84862695433E+02  0.00000000000E+00 0. -1.
         25    2    1    2    0    0 -0.61173574359E+02 -0.30326643926E+02  0.12559214177E+03  0.18995361852E+03  0.12508828716E+03 0.  0.
          5    1    3    3  502    0 -0.63338752246E+01 -0.61792918580E+02  0.10721271168E+03  0.12397790411E+03  0.41800000000E+01 0.  1.
         -5    1    3    3    0  502 -0.54839699135E+02  0.31466274654E+02  0.18379430087E+02  0.65975714412E+02  0.41800000000E+01 0.  1.
        -11    1    1    2    0    0  0.40619049146E+02  0.29733192587E+02  0.49733279957E+02  0.70762765847E+02  0.00000000000E+00 0.  1.
         11    1    1    2    0    0  0.20554525213E+02  0.59345133926E+00 -0.39660286038E+02  0.44674142184E+02  0.00000000000E+00 0. -1.
</event>
<event>
 7    1  0.2530765E-009  0.1582050E+03  0.7561462E-02  0.1190738E+00
         -2   -1    0    0    0  501 -0.00000000000E+00  0.00000000000E+00  0.38304925913E+02  0.38304925913E+02  0.00000000000E+00 0.  1.
          2   -1    0    0  501    0  0.00000000000E+00 -0.00000000000E+00 -0.83587649529E+03  0.83587649529E+03  0.00000000000E+00 0. -1.
         25    2    1    2    0    0  0.30404230984E+02 -0.11282591769E+03 -0.61727543991E+03  0.64057030493E+03  0.12508893586E+03 0.  0.
          5    1    3    3  502    0 -0.46246391125E+02 -0.59023126652E+02 -0.22307481030E+03  0.23537693507E+03  0.41800000000E+01 0. -1.
         -5    1    3    3    0  502  0.76650622109E+02 -0.53802791039E+02 -0.39420062961E+03  0.40519336986E+03  0.41800000000E+01 0. -1.
        -11    1    1    2    0    0 -0.62685346076E+02  0.70514561490E+02 -0.12783006716E+03  0.15887819883E+03  0.00000000000E+00 0. -1.
         11    1    1    2    0    0  0.32281115092E+02  0.42311356201E+02 -0.52466062308E+02  0.74732917441E+02  0.00000000000E+00 0.  1.
</event>
<event>
 7    1  0.2530765E-009  0.1277307E+03  0.7561462E-02  0.1230862E+00
          2   -1    0    0  501    0  0.00000000000E+00  0.00000000000E+00  0.88057456857E+02  0.88057456857E+02  0.00000000000E+00 0. -1.
         -2   -1    0    0    0  501 -0.00000000000E+00 -0.00000000000E+00 -0.24284144377E+03  0.24284144377E+03  0.00000000000E+00 0.  1.
         25    2    1    2    0    0 -0.86937038301E+02  0.60531632389E+01 -0.15847229792E+03  0.21989765921E+03  0.12508725716E+03 0.  0.
          5    1    3    3  502    0 -0.74879992435E+02  0.59388249202E+02 -0.11706299816E+03  0.15117934828E+03  0.41800000000E+01 0. -1.
         -5    1    3    3    0  502 -0.12057045866E+02 -0.53335085964E+02 -0.41409299768E+02  0.68718310930E+02  0.41800000000E+01 0. -1.
        -11    1    1    2    0    0  0.67233874842E+02 -0.30273637054E+02 -0.14093725448E+02  0.75070101397E+02  0.00000000000E+00 0. -1.
         11    1    1    2    0    0  0.19703163459E+02  0.24220473816E+02  0.17782036459E+02  0.35931140015E+02  0.00000000000E+00 0.  1.
</event>
<event>
 7    1  0.2530765E-009  0.1971866E+03  0.7561462E-02  0.1152135E+00
         -2   -1    0    0    0  501 -0.00000000000E+00  0.00000000000E+00  0.67969346526E+03  0.67969346526E+03  0.00000000000E+00 0.  1.
          2   -1    0    0  501    0  0.00000000000E+00 -0.00000000000E+00 -0.12192421670E+03  0.12192421670E+03  0.00000000000E+00 0. -1.
         25    2    1    2    0    0  0.18541053770E+03 -0.11423835389E+02  0.54735332675E+03  0.59139890187E+03  0.12509766312E+03 0.  0.
          5    1    3    3  502    0  0.10154244756E+03 -0.25636263710E+02  0.45002525490E+03  0.46206957173E+03  0.41800000000E+01 0.  1.
         -5    1    3    3    0  502  0.83868090142E+02  0.14212428321E+02  0.97328071850E+02  0.12932933013E+03  0.41800000000E+01 0.  1.
        -11    1    1    2    0    0 -0.29259228054E+02 -0.30955041572E+02 -0.17461295108E+02  0.46034919919E+02  0.00000000000E+00 0.  1.
         11    1    1    2    0    0 -0.15615130965E+03  0.42378876961E+02  0.27877216917E+02  0.16418386017E+03  0.00000000000E+00 0. -1.
</event>
<event>
 7    1  0.2530765E-009  0.9089703E+02  0.7561462E-02  0.1300694E+00
         -2   -1    0    0    0  501 -0.00000000000E+00  0.00000000000E+00  0.10666014123E+03  0.10666014123E+03  0.00000000000E+00 0.  1.
          2   -1    0    0  501    0  0.00000000000E+00 -0.00000000000E+00 -0.18535277679E+03  0.18535277679E+03  0.00000000000E+00 0. -1.
         25    2    1    2    0    0 -0.48471658991E+02  0.21707488199E+01 -0.12172733024E+03  0.18115991827E+03  0.12508860533E+03 0.  0.
          5    1    3    3  502    0  0.32045150438E+01  0.57164760816E+02 -0.40801613755E+02  0.70429559710E+02  0.41800000000E+01 0.  1.
         -5    1    3    3    0  502 -0.51676174035E+02 -0.54994011996E+02 -0.80925716486E+02  0.11073035856E+03  0.41800000000E+01 0.  1.
        -11    1    1    2    0    0  0.23317481035E+02 -0.36906492944E+01 -0.27328484429E+02  0.36113319914E+02  0.00000000000E+00 0. -1.
         11    1    1    2    0    0  0.25154177956E+02  0.15199004745E+01  0.70363179111E+02  0.74739679827E+02  0.00000000000E+00 0.  1.
</event>
<event>
 7    1  0.2530765E-009  0.1147363E+03  0.7561462E-02  0.1252042E+00
         -2   -1    0    0    0  501 -0.00000000000E+00  0.00000000000E+00  0.24785339914E+02  0.24785339914E+02  0.00000000000E+00 0. -1.
          2   -1    0    0  501    0  0.00000000000E+00 -0.00000000000E+00 -0.88284115066E+03  0.88284115066E+03  0.00000000000E+00 0.  1.
         25    2    1    2    0    0  0.67269208271E+02 -0.52781470791E+01 -0.69797722765E+03  0.71230110131E+03  0.12509054076E+03 0.  0.
          5    1    3    3  502    0 -0.24144929876E+02  0.19993744586E+02 -0.35566392628E+03  0.35706726021E+03  0.41800000000E+01 0. -1.
         -5    1    3    3    0  502  0.91414138147E+02 -0.25271891665E+02 -0.34231330138E+03  0.35523384110E+03  0.41800000000E+01 0. -1.
        -11    1    1    2    0    0 -0.84037663284E+02  0.11913634540E+02 -0.15478737519E+03  0.17653156958E+03  0.00000000000E+00 0.  1.
         11    1    1    2    0    0  0.16768455013E+02 -0.66354874610E+01 -0.52912078989E+01  0.18793819686E+02  0.00000000000E+00 0. -1.
</event>
<event>
 7    1  0.2530765E-009  0.9674995E+02  0.7561462E-02  0.1287283E+00
          2   -1    0    0  501    0  0.00000000000E+00  0.00000000000E+00  0.72741804159E+02  0.72741804159E+02  0.00000000000E+00 0. -1.
         -2   -1    0    0    0  501 -0.00000000000E+00 -0.00000000000E+00 -0.20868709946E+03  0.20868709946E+03  0.00000000000E+00 0.  1.
         25    2    1    2    0    0 -0.50433912845E+02  0.27781235253E+02 -0.89302189757E+02  0.16412739069E+03  0.12509013823E+03 0.  0.
          5    1    3    3  502    0  0.32420537404E+02  0.15730986295E+02 -0.68874073296E+02  0.77843853629E+02  0.41800000000E+01 0. -1.
         -5    1    3    3    0  502 -0.82854450249E+02  0.12050248958E+02 -0.20428116461E+02  0.86283537063E+02  0.41800000000E+01 0. -1.
        -11    1    1    2    0    0 -0.19218051313E+01 -0.20433371420E+02 -0.59459082601E+02  0.62901498442E+02  0.00000000000E+00 0.  1.
         11    1    1    2    0    0  0.52355717976E+02 -0.73478638328E+01  0.12815977059E+02  0.54400014482E+02  0.00000000000E+00 0. -1.
</event>
<event>
 7    1  0.2530765E-009  0.1025888E+03  0.7561462E-02  0.1274944E+00
          1   -1    0    0  501    0  0.00000000000E+00  0.00000000000E+00  0.19073198789E+02  0.19073198789E+02  0.00000000000E+00 0. -1.
         -1   -1    0    0    0  501 -0.00000000000E+00 -0.00000000000E+00 -0.68806651824E+03  0.68806651824E+03  0.00000000000E+00 0.  1.
         25    2    1    2    0    0 -0.33865842749E+02 -0.54460125972E+01 -0.44127406572E+03  0.45994065667E+03  0.12508418055E+03 0.  0.
          5    1    3    3  502    0 -0.31023990057E+02 -0.62614706878E+02 -0.28468051920E+03  0.29316132058E+03  0.41800000000E+01 0. -1.
         -5    1    3    3    0  502 -0.28418526923E+01  0.57168694281E+02 -0.15659354652E+03  0.16677933608E+03  0.41800000000E+01 0. -1.
        -11    1    1    2    0    0  0.49371934125E+02 -0.15475558608E+02 -0.20852527316E+03  0.21484848229E+03  0.00000000000E+00 0.  1.
         11    1    1    2    0    0 -0.15506091376E+02  0.20921571205E+02 -0.19193980565E+02  0.32350578069E+02  0.00000000000E+00 0. -1.
</event>
<event>
 7    1  0.2530765E-009  0.1772854E+03  0.7561462E-02  0.1170456E+00
         -1   -1    0    0    0  501 -0.00000000000E+00  0.00000000000E+00  0.34685749456E+02  0.34685749456E+02  0.00000000000E+00 0.  1.
          1   -1    0    0  501    0  0.00000000000E+00 -0.00000000000E+00 -0.13314561505E+04  0.13314561505E+04  0.00000000000E+00 0. -1.
         25    2    1    2    0    0 -0.14404372141E+03 -0.38057385476E+02 -0.32641496887E+03  0.37998783089E+03  0.12508821470E+03 0.  0.
          5    1    3    3  502    0 -0.15905491461E+03 -0.37411415409E+02 -0.22908869509E+03  0.28141993973E+03  0.41800000000E+01 0.  1.
         -5    1    3    3    0  502  0.15011193199E+02 -0.64597006716E+00 -0.97326273783E+02  0.98567891157E+02  0.41800000000E+01 0.  1.
        -11    1    1    2    0    0  0.73630541442E+02 -0.28194998962E+02 -0.40802769098E+03  0.41557551806E+03  0.00000000000E+00 0.  1.
         11    1    1    2    0    0  0.70413179968E+02  0.66252384438E+02 -0.56232774123E+03  0.57057855105E+03  0.00000000000E+00 0. -1.
</event>
<event>
 7    1  0.2530765E-009  0.2254801E+03  0.7561462E-02  0.1129862E+00
          2   -1    0    0  501    0  0.00000000000E+00  0.00000000000E+00  0.12732830835E+03  0.12732830835E+03  0.00000000000E+00 0. -1.
         -2   -1    0    0    0  501 -0.00000000000E+00 -0.00000000000E+00 -0.45822139618E+03  0.45822139618E+03  0.00000000000E+00 0.  1.
         25    2    1    2    0    0  0.18632823976E+03  0.91200705080E+02 -0.24600828374E+03  0.34525910218E+03  0.12509192793E+03 0.  0.
          5    1    3    3  502    0  0.78411902206E+02  0.10676486383E+03 -0.12275314935E+03  0.18064598150E+03  0.41800000000E+01 0.  1.
         -5    1    3    3    0  502  0.10791633755E+03 -0.15564158748E+02 -0.12325513439E+03  0.16461312069E+03  0.41800000000E+01 0.  1.
        -11    1    1    2    0    0 -0.33333579059E+02 -0.28918457089E+02 -0.58081199599E+02  0.72944022375E+02  0.00000000000E+00 0.  1.
         11    1    1    2    0    0 -0.15299466070E+03 -0.62282247992E+02 -0.26803604488E+02  0.16734657998E+03  0.00000000000E+00 0. -1.
</event>
<event>
 7    1  0.2530765E-009  0.1166341E+03  0.7561462E-02  0.1248755E+00
         -1   -1    0    0    0  501 -0.00000000000E+00  0.00000000000E+00  0.14350161951E+02  0.14350161951E+02  0.00000000000E+00 0.  1.
          1   -1    0    0  501    0  0.00000000000E+00 -0.00000000000E+00 -0.11356576614E+04  0.11356576614E+04  0.00000000000E+00 0. -1.
         25    2    1    2    0    0  0.29195072445E+02 -0.43070978599E+02 -0.82272489920E+03  0.83380483852E+03  0.12508711974E+03 0.  0.
          5    1    3    3  502    0 -0.35194009113E+02  0.22684638805E+02 -0.20786064818E+03  0.21207718542E+03  0.41800000000E+01 0. -1.
         -5    1    3    3    0  502  0.64389081558E+02 -0.65755617404E+02 -0.61486425102E+03  0.62172765310E+03  0.41800000000E+01 0. -1.
        -11    1    1    2    0    0 -0.51464520743E+02  0.53706315461E+02 -0.17453948879E+03  0.18972874943E+03  0.00000000000E+00 0.  1.
         11    1    1    2    0    0  0.22269448298E+02 -0.10635336862E+02 -0.12404311144E+03  0.12647423538E+03  0.00000000000E+00 0. -1.
</event>
<event>
 7    1  0.2530765E-009  0.9221858E+02  0.7561462E-02  0.1297566E+00
         -1   -1    0    0    0  501 -0.00000000000E+00  0.00000000000E+00  0.13517555076E+03  0.13517555076E+03  0.00000000000E+00 0.  1.
          1   -1    0    0  501    0  0.00000000000E+00 -0.00000000000E+00 -0.12366690960E+03  0.12366690960E+03  0.00000000000E+00 0. -1.
         25    2    1    2    0    0  0.28857257361E+02 -0.20181867233E+02  0.67100073733E+02  0.14625162477E+03  0.12508824400E+03 0.  0.
          5    1    3    3  502    0 -0.38334521768E+02 -0.40690528086E+02  0.46742004542E+02  0.72990013178E+02  0.41800000000E+01 0.  1.
         -5    1    3    3    0  502  0.67191779129E+02  0.20508660853E+02  0.20358069191E+02  0.73261611596E+02  0.41800000000E+01 0.  1.
        -11    1    1    2    0    0 -0.40267619088E+02  0.22827345146E+02 -0.76042730652E+02  0.89022838184E+02  0.00000000000E+00 0. -1.
         11    1    1    2    0    0  0.11410361727E+02 -0.26454779127E+01  0.20451298081E+02  0.23567997397E+02  0.00000000000E+00 0.  1.
</event>
<event>
 7    1  0.2530765E-009  0.2095333E+03  0.7561462E-02  0.1141936E+00
         -1   -1    0    0    0  501 -0.00000000000E+00  0.00000000000E+00  0.16582678568E+03  0.16582678568E+03  0.00000000000E+00 0. -1.
          1   -1    0    0  501    0  0.00000000000E+00 -0.00000000000E+00 -0.27353229521E+03  0.27353229521E+03  0.00000000000E+00 0.  1.
         25    2    1    2    0    0 -0.16878404658E+02  0.17878305210E+03 -0.93292863754E+02  0.23790480430E+03  0.12508747827E+03 0.  0.
          5    1    3    3  502    0  0.53601548205E+02  0.59743318414E+02 -0.37252973621E+02  0.88586943218E+02  0.41800000000E+01 0. -1.
         -5    1    3    3    0  502 -0.70479952864E+02  0.11903973369E+03 -0.56039890133E+02  0.14931786108E+03  0.41800000000E+01 0. -1.
        -11    1    1    2    0    0  0.48063178282E+02 -0.56907166474E+02  0.24400703896E+01  0.74528173506E+02  0.00000000000E+00 0.  1.
         11    1    1    2    0    0 -0.31184773624E+02 -0.12187588563E+03 -0.16852716167E+02  0.12692610309E+03  0.00000000000E+00 0. -1.
</event>
<event>
 7    1  0.2755403E-009  0.7441469E+02  0.7561462E-02  0.1345693E+00
          3   -1    0    0  501    0  0.00000000000E+00  0.00000000000E+00  0.14064563971E+03  0.14064563971E+03  0.00000000000E+00 0. -1.
         -3   -1    0    0    0  501 -0.00000000000E+00 -0.00000000000E+00 -0.94948770885E+02  0.94948770885E+02  0.00000000000E+00 0.  1.
         25    2    1    2    0    0 -0.29729250874E+01  0.12627613482E+02 -0.13046067597E+02  0.12642216587E+03  0.12507625369E+03 0.  0.
          5    1    3    3  502    0  0.32258044889E+02  0.40288552742E+02 -0.47101849746E+02  0.69998611355E+02  0.41800000000E+01 0.  1.
         -5    1    3    3    0  502 -0.35230969976E+02 -0.27660939260E+02  0.34055782148E+02  0.56423554514E+02  0.41800000000E+01 0.  1.
        -11    1    1    2    0    0  0.61532923318E+01  0.19155798418E+02 -0.17400404021E+02  0.26600407508E+02  0.00000000000E+00 0.  1.
         11    1    1    2    0    0 -0.31803672445E+01 -0.31783411899E+02  0.76143340442E+02  0.82571837217E+02  0.00000000000E+00 0. -1.
</event>
<event>
 7    1  0.2530765E-009  0.1200651E+03  0.7561462E-02  0.1242990E+00
          1   -1    0    0  501    0  0.00000000000E+00  0.00000000000E+00  0.48648990428E+03  0.48648990428E+03  0.00000000000E+00 0. -1.
         -1   -1    0    0    0  501 -0.00000000000E+00 -0.00000000000E+00 -0.37082045135E+02  0.37082045135E+02  0.00000000000E+00 0.  1.
         25    2    1    2    0    0  0.53862152902E+02 -0.57278220992E+02  0.22815347458E+03  0.27181476662E+03  0.12508930120E+03 0.  0.
          5    1    3    3  502    0 -0.27494785076E+02 -0.13388652095E+01  0.12845833883E+03  0.13144113884E+03  0.41800000000E+01 0. -1.
         -5    1    3    3    0  502  0.81356937977E+02 -0.55939355782E+02  0.99695135750E+02  0.14037362777E+03  0.41800000000E+01 0. -1.
        -11    1    1    2    0    0  0.20601367140E+02  0.24765577195E+02  0.30257084397E+02  0.44195489567E+02  0.00000000000E+00 0.  1.
         11    1    1    2    0    0 -0.74463520042E+02  0.32512643796E+02  0.19099730017E+03  0.20756169323E+03  0.00000000000E+00 0. -1.
</event>
<event>
 7    1  0.2530765E-009  0.1328932E+03  0.7561462E-02  0.1223225E+00
          2   -1    0    0  501    0  0.00000000000E+00  0.00000000000E+00  0.82076193478E+03  0.82076193478E+03  0.00000000000E+00 0.  1.
         -2   -1    0    0    0  501 -0.00000000000E+00 -0.00000000000E+00 -0.25093352817E+02  0.25093352817E+02  0.00000000000E+00 0. -1.
         25    2    1    2    0    0 -0.35994885791E+02  0.76437055160E+02  0.55579273080E+03  0.57592656017E+03  0.12509031894E+03 0.  0.
          5    1    3    3  502    0 -0.76882634101E+02  0.27635844580E+02  0.38524741305E+03  0.39383717574E+03  0.41800000000E+01 0. -1.
         -5    1    3    3    0  502  0.40887748310E+02  0.48801210580E+02  0.17054531776E+03  0.18208938444E+03  0.41800000000E+01 0. -1.
        -11    1    1    2    0    0  0.56770945283E+02 -0.80992848380E+02  0.21814805938E+03  0.23952318787E+03  0.00000000000E+00 0.  1.
         11    1    1    2    0    0 -0.20776059492E+02  0.45557932193E+01  0.21727791778E+02  0.30405539552E+02  0.00000000000E+00 0. -1.
</event>
<event>
 7    1  0.2530765E-009  0.1992358E+03  0.7561462E-02  0.1150385E+00
         -2   -1    0    0    0  501 -0.00000000000E+00  0.00000000000E+00  0.15259895757E+03  0.15259895757E+03  0.00000000000E+00 0.  1.
          2   -1    0    0  501    0  0.00000000000E+00 -0.00000000000E+00 -0.36464797447E+03  0.36464797447E+03  0.00000000000E+00 0. -1.
         25    2    1    2    0    0  0.53318013605E+02 -0.17808512618E+03 -0.49051858443E+01  0.22411783749E+03  0.12509045324E+03 0.  0.
          5    1    3    3  502    0  0.48486352467E+01 -0.97304918907E+02 -0.60396263687E+02  0.11470369469E+03  0.41800000000E+01 0. -1.
         -5    1    3    3    0  502  0.48469378358E+02 -0.80780207270E+02  0.55491077843E+02  0.10941414280E+03  0.41800000000E+01 0. -1.
        -11    1    1    2    0    0  0.25238845458E+02  0.31642038202E+02 -0.50896827784E+02  0.65028493601E+02  0.00000000000E+00 0.  1.
         11    1    1    2    0    0 -0.78556859063E+02  0.14644308798E+03 -0.15624700327E+03  0.22810060095E+03  0.00000000000E+00 0. -1.
</event>
<event>
 7    1  0.2530765E-009  0.1081847E+03  0.7561462E-02  0.1263969E+00
          1   -1    0    0  501    0  0.00000000000E+00  0.00000000000E+00  0.90222958428E+02  0.90222958428E+02  0.00000000000E+00 0. -1.
         -1   -1    0    0    0  501 -0.00000000000E+00 -0.00000000000E+00 -0.15596015817E+03  0.15596015817E+03  0.00000000000E+00 0.  1.
         25    2    1    2    0    0 -0.42462643241E+02 -0.26212913113E+02 -0.34448490385E+02  0.13901234821E+03  0.12509013383E+03 0.  0.
          5    1    3    3  502    0 -0.86739148905E+02 -0.10435783051E+02 -0.23595390405E+02  0.90591392356E+02  0.41800000000E+01 0. -1.
         -5    1    3    3    0  502  0.44276505664E+02 -0.15777130062E+02 -0.10853099980E+02  0.48420955855E+02  0.41800000000E+01 0. -1.
        -11    1    1    2    0    0  0.20877810285E+01 -0.20138038165E+02  0.18989340123E+02  0.27757781775E+02  0.00000000000E+00 0. -1.
         11    1    1    2    0    0  0.40374862212E+02  0.46350951277E+02 -0.50278049481E+02  0.79412986612E+02  0.00000000000E+00 0.  1.
</event>
<event>
 7    1  0.2530765E-009  0.8826340E+02  0.7561462E-02  0.1307112E+00
          2   -1    0    0  501    0  0.00000000000E+00  0.00000000000E+00  0.21333510502E+03  0.21333510502E+03  0.00000000000E+00 0. -1.
         -2   -1    0    0    0  501 -0.00000000000E+00 -0.00000000000E+00 -0.69070470075E+02  0.69070470075E+02  0.00000000000E+00 0.  1.
         25    2    1    2    0    0  0.25185915910E+02  0.47425936873E+02  0.68437777270E+02  0.15236125116E+03  0.12508665656E+03 0.  0.
          5    1    3    3  502    0 -0.15039511209E+02  0.52017607542E+02 -0.17675758563E+02  0.57113249186E+02  0.41800000000E+01 0. -1.
         -5    1    3    3    0  502  0.40225427120E+02 -0.45916706689E+01  0.86113535832E+02  0.95248001974E+02  0.41800000000E+01 0. -1.
        -11    1    1    2    0    0  0.20460990436E+02 -0.11868211865E+02  0.67577165538E+02  0.71597345514E+02  0.00000000000E+00 0.  1.
         11    1    1    2    0    0 -0.45646906347E+02 -0.35557725007E+02  0.82496921430E+01  0.58446978426E+02  0.00000000000E+00 0. -1.
</event>
<event>
 7    1  0.2755377E-009  0.9026657E+02  0.7561462E-02  0.1302207E+00
         -2   -1    0    0    0  501 -0.00000000000E+00  0.00000000000E+00  0.18825076220E+02  0.18825076220E+02  0.00000000000E+00 0.  1.
          2   -1    0    0  501    0  0.00000000000E+00 -0.00000000000E+00 -0.84658310768E+03  0.84658310768E+03  0.00000000000E+00 0. -1.
         25    2    1    2    0    0  0.10673539550E+02 -0.61035574360E+02 -0.51844253797E+03  0.53690666271E+03  0.12508730350E+03 0.  0.
          5    1    3    3  502    0 -0.30550319504E+02 -0.44082436665E+01 -0.38394023478E+03  0.38520167564E+03  0.41800000000E+01 0.  1.
         -5    1    3    3    0  502  0.41223859054E+02 -0.56627330694E+02 -0.13450230320E+03  0.15170498707E+03  0.41800000000E+01 0.  1.
        -11    1    1    2    0    0 -0.13188944278E+02 -0.42698753313E+01 -0.16376017100E+01  0.13959291739E+02  0.00000000000E+00 0.  1.
         11    1    1    2    0    0  0.25154047277E+01  0.65305449692E+02 -0.30767789178E+03  0.31454222945E+03  0.00000000000E+00 0. -1.
</event>
<event>
 7    1  0.2530765E-009  0.1256842E+03  0.7561462E-02  0.1234004E+00
         -2   -1    0    0    0  501 -0.00000000000E+00  0.00000000000E+00  0.32715418703E+02  0.32715418703E+02  0.00000000000E+00 0.  1.
          2   -1    0    0  501    0  0.00000000000E+00 -0.00000000000E+00 -0.97754070487E+03  0.97754070487E+03  0.00000000000E+00 0. -1.
         25    2    1    2    0    0 -0.93940682471E+02 -0.81331044046E+02 -0.69162383348E+03  0.71374575911E+03  0.12509952464E+03 0.  0.
          5    1    3    3  502    0 -0.92485413393E+01 -0.15382862194E+02 -0.54556482305E+01  0.19219897601E+02  0.41800000000E+01 0. -1.
         -5    1    3    3    0  502 -0.84692141132E+02 -0.65948181852E+02 -0.68616818525E+03  0.69452586151E+03  0.41800000000E+01 0. -1.
        -11    1    1    2    0    0  0.23566496882E+02  0.10941985551E+02 -0.17107528035E+01  0.26039076370E+02  0.00000000000E+00 0.  1.
         11    1    1    2    0    0  0.70374185589E+02  0.70389058495E+02 -0.25149069988E+03  0.27047128809E+03  0.00000000000E+00 0. -1.
</event>
<event>
 7    1  0.2530765E-009  0.1473756E+03  0.7561462E-02  0.1203735E+00
          1   -1    0    0  501    0  0.00000000000E+00  0.00000000000E+00  0.20302281962E+03  0.20302281962E+03  0.00000000000E+00 0. -1.
         -1   -1    0    0    0  501 -0.00000000000E+00 -0.00000000000E+00 -0.16916889212E+03  0.16916889212E+03  0.00000000000E+00 0.  1.
         25    2    1    2    0    0  0.12522644724E+03 -0.32601406689E+02  0.95443293370E+02  0.20371421983E+03  0.12508215822E+03 0.  0.
          5    1    3    3  502    0  0.12182553339E+03 -0.55865565284E+01  0.11675611010E+03  0.16888496631E+03  0.41800000000E+01 0. -1.
         -5    1    3    3    0  502  0.34009138502E+01 -0.27014850160E+02 -0.21312816726E+02  0.34829253524E+02  0.41800000000E+01 0. -1.
        -11    1    1    2    0    0 -0.92169029415E+02 -0.83539138128E+01 -0.72542644714E+01  0.92830718043E+02  0.00000000000E+00 0. -1.
         11    1    1    2    0    0 -0.33057417830E+02  0.40955320502E+02 -0.54335101401E+02  0.75646773858E+02  0.00000000000E+00 0.  1.
</event>
<event>
 7    1  0.2530765E-009  0.7991030E+02  0.7561462E-02  0.1329306E+00
         -1   -1    0    0    0  501 -0.00000000000E+00  0.00000000000E+00  0.21457822426E+02  0.21457822426E+02  0.00000000000E+00 0.  1.
          1   -1    0    0  501    0  0.00000000000E+00 -0.00000000000E+00 -0.87641795851E+03  0.87641795851E+03  0.00000000000E+00 0. -1.
         25    2    1    2    0    0 -0.55277697075E+02 -0.38773720783E+01 -0.63856384780E+03  0.65305617107E+03  0.12509163461E+03 0.  0.
          5    1    3    3  502    0 -0.19044082648E+02  0.28381241853E+02 -0.55700072891E+03  0.55806402534E+03  0.41800000000E+01 0.  1.
         -5    1    3    3    0  502 -0.36233614427E+02 -0.32258613931E+02 -0.81563118883E+02  0.94992145724E+02  0.41800000000E+01 0.  1.
        -11    1    1    2    0    0 -0.19642156206E+01 -0.15984703706E+02  0.37094833103E+01  0.16526619800E+02  0.00000000000E+00 0.  1.
         11    1    1    2    0    0  0.57241912695E+02  0.19862075785E+02 -0.22010577159E+03  0.22829299006E+03  0.00000000000E+00 0. -1.
</event>
<event>
 7    1  0.2530765E-009  0.1084922E+03  0.7561462E-02  0.1263388E+00
         -1   -1    0    0    0  501 -0.00000000000E+00  0.00000000000E+00  0.49916016299E+02  0.49916016299E+02  0.00000000000E+00 0.  1.
          1   -1    0    0  501    0  0.00000000000E+00 -0.00000000000E+00 -0.47501632782E+03  0.47501632782E+03  0.00000000000E+00 0. -1.
         25    2    1    2    0    0 -0.39908835983E+02  0.10606224006E+02 -0.40090246406E+03  0.42198944909E+03  0.12508837789E+03 0.  0.
          5    1    3    3  502    0 -0.69295318564E+02 -0.23569388466E+02 -0.14908618024E+03  0.16613704821E+03  0.41800000000E+01 0. -1.
         -5    1    3    3    0  502  0.29386482581E+02  0.34175612472E+02 -0.25181628381E+03  0.25585240089E+03  0.41800000000E+01 0. -1.
        -11    1    1    2    0    0  0.63051509035E+02 -0.28459067165E+02 -0.25392835667E+02  0.73689940960E+02  0.00000000000E+00 0. -1.
         11    1    1    2    0    0 -0.23142673052E+02  0.17852843159E+02  0.11949881986E+01  0.29252954067E+02  0.00000000000E+00 0.  1.
</event>
<event>
 7    1  0.3666370E-009  0.1824074E+03  0.7561462E-02  0.1165493E+00
          1   -1    0    0  501    0  0.00000000000E+00  0.00000000000E+00  0.21817097748E+03  0.21817097748E+03  0.00000000000E+00 0. -1.
         -1   -1    0    0    0  501 -0.00000000000E+00 -0.00000000000E+00 -0.20522584470E+03  0.20522584470E+03  0.00000000000E+00 0.  1.
         25    2    1    2    0    0 -0.15668220894E+03  0.68567536833E+02  0.67093894530E+02  0.22226280380E+03  0.12509333140E+03 0.  0.
          5    1    3    3  502    0 -0.41444347081E+02 -0.15977545130E+02  0.65520909797E+02  0.79267760622E+02  0.41800000000E+01 0. -1.
         -5    1    3    3    0  502 -0.11523786186E+03  0.84545081963E+02  0.15729847327E+01  0.14299504317E+03  0.41800000000E+01 0. -1.
        -11    1    1    2    0    0  0.10703295725E+03 -0.22263063218E+02  0.72953036021E+01  0.10956696297E+03  0.00000000000E+00 0. -1.
         11    1    1    2    0    0  0.49649251699E+02 -0.46304473615E+02 -0.61444065351E+02  0.91567055418E+02  0.00000000000E+00 0.  1.
</event>
<event>
 7    1  0.2530765E-009  0.1512742E+03  0.7561462E-02  0.1198916E+00
          2   -1    0    0  501    0  0.00000000000E+00  0.00000000000E+00  0.88387318221E+03  0.88387318221E+03  0.00000000000E+00 0.  1.
         -2   -1    0    0    0  501 -0.00000000000E+00 -0.00000000000E+00 -0.35276512704E+02  0.35276512704E+02  0.00000000000E+00 0. -1.
         25    2    1    2    0    0 -0.96532156436E+02  0.43983818866E+02  0.67980040800E+03  0.69930619204E+03  0.12509005543E+03 0.  0.
          5    1    3    3  502    0 -0.87160284379E+02  0.84254422178E+02  0.54023701553E+03  0.55368694058E+03  0.41800000000E+01 0.  1.
         -5    1    3    3    0  502 -0.93718720576E+01 -0.40270603312E+02  0.13956339247E+03  0.14561925146E+03  0.41800000000E+01 0.  1.
        -11    1    1    2    0    0  0.10710138133E+02 -0.52377609640E+02  0.51243238791E+02  0.74053970672E+02  0.00000000000E+00 0. -1.
         11    1    1    2    0    0  0.85822018304E+02  0.83937907741E+01  0.11755302272E+03  0.14578953220E+03  0.00000000000E+00 0.  1.
</event>
<event>
 7    1  0.2530765E-009  0.1265174E+03  0.7561462E-02  0.1232717E+00
         -1   -1    0    0    0  501 -0.00000000000E+00  0.00000000000E+00  0.28184495551E+02  0.28184495551E+02  0.00000000000E+00 0.  1.
          1   -1    0    0  501    0  0.00000000000E+00 -0.00000000000E+00 -0.60808842551E+03  0.60808842551E+03  0.00000000000E+00 0. -1.
         25    2    1    2    0    0  0.19304105587E+02 -0.59459035072E+02 -0.23729098586E+03  0.27543338031E+03  0.12509400335E+03 0.  0.
          5    1    3    3  502    0  0.16643428455E+02 -0.98754790734E+02 -0.16925324513E+03  0.19670700493E+03  0.41800000000E+01 0. -1.
         -5    1    3    3    0  502  0.26606771325E+01  0.39295755662E+02 -0.68037740734E+02  0.78726375377E+02  0.41800000000E+01 0. -1.
        -11    1    1    2    0    0 -0.53488455610E+02  0.58113843122E+02 -0.24336420100E+03  0.25586005545E+03  0.00000000000E+00 0. -1.
         11    1    1    2    0    0  0.34184350023E+02  0.13451919502E+01 -0.99248743095E+02  0.10497948530E+03  0.00000000000E+00 0.  1.
</event>
<event>
 7    1  0.2530765E-009  0.9428141E+02  0.7561462E-02  0.1292803E+00
          1   -1    0    0  501    0  0.00000000000E+00  0.00000000000E+00  0.51408528111E+03  0.51408528111E+03  0.00000000000E+00 0. -1.
         -1   -1    0    0    0  501 -0.00000000000E+00 -0.00000000000E+00 -0.28887637356E+02  0.28887637356E+02  0.00000000000E+00 0.  1.
         25    2    1    2    0    0 -0.31008095527E+02  0.28241690346E+02  0.20313793962E+03  0.24222259872E+03  0.12509064616E+03 0.  0.
          5    1    3    3  502    0 -0.10276943861E+02  0.56577142416E+02  0.19832944228E+03  0.20653965405E+03  0.41800000000E+01 0. -1.
         -5    1    3    3    0  502 -0.20731151666E+02 -0.28335452070E+02  0.48084973316E+01  0.35682944666E+02  0.41800000000E+01 0. -1.
        -11    1    1    2    0    0  0.21017606107E+02  0.29904987415E+02  0.54178920738E+02  0.65355975175E+02  0.00000000000E+00 0.  1.
         11    1    1    2    0    0  0.99904894199E+01 -0.58146677761E+02  0.22788078340E+03  0.23539434457E+03  0.00000000000E+00 0. -1.
</event>
<event>
 7    1  0.2530765E-009  0.1432854E+03  0.7561462E-02  0.1208975E+00
         -2   -1    0    0    0  501 -0.00000000000E+00  0.00000000000E+00  0.28571083931E+03  0.28571083931E+03  0.00000000000E+00 0.  1.
          2   -1    0    0  501    0  0.00000000000E+00 -0.00000000000E+00 -0.90979366412E+02  0.90979366412E+02  0.00000000000E+00 0. -1.
         25    2    1    2    0    0 -0.87718123726E+02  0.78583779756E+02  0.12017332120E+03  0.20966594890E+03  0.12509317858E+03 0.  0.
          5    1    3    3  502    0 -0.10220726374E+03  0.95826222146E+02  0.12313229837E+03  0.18656908885E+03  0.41800000000E+01 0. -1.
         -5    1    3    3    0  502  0.14489140017E+02 -0.17242442391E+02 -0.29589771681E+01  0.23096860045E+02  0.41800000000E+01 0. -1.
        -11    1    1    2    0    0  0.13207887493E+02 -0.34457795332E+02  0.71397733118E+02  0.80370543395E+02  0.00000000000E+00 0.  1.
         11    1    1    2    0    0  0.74510236233E+02 -0.44125984423E+02  0.31604185717E+01  0.86653713425E+02  0.00000000000E+00 0. -1.
</event>
<event>
 7    1  0.2530765E-009  0.8203259E+02  0.7561462E-02  0.1323380E+00
          1   -1    0    0  501    0  0.00000000000E+00  0.00000000000E+00  0.29894525485E+03  0.29894525485E+03  0.00000000000E+00 0. -1.
         -1   -1    0    0    0  501 -0.00000000000E+00 -0.00000000000E+00 -0.47117850439E+02  0.47117850439E+02  0.00000000000E+00 0.  1.
         25    2    1    2    0    0 -0.48358254026E+02 -0.12192210197E+02  0.13818655782E+03  0.19294674997E+03  0.12508298381E+03 0.  0.
          5    1    3    3  502    0 -0.45631307378E+02  0.10741756544E+02  0.15634273190E+03  0.16327315690E+03  0.41800000000E+01 0. -1.
         -5    1    3    3    0  502 -0.27269466488E+01 -0.22933966741E+02 -0.18156174075E+02  0.29673593068E+02  0.41800000000E+01 0. -1.
        -11    1    1    2    0    0 -0.80296769745E+01  0.32591036874E+02  0.13059383743E+02  0.36016647548E+02  0.00000000000E+00 0.  1.
         11    1    1    2    0    0  0.56387931001E+02 -0.20398826678E+02  0.10058146285E+03  0.11709970777E+03  0.00000000000E+00 0. -1.
</event>
<event>
 7    1  0.2530765E-009  0.1284114E+03  0.7561462E-02  0.1229832E+00
          2   -1    0    0  501    0  0.00000000000E+00  0.00000000000E+00  0.60968837218E+02  0.60968837218E+02  0.00000000000E+00 0. -1.
         -2   -1    0    0    0  501 -0.00000000000E+00 -0.00000000000E+00 -0.72035321979E+03  0.72035321979E+03  0.00000000000E+00 0.  1.
         25    2    1    2    0    0 -0.11046143746E+03 -0.20025099310E+02 -0.88107806060E+02  0.18977131955E+03  0.12508970568E+03 0.  0.
          5    1    3    3  502    0 -0.92202261762E+02 -0.87859526804E+01 -0.11967240634E+03  0.15138496384E+03  0.41800000000E+01 0. -1.
         -5    1    3    3    0  502 -0.18259175702E+02 -0.11239146630E+02  0.31564600277E+02  0.38386355713E+02  0.41800000000E+01 0. -1.
        -11    1    1    2    0    0  0.70201740338E+02  0.54805543992E+02 -0.45563650556E+03  0.46425914875E+03  0.00000000000E+00 0. -1.
         11    1    1    2    0    0  0.40259697127E+02 -0.34780444682E+02 -0.11564007095E+03  0.12729158870E+03  0.00000000000E+00 0.  1.
</event>
<event>
 7    1  0.2530765E-009  0.1212464E+03  0.7561462E-02  0.1241055E+00
          1   -1    0    0  501    0  0.00000000000E+00  0.00000000000E+00  0.35188923005E+03  0.35188923005E+03  0.00000000000E+00 0. -1.
         -1   -1    0    0    0  501 -0.00000000000E+00 -0.00000000000E+00 -0.49115605880E+02  0.49115605880E+02  0.00000000000E+00 0.  1.
         25    2    1    2    0    0 -0.44598734207E+02 -0.56545452576E+02  0.14807757356E+03  0.20678657890E+03  0.12508911273E+03 0.  0.
          5    1    3    3  502    0 -0.37843616975E+02  0.32461160344E+02  0.28740258851E+02  0.57700443286E+02  0.41800000000E+01 0.  1.
         -5    1    3    3    0  502 -0.67551172323E+01 -0.89006612920E+02  0.11933731471E+03  0.14908613562E+03  0.41800000000E+01 0.  1.
        -11    1    1    2    0    0 -0.62825009886E+01  0.51596685557E+02  0.31355132618E+02  0.60702818061E+02  0.00000000000E+00 0.  1.
         11    1    1    2    0    0  0.50881235196E+02  0.49487670194E+01  0.12334091799E+03  0.13351543896E+03  0.00000000000E+00 0. -1.
</event>
<event>
 7    1  0.2530765E-009  0.7604624E+02  0.7561462E-02  0.1340661E+00
          1   -1    0    0  501    0  0.00000000000E+00  0.00000000000E+00  0.23901829978E+02  0.23901829978E+02  0.00000000000E+00 0. -1.
         -1   -1    0    0    0  501 -0.00000000000E+00 -0.00000000000E+00 -0.60978034184E+03  0.60978034184E+03  0.00000000000E+00 0.  1.
         25    2    1    2    0    0 -0.21227915436E+02 -0.47913186103E+02 -0.36078630795E+03  0.38543485176E+03  0.12508783776E+03 0.  0.
          5    1    3    3  502    0 -0.30260385504E+02 -0.14583273024E+02 -0.13551293447E+02  0.36461935454E+02  0.41800000000E+01 0. -1.
         -5    1    3    3    0  502  0.90324700688E+01 -0.33329913079E+02 -0.34723501450E+03  0.34897291631E+03  0.41800000000E+01 0. -1.
        -11    1    1    2    0    0  0.32028685315E+02 -0.22859566596E+01 -0.16972128217E+03  0.17273209286E+03  0.00000000000E+00 0.  1.
         11    1    1    2    0    0 -0.10800769879E+02  0.50199142762E+02 -0.55370921740E+02  0.75515227196E+02  0.00000000000E+00 0. -1.
</event>
<event>
 7    1  0.2530765E-009  0.1214511E+03  0.7561462E-02  0.1240722E+00
         -1   -1    0    0    0  501 -0.00000000000E+00  0.00000000000E+00  0.29445226504E+02  0.29445226504E+02  0.00000000000E+00 0.  1.
          1   -1    0    0  501    0  0.00000000000E+00 -0.00000000000E+00 -0.59398798828E+03  0.59398798828E+03  0.00000000000E+00 0. -1.
         25    2    1    2    0    0 -0.14535997746E+02 -0.63461219690E+02 -0.28547443054E+03  0.31840591342E+03  0.12509218031E+03 0.  0.
          5    1    3    3  502    0 -0.20682583132E+02  0.31235528989E+02 -0.13745239619E+03  0.14252740486E+03  0.41800000000E+01 0.  1.
         -5    1    3    3    0  502  0.61465853863E+01 -0.94696748679E+02 -0.14802203435E+03  0.17587850857E+03  0.41800000000E+01 0.  1.
        -11    1    1    2    0    0 -0.35581726754E+02  0.43681746832E+02 -0.74042494822E+02  0.93040020016E+02  0.00000000000E+00 0.  1.
         11    1    1    2    0    0  0.50117724500E+02  0.19779472858E+02 -0.20502583641E+03  0.21198728134E+03  0.00000000000E+00 0. -1.
</event>
<event>
 7    1  0.2530765E-009  0.1424423E+03  0.7561462E-02  0.1210080E+00
         -1   -1    0    0    0  501 -0.00000000000E+00  0.00000000000E+00  0.79527750161E+02  0.79527750161E+02  0.00000000000E+00 0.  1.
          1   -1    0    0  501    0  0.00000000000E+00 -0.00000000000E+00 -0.41865045129E+03  0.41865045129E+03  0.00000000000E+00 0. -1.
         25    2    1    2    0    0 -0.20307816066E+02 -0.13551092113E+03 -0.10886760911E+03  0.21511590592E+03  0.12508828694E+03 0.  0.
          5    1    3    3  502    0 -0.29705079694E+02 -0.13401367824E+03 -0.13154680531E+03  0.19016858863E+03  0.41800000000E+01 0. -1.
         -5    1    3    3    0  502  0.93972636287E+01 -0.14972428851E+01  0.22679196196E+02  0.24947317292E+02  0.41800000000E+01 0. -1.
        -11    1    1    2    0    0  0.14677031042E+02  0.77492670349E+02 -0.20478838758E+03  0.21945116287E+03  0.00000000000E+00 0. -1.
         11    1    1    2    0    0  0.56307850234E+01  0.58018250778E+02 -0.25466704444E+02  0.63611132662E+02  0.00000000000E+00 0.  1.
</event>
<event>
 7    1  0.2530765E-009  0.1136497E+03  0.7561462E-02  0.1253957E+00
          1   -1    0    0  501    0  0.00000000000E+00  0.00000000000E+00  0.13565437299E+04  0.13565437299E+04  0.00000000000E+00 0. -1.
         -1   -1    0    0    0  501 -0.00000000000E+00 -0.00000000000E+00 -0.12421829463E+02  0.12421829463E+02  0.00000000000E+00 0.  1.
         25    2    1    2    0    0 -0.42550996624E+02 -0.43670879517E+02  0.93349031407E+03  0.94380590548E+03  0.12509071797E+03 0.  0.
          5    1    3    3  502    0  0.40636300218E+02 -0.92696632664E+01  0.17320477271E+03  0.17819820774E+03  0.41800000000E+01 0. -1.
         -5    1    3    3    0  502 -0.83187296842E+02 -0.34401216251E+02  0.76028554136E+03  0.76560769773E+03  0.41800000000E+01 0. -1.
        -11    1    1    2    0    0  0.61365421245E+02  0.45495303361E+02  0.38901306477E+03  0.39644255841E+03  0.00000000000E+00 0. -1.
         11    1    1    2    0    0 -0.18814424621E+02 -0.18244238442E+01  0.21618521561E+02  0.28717095443E+02  0.00000000000E+00 0.  1.
</event>
<event>
 7    1  0.2530765E-009  0.6919761E+02  0.7561462E-02  0.1362843E+00
         -2   -1    0    0    0  501 -0.00000000000E+00  0.00000000000E+00  0.50339250313E+02  0.50339250313E+02  0.00000000000E+00 0.  1.
          2   -1    0    0  501    0  0.00000000000E+00 -0.00000000000E+00 -0.25442355631E+03  0.25442355631E+03  0.00000000000E+00 0. -1.
         25    2    1    2    0    0 -0.93821749647E+01 -0.15284449828E+02 -0.15484716603E+03  0.19986338894E+03  0.12508433074E+03 0.  0.
          5    1    3    3  502    0  0.22993453194E+02  0.10620232012E+02  0.11678832746E+02  0.28202052267E+02  0.41800000000E+01 0. -1.
         -5    1    3    3    0  502 -0.32375628159E+02 -0.25904681840E+02 -0.16652599878E+03  0.17166133668E+03  0.41800000000E+01 0. -1.
        -11    1    1    2    0    0 -0.29903827606E+02  0.39553366579E+01  0.10990779372E+02  0.32104218178E+02  0.00000000000E+00 0.  1.
         11    1    1    2    0    0  0.39286002571E+02  0.11329113170E+02 -0.60227919333E+02  0.72795199501E+02  0.00000000000E+00 0. -1.
</event>
<event>
 7    1  0.2530765E-009  0.1219267E+03  0.7561462E-02  0.1239952E+00
         -2   -1    0    0    0  501 -0.00000000000E+00  0.00000000000E+00  0.29076646525E+02  0.29076646525E+02  0.00000000000E+00 0.  1.
          2   -1    0    0  501    0  0.00000000000E+00 -0.00000000000E+00 -0.10093675410E+04  0.10093675410E+04  0.00000000000E+00 0. -1.
         25    2    1    2    0    0  0.36486397157E+02 -0.64925513437E+02 -0.85525493238E+03  0.86755746360E+03  0.12509346034E+03 0.  0.
          5    1    3    3  502    0  0.23816570255E+02 -0.10192577204E+03 -0.67326296705E+03  0.68136377012E+03  0.41800000000E+01 0. -1.
         -5    1    3    3    0  502  0.12669826902E+02  0.37000258600E+02 -0.18199196532E+03  0.18619369348E+03  0.41800000000E+01 0. -1.
        -11    1    1    2    0    0 -0.18716965388E+02 -0.11053550380E+02 -0.75251909802E+02  0.78328511400E+02  0.00000000000E+00 0. -1.
         11    1    1    2    0    0 -0.17769431769E+02  0.75979063817E+02 -0.49784052310E+02  0.92558212539E+02  0.00000000000E+00 0.  1.
</event>
<event>
 7    1  0.2530765E-009  0.1119237E+03  0.7561462E-02  0.1257048E+00
          2   -1    0    0  501    0  0.00000000000E+00  0.00000000000E+00  0.10877253493E+02  0.10877253493E+02  0.00000000000E+00 0. -1.
         -2   -1    0    0    0  501 -0.00000000000E+00 -0.00000000000E+00 -0.14407510037E+04  0.14407510037E+04  0.00000000000E+00 0.  1.
         25    2    1    2    0    0  0.29154074929E+02 -0.20241036305E+02 -0.10938388197E+04  0.11015405359E+04  0.12509408105E+03 0.  0.
          5    1    3    3  502    0 -0.43276611441E+02 -0.34234441587E+02 -0.40882433111E+03  0.41255262476E+03  0.41800000000E+01 0.  1.
         -5    1    3    3    0  502  0.72430686370E+02  0.13993405282E+02 -0.68501448855E+03  0.68898791110E+03  0.41800000000E+01 0.  1.
        -11    1    1    2    0    0  0.15766675632E+02  0.41887321826E+02 -0.11287059614E+03  0.12142037417E+03  0.00000000000E+00 0. -1.
         11    1    1    2    0    0 -0.44920750561E+02 -0.21646285520E+02 -0.22316433438E+03  0.22866734714E+03  0.00000000000E+00 0.  1.
</event>
<event>
 7    1  0.2530765E-009  0.1050979E+03  0.7561462E-02  0.1269927E+00
         -1   -1    0    0    0  501 -0.00000000000E+00  0.00000000000E+00  0.52475098835E+02  0.52475098835E+02  0.00000000000E+00 0.  1.
          1   -1    0    0  501    0  0.00000000000E+00 -0.00000000000E+00 -0.51557900206E+03  0.51557900206E+03  0.00000000000E+00 0. -1.
         25    2    1    2    0    0 -0.56579659155E+02  0.79702690558E+02 -0.11685143044E+03  0.19711182729E+03  0.12508013011E+03 0.  0.
          5    1    3    3  502    0 -0.52571202850E+02  0.69188331767E+02 -0.14354166943E+03  0.16784647713E+03  0.41800000000E+01 0.  1.
         -5    1    3    3    0  502 -0.40084563049E+01  0.10514358791E+02  0.26690238988E+02  0.29265350159E+02  0.41800000000E+01 0.  1.
        -11    1    1    2    0    0  0.14412653096E+02  0.60548454026E+01 -0.47763495758E+01  0.16346230066E+02  0.00000000000E+00 0.  1.
         11    1    1    2    0    0  0.42167006059E+02 -0.85757535960E+02 -0.34147612320E+03  0.35459604354E+03  0.00000000000E+00 0. -1.
</event>
<event>
 7    1  0.2530765E-009  0.1088943E+03  0.7561462E-02  0.1262631E+00
          2   -1    0    0  501    0  0.00000000000E+00  0.00000000000E+00  0.23083756303E+03  0.23083756303E+03  0.00000000000E+00 0. -1.
         -2   -1    0    0    0  501 -0.00000000000E+00 -0.00000000000E+00 -0.75531461459E+02  0.75531461459E+02  0.00000000000E+00 0.  1.
         25    2    1    2    0    0 -0.19649414029E+02 -0.40376156512E+02  0.15361821536E+03  0.20313274873E+03  0.12509206223E+03 0.  0.
          5    1    3    3  502    0 -0.45958880884E+02 -0.72993528155E+02  0.76989489045E+02  0.11569411268E+03  0.41800000000E+01 0. -1.
         -5    1    3    3    0  502  0.26309466855E+02  0.32617371644E+02  0.76628726312E+02  0.87438636056E+02  0.41800000000E+01 0. -1.
        -11    1    1    2    0    0 -0.30243788551E+01  0.59547492858E+02 -0.23707863011E+02  0.64164737525E+02  0.00000000000E+00 0.  1.
         11    1    1    2    0    0  0.22673792884E+02 -0.19171336347E+02  0.25395749227E+02  0.39071538233E+02  0.00000000000E+00 0. -1.
</event>
<event>
 7    1  0.2813239E-009  0.1241823E+03  0.7561462E-02  0.1236353E+00
         -2   -1    0    0    0  501 -0.00000000000E+00  0.00000000000E+00  0.10186036664E+03  0.10186036664E+03  0.00000000000E+00 0. -1.
          2   -1    0    0  501    0  0.00000000000E+00 -0.00000000000E+00 -0.20277640180E+03  0.20277640180E+03  0.00000000000E+00 0.  1.
         25    2    1    2    0    0 -0.63509407866E+02 -0.54424389108E+02 -0.10185979921E+02  0.15081340114E+03  0.12508184824E+03 0.  0.
          5    1    3    3  502    0 -0.85990013934E+00  0.24318227475E+02 -0.38913015048E+02  0.46084821318E+02  0.41800000000E+01 0. -1.
         -5    1    3    3    0  502 -0.62649507726E+02 -0.78742616584E+02  0.28727035127E+02  0.10472857982E+03  0.41800000000E+01 0. -1.
        -11    1    1    2    0    0  0.58259177920E+02 -0.93224839615E+01 -0.32682004179E+02  0.67447415935E+02  0.00000000000E+00 0.  1.
         11    1    1    2    0    0  0.52502299456E+01  0.63746873070E+02 -0.58048051064E+02  0.86375951358E+02  0.00000000000E+00 0. -1.
</event>
<event>
 7    1  0.2530765E-009  0.1121100E+03  0.7561462E-02  0.1256712E+00
         -2   -1    0    0    0  501 -0.00000000000E+00  0.00000000000E+00  0.33829202587E+03  0.33829202587E+03  0.00000000000E+00 0.  1.
          2   -1    0    0  501    0  0.00000000000E+00 -0.00000000000E+00 -0.42875333433E+02  0.42875333433E+02  0.00000000000E+00 0. -1.
         25    2    1    2    0    0  0.16797114139E+02  0.43924017029E+02  0.11902027601E+03  0.17895518397E+03  0.12509064495E+03 0.  0.
          5    1    3    3  502    0 -0.70314867713E+01 -0.41800521789E+02  0.24759888181E+02  0.49267127893E+02  0.41800000000E+01 0.  1.
         -5    1    3    3    0  502  0.23828600910E+02  0.85724538818E+02  0.94260387827E+02  0.12968805608E+03  0.41800000000E+01 0.  1.
        -11    1    1    2    0    0 -0.39432995475E+02  0.39178149029E+01  0.41871173791E+02  0.57649853429E+02  0.00000000000E+00 0. -1.
         11    1    1    2    0    0  0.22635881337E+02 -0.47841831932E+02  0.13452524264E+03  0.14456232190E+03  0.00000000000E+00 0.  1.
</event>
<event>
 7    1  0.4367826E-009  0.1002876E+03  0.7561462E-02  0.1279692E+00
         -2   -1    0    0    0  501 -0.00000000000E+00  0.00000000000E+00  0.41325572491E+02  0.41325572491E+02  0.00000000000E+00 0.  1.
          2   -1    0    0  501    0  0.00000000000E+00 -0.00000000000E+00 -0.45385914223E+03  0.45385914223E+03  0.00000000000E+00 0. -1.
         25    2    1    2    0    0 -0.65436398430E+02  0.47949665413E+02 -0.19512827986E+03  0.24556951335E+03  0.12509295597E+03 0.  0.
          5    1    3    3  502    0 -0.86662696373E+02  0.44456613294E+02 -0.73787110048E+02  0.12226538111E+03  0.41800000000E+01 0.  1.
         -5    1    3    3    0  502  0.21226297942E+02  0.34930521188E+01 -0.12134116981E+03  0.12330413225E+03  0.41800000000E+01 0.  1.
        -11    1    1    2    0    0  0.25938369450E+02 -0.20692948046E+02 -0.71371500397E+01  0.33940182958E+02  0.00000000000E+00 0.  1.
         11    1    1    2    0    0  0.39498028981E+02 -0.27256717367E+02 -0.21026813984E+03  0.21567501841E+03  0.00000000000E+00 0. -1.
</event>
<event>
 7    1  0.2530765E-009  0.3264845E+03  0.7561462E-02  0.1072703E+00
          1   -1    0    0  501    0  0.00000000000E+00  0.00000000000E+00  0.17991853100E+04  0.17991853100E+04  0.00000000000E+00 0. -1.
         -1   -1    0    0    0  501 -0.00000000000E+00 -0.00000000000E+00 -0.65641003505E+02  0.65641003505E+02  0.00000000000E+00 0.  1.
         25    2    1    2    0    0 -0.30474406004E+03  0.11378568207E+03  0.83146806907E+03  0.90155648360E+03  0.12509524237E+03 0.  0.
          5    1    3    3  502    0 -0.22143889774E+03  0.68562554685E+02  0.71316777750E+03  0.74990783474E+03  0.41800000000E+01 0. -1.
         -5    1    3    3    0  502 -0.83305162299E+02  0.45223127389E+02  0.11830029158E+03  0.15164864887E+03  0.41800000000E+01 0. -1.
        -11    1    1    2    0    0  0.17047056163E+03 -0.50451267645E+02  0.61357025535E+03  0.63880670084E+03  0.00000000000E+00 0.  1.
         11    1    1    2    0    0  0.13427349841E+03 -0.63334414428E+02  0.28850598204E+03  0.32446312903E+03  0.00000000000E+00 0. -1.
</event>
<event>
 7    1  0.2530765E-009  0.1793388E+03  0.7561462E-02  0.1168444E+00
          2   -1    0    0  501    0  0.00000000000E+00  0.00000000000E+00  0.20209235627E+04  0.20209235627E+04  0.00000000000E+00 0. -1.
         -2   -1    0    0    0  501 -0.00000000000E+00 -0.00000000000E+00 -0.20809740433E+02  0.20809740433E+02  0.00000000000E+00 0.  1.
         25    2    1    2    0    0 -0.15791232844E+03  0.13410984625E+02  0.13043147463E+04  0.13198484425E+04  0.12508715327E+03 0.  0.
          5    1    3    3  502    0 -0.91563128790E+02 -0.43407616333E+02  0.92701045411E+03  0.93254162488E+03  0.41800000000E+01 0. -1.
         -5    1    3    3    0  502 -0.66349199646E+02  0.56818600958E+02  0.37730429217E+03  0.38730681765E+03  0.41800000000E+01 0. -1.
        -11    1    1    2    0    0  0.14047148243E+03  0.97549429700E+01  0.66434671082E+03  0.67910525581E+03  0.00000000000E+00 0. -1.
         11    1    1    2    0    0  0.17440846003E+02 -0.23165927595E+02  0.31452365129E+02  0.42779604754E+02  0.00000000000E+00 0.  1.
</event>
<event>
 7    1  0.2530765E-009  0.1107200E+03  0.7561462E-02  0.1259242E+00
         -1   -1    0    0    0  501 -0.00000000000E+00  0.00000000000E+00  0.50052481004E+02  0.50052481004E+02  0.00000000000E+00 0. -1.
          1   -1    0    0  501    0  0.00000000000E+00 -0.00000000000E+00 -0.42885950209E+03  0.42885950209E+03  0.00000000000E+00 0.  1.
         25    2    1    2    0    0  0.97938719194E+02  0.95858244808E+01 -0.20908651218E+03  0.26277312146E+03  0.12509461634E+03 0.  0.
          5    1    3    3  502    0  0.46863094643E+02  0.21897958130E+02 -0.20322167922E+03  0.20974316083E+03  0.41800000000E+01 0.  1.
         -5    1    3    3    0  502  0.51075624551E+02 -0.12312133650E+02 -0.58648329565E+01  0.53029960625E+02  0.41800000000E+01 0.  1.
        -11    1    1    2    0    0 -0.60569441449E+02  0.25371556283E+02 -0.14527663408E+03  0.15942921162E+03  0.00000000000E+00 0.  1.
         11    1    1    2    0    0 -0.37369277745E+02 -0.34957380764E+02 -0.24443874822E+02  0.56709650020E+02  0.00000000000E+00 0. -1.
</event>
<event>
 7    1  0.2530765E-009  0.2314287E+03  0.7561462E-02  0.1125638E+00
         -1   -1    0    0    0  501 -0.00000000000E+00  0.00000000000E+00  0.47575933007E+03  0.47575933007E+03  0.00000000000E+00 0.  1.
          1   -1    0    0  501    0  0.00000000000E+00 -0.00000000000E+00 -0.13994382208E+03  0.13994382208E+03  0.00000000000E+00 0. -1.
         25    2    1    2    0    0 -0.12856362196E+03 -0.17170745062E+03  0.28333802910E+03  0.37674953893E+03  0.12509085841E+03 0.  0.
          5    1    3    3  502    0 -0.87634042914E+02 -0.21522487849E+02  0.12917047409E+03  0.15762432153E+03  0.41800000000E+01 0.  1.
         -5    1    3    3    0  502 -0.40929579049E+02 -0.15018496277E+03  0.15416755501E+03  0.21912521740E+03  0.41800000000E+01 0.  1.
        -11    1    1    2    0    0  0.72201356908E+02  0.70224366366E+02 -0.19185802401E+02  0.10253093477E+03  0.00000000000E+00 0. -1.
         11    1    1    2    0    0  0.56362265055E+02  0.10148308425E+03  0.71663281281E+02  0.13642267845E+03  0.00000000000E+00 0.  1.
</event>
<event>
 7    1  0.2530765E-009  0.2187826E+03  0.7561462E-02  0.1134794E+00
          1   -1    0    0  501    0  0.00000000000E+00  0.00000000000E+00  0.13559492485E+04  0.13559492485E+04  0.00000000000E+00 0. -1.
         -1   -1    0    0    0  501 -0.00000000000E+00 -0.00000000000E+00 -0.54775717911E+02  0.54775717911E+02  0.00000000000E+00 0.  1.
         25    2    1    2    0    0 -0.80627331427E+02  0.17829857438E+03  0.26363588122E+03  0.35134063199E+03  0.12508082834E+03 0.  0.
          5    1    3    3  502    0 -0.11112612168E+03  0.12702645977E+03  0.21998673100E+03  0.27730194846E+03  0.41800000000E+01 0. -1.
         -5    1    3    3    0  502  0.30498790253E+02  0.51272114615E+02  0.43649150220E+02  0.74038683530E+02  0.41800000000E+01 0. -1.
        -11    1    1    2    0    0  0.24036844675E+02 -0.13645389370E+03  0.78901410418E+03  0.80108719351E+03  0.00000000000E+00 0. -1.
         11    1    1    2    0    0  0.56590486752E+02 -0.41844680680E+02  0.24852354514E+03  0.25829714087E+03  0.00000000000E+00 0.  1.
</event>
<event>
 7    1  0.2530765E-009  0.1487491E+03  0.7561462E-02  0.1202019E+00
          1   -1    0    0  501    0  0.00000000000E+00  0.00000000000E+00  0.13805892885E+04  0.13805892885E+04  0.00000000000E+00 0. -1.
         -1   -1    0    0    0  501 -0.00000000000E+00 -0.00000000000E+00 -0.19028549806E+02  0.19028549806E+02  0.00000000000E+00 0.  1.
         25    2    1    2    0    0 -0.45059396369E+02 -0.11111520128E+03  0.67529947438E+03  0.69717608800E+03  0.12509268731E+03 0.  0.
          5    1    3    3  502    0 -0.85910029411E+02 -0.93794331876E+02  0.53697285784E+03  0.55184710953E+03  0.41800000000E+01 0. -1.
         -5    1    3    3    0  502  0.40850633042E+02 -0.17320869405E+02  0.13832661654E+03  0.14532897846E+03  0.41800000000E+01 0. -1.
        -11    1    1    2    0    0 -0.67950327235E+01  0.11204221559E+02  0.90171431065E+01  0.15906474162E+02  0.00000000000E+00 0.  1.
         11    1    1    2    0    0  0.51854429093E+02  0.99910979722E+02  0.67724412120E+03  0.68653527614E+03  0.00000000000E+00 0. -1.
</event>
<event>
 7    1  0.2530765E-009  0.1288901E+03  0.7561462E-02  0.1229112E+00
          2   -1    0    0  501    0  0.00000000000E+00  0.00000000000E+00  0.36325353423E+03  0.36325353423E+03  0.00000000000E+00 0.  1.
         -2   -1    0    0    0  501 -0.00000000000E+00 -0.00000000000E+00 -0.49389257643E+02  0.49389257643E+02  0.00000000000E+00 0. -1.
         25    2    1    2    0    0  0.70457928599E+02 -0.33201339196E+02  0.14652934669E+03  0.20781047543E+03  0.12509074958E+03 0.  0.
          5    1    3    3  502    0  0.63061340051E+02  0.34800197649E+02  0.44060832153E+02  0.84537658445E+02  0.41800000000E+01 0.  1.
         -5    1    3    3    0  502  0.73965885481E+01 -0.68001536845E+02  0.10246851454E+03  0.12327281699E+03  0.41800000000E+01 0.  1.
        -11    1    1    2    0    0 -0.26270724726E+02 -0.30069618932E+02  0.70326591659E+02  0.80871270885E+02  0.00000000000E+00 0.  1.
         11    1    1    2    0    0 -0.44187203873E+02  0.63270958128E+02  0.97008338237E+02  0.12396104556E+03  0.00000000000E+00 0. -1.
</event>
<event>
 7    1  0.2530765E-009  0.1630224E+03  0.7561462E-02  0.1185326E+00
          1   -1    0    0  501    0  0.00000000000E+00  0.00000000000E+00  0.54565761691E+03  0.54565761691E+03  0.00000000000E+00 0. -1.
         -1   -1    0    0    0  501 -0.00000000000E+00 -0.00000000000E+00 -0.57024000519E+02  0.57024000519E+02  0.00000000000E+00 0.  1.
         25    2    1    2    0    0 -0.12952353200E+03  0.15673470236E+02  0.17416246420E+03  0.25100247901E+03  0.12509067721E+03 0.  0.
          5    1    3    3  502    0 -0.14533808618E+03 -0.14428050120E+02  0.13449969991E+03  0.19859247116E+03  0.41800000000E+01 0. -1.
         -5    1    3    3    0  502  0.15814554188E+02  0.30101520356E+02  0.39662764284E+02  0.52410007847E+02  0.41800000000E+01 0. -1.
        -11    1    1    2    0    0  0.52432200446E+02 -0.38755820921E+02  0.76747111077E+02  0.10070386466E+03  0.00000000000E+00 0.  1.
         11    1    1    2    0    0  0.77091331550E+02  0.23082350685E+02  0.23772404112E+03  0.25097527376E+03  0.00000000000E+00 0. -1.
</event>
<event>
 7    1  0.2530765E-009  0.9084835E+02  0.7561462E-02  0.1300810E+00
         -2   -1    0    0    0  501 -0.00000000000E+00  0.00000000000E+00  0.54318946044E+02  0.54318946044E+02  0.00000000000E+00 0.  1.
          2   -1    0    0  501    0  0.00000000000E+00 -0.00000000000E+00 -0.18118341393E+03  0.18118341393E+03  0.00000000000E+00 0. -1.
         25    2    1    2    0    0  0.11551348238E+02  0.85260408498E+01 -0.73510054741E+02  0.14579860095E+03  0.12508947546E+03 0.  0.
          5    1    3    3  502    0 -0.42650122218E+02  0.31479129293E+02 -0.68301905153E+02  0.86559754816E+02  0.41800000000E+01 0. -1.
         -5    1    3    3    0  502  0.54201470456E+02 -0.22953088443E+02 -0.52081495878E+01  0.59238846130E+02  0.41800000000E+01 0. -1.
        -11    1    1    2    0    0 -0.50464029401E+01  0.30010510160E+02 -0.11748051208E+02  0.32620754281E+02  0.00000000000E+00 0.  1.
         11    1    1    2    0    0 -0.65049452976E+01 -0.38536551010E+02 -0.41606361934E+02  0.57083004743E+02  0.00000000000E+00 0. -1.
</event>
<event>
 7    1  0.2530765E-009  0.1427769E+03  0.7561462E-02  0.1209641E+00
         -1   -1    0    0    0  501 -0.00000000000E+00  0.00000000000E+00  0.41280031984E+02  0.41280031984E+02  0.00000000000E+00 0.  1.
          1   -1    0    0  501    0  0.00000000000E+00 -0.00000000000E+00 -0.49703685359E+03  0.49703685359E+03  0.00000000000E+00 0. -1.
         25    2    1    2    0    0  0.88446156742E+01  0.91604793057E+02 -0.26796086096E+03  0.30971119517E+03  0.12509330945E+03 0.  0.
          5    1    3    3  502    0 -0.57866430973E+02  0.49631038815E+02 -0.12913465199E+03  0.15001664772E+03  0.41800000000E+01 0. -1.
         -5    1    3    3    0  502  0.66711046647E+02  0.41973754243E+02 -0.13882620897E+03  0.15969454745E+03  0.41800000000E+01 0. -1.
        -11    1    1    2    0    0  0.37046042882E+02 -0.70765043173E+02 -0.11117372965E+03  0.13689301952E+03  0.00000000000E+00 0. -1.
         11    1    1    2    0    0 -0.45890658556E+02 -0.20839749884E+02 -0.76622231000E+02  0.91712670888E+02  0.00000000000E+00 0.  1.
</event>
<event>
 7    1  0.2530765E-009  0.1320462E+03  0.7561462E-02  0.1224451E+00
          1   -1    0    0  501    0  0.00000000000E+00  0.00000000000E+00  0.10626960350E+04  0.10626960350E+04  0.00000000000E+00 0. -1.
         -1   -1    0    0    0  501 -0.00000000000E+00 -0.00000000000E+00 -0.18948643605E+02  0.18948643605E+02  0.00000000000E+00 0.  1.
         25    2    1    2    0    0  0.70755450330E+01  0.88438477651E+02  0.49964439929E+03  0.52264947302E+03  0.12508604334E+03 0.  0.
          5    1    3    3  502    0  0.25418271141E+02  0.10930425125E+03  0.28751754318E+03  0.30867024133E+03  0.41800000000E+01 0. -1.
         -5    1    3    3    0  502 -0.18342726108E+02 -0.20865773602E+02  0.21212685611E+03  0.21397923169E+03  0.41800000000E+01 0. -1.
        -11    1    1    2    0    0 -0.14442086423E+02 -0.10478175580E+03  0.50529360979E+03  0.51624550585E+03  0.00000000000E+00 0. -1.
         11    1    1    2    0    0  0.73665413904E+01  0.16343278148E+02  0.38809382342E+02  0.42749699770E+02  0.00000000000E+00 0.  1.
</event>
<event>
 7    1  0.2530765E-009  0.8834325E+02  0.7561462E-02  0.1306914E+00
         -2   -1    0    0    0  501 -0.00000000000E+00  0.00000000000E+00  0.33983899922E+02  0.33983899922E+02  0.00000000000E+00 0.  1.
          2   -1    0    0  501    0  0.00000000000E+00 -0.00000000000E+00 -0.39136036482E+03  0.39136036482E+03  0.00000000000E+00 0. -1.
         25    2    1    2    0    0  0.11289002312E+01 -0.33915173073E+02 -0.23631808736E+03  0.26953081422E+03  0.12509639493E+03 0.  0.
          5    1    3    3  502    0 -0.42981421315E+02  0.14778229575E+02 -0.17024620234E+03  0.17625844791E+03  0.41800000000E+01 0. -1.
         -5    1    3    3    0  502  0.44110321546E+02 -0.48693402648E+02 -0.66071885016E+02  0.93272366314E+02  0.41800000000E+01 0. -1.
        -11    1    1    2    0    0 -0.28311842654E+02  0.20061735644E+02 -0.12039619464E+03  0.12529675717E+03  0.00000000000E+00 0. -1.
         11    1    1    2    0    0  0.27182942423E+02  0.13853437428E+02 -0.66218290212E+00  0.30516693359E+02  0.00000000000E+00 0.  1.
</event>
<event>
 7    1  0.2530765E-009  0.1035285E+03  0.7561462E-02  0.1273046E+00
          2   -1    0    0  501    0  0.00000000000E+00  0.00000000000E+00  0.50432550427E+03  0.50432550427E+03  0.00000000000E+00 0. -1.
         -2   -1    0    0    0  501 -0.00000000000E+00 -0.00000000000E+00 -0.25305194735E+02  0.25305194735E+02  0.00000000000E+00 0.  1.
         25    2    1    2    0    0  0.34570312986E+02 -0.95879552891E+00  0.27810519419E+03  0.30689829838E+03  0.12509212879E+03 0.  0.
          5    1    3    3  502    0 -0.26371097863E+02 -0.32916649138E+02  0.19186121091E+03  0.19648699001E+03  0.41800000000E+01 0.  1.
         -5    1    3    3    0  502  0.60941410849E+02  0.31957853609E+02  0.86243983279E+02  0.11041130837E+03  0.41800000000E+01 0.  1.
        -11    1    1    2    0    0 -0.17893260385E+02 -0.44151360925E+02  0.11020964840E+03  0.12006530740E+03  0.00000000000E+00 0.  1.
         11    1    1    2    0    0 -0.16677052601E+02  0.45110156454E+02  0.90705466943E+02  0.10266709323E+03  0.00000000000E+00 0. -1.
</event>
<event>
 7    1  0.2530765E-009  0.2616126E+03  0.7561462E-02  0.1106178E+00
          2   -1    0    0  501    0  0.00000000000E+00  0.00000000000E+00  0.22428050172E+04  0.22428050172E+04  0.00000000000E+00 0. -1.
         -2   -1    0    0    0  501 -0.00000000000E+00 -0.00000000000E+00 -0.33753945942E+02  0.33753945942E+02  0.00000000000E+00 0.  1.
         25    2    1    2    0    0  0.22903241088E+03  0.10388451820E+03  0.10580901979E+04  0.10947374807E+04  0.12508975379E+03 0.  0.
          5    1    3    3  502    0  0.18632287111E+03  0.10198559138E+03  0.63768637748E+03  0.67214482187E+03  0.41800000000E+01 0.  1.
         -5    1    3    3    0  502  0.42709539775E+02  0.18989268227E+01  0.42040382040E+03  0.42259265885E+03  0.41800000000E+01 0.  1.
        -11    1    1    2    0    0 -0.10698760119E+03 -0.98863865162E+02  0.59024023533E+03  0.60795061152E+03  0.00000000000E+00 0. -1.
         11    1    1    2    0    0 -0.12204480969E+03 -0.50206530407E+01  0.56072063805E+03  0.57387087089E+03  0.00000000000E+00 0.  1.
</event>
<event>
 7    1  0.2530765E-009  0.1653216E+03  0.7561462E-02  0.1182816E+00
         -1   -1    0    0    0  501 -0.00000000000E+00  0.00000000000E+00  0.32549754524E+03  0.32549754524E+03  0.00000000000E+00 0.  1.
          1   -1    0    0  501    0  0.00000000000E+00 -0.00000000000E+00 -0.97522799076E+02  0.97522799076E+02  0.00000000000E+00 0. -1.
         25    2    1    2    0    0  0.12678830494E+03  0.48584186781E+02  0.16602423546E+03  0.24828840037E+03  0.12508951005E+03 0.  0.
          5    1    3    3  502    0  0.79970912907E+02 -0.29201229900E+02  0.43385038386E+02  0.95644093883E+02  0.41800000000E+01 0. -1.
         -5    1    3    3    0  502  0.46817392029E+02  0.77785416681E+02  0.12263919707E+03  0.15264430649E+03  0.41800000000E+01 0. -1.
        -11    1    1    2    0    0 -0.12442674042E+03 -0.20220186982E+02  0.25715532558E+02  0.12865519153E+03  0.00000000000E+00 0.  1.
         11    1    1    2    0    0 -0.23615645152E+01 -0.28363999799E+02  0.36234978151E+02  0.46076752415E+02  0.00000000000E+00 0. -1.
</event>
<event>
 7    1  0.2530765E-009  0.1552317E+03  0.7561462E-02  0.1194188E+00
          1   -1    0    0  501    0  0.00000000000E+00  0.00000000000E+00  0.98478927646E+03  0.98478927646E+03  0.00000000000E+00 0. -1.
         -1   -1    0    0    0  501 -0.00000000000E+00 -0.00000000000E+00 -0.29635659028E+02  0.29635659028E+02  0.00000000000E+00 0.  1.
         25    2    1    2    0    0 -0.81975426429E+02 -0.98142799855E+02  0.44503883147E+03  0.47964358589E+03  0.12508568368E+03 0.  0.
          5    1    3    3  502    0  0.21650287989E+02 -0.53069021019E+02  0.87805896187E+02  0.10494000080E+03  0.41800000000E+01 0. -1.
         -5    1    3    3    0  502 -0.10362571442E+03 -0.45073778837E+02  0.35723293529E+03  0.37470358509E+03  0.41800000000E+01 0. -1.
        -11    1    1    2    0    0  0.87335754423E+02  0.71884842179E+02  0.48512732014E+03  0.49814002177E+03  0.00000000000E+00 0. -1.
         11    1    1    2    0    0 -0.53603279940E+01  0.26257957676E+02  0.24987465813E+02  0.36641327832E+02  0.00000000000E+00 0.  1.
</event>
<event>
 7    1  0.2530765E-009  0.1073006E+03  0.7561462E-02  0.1265652E+00
         -2   -1    0    0    0  501 -0.00000000000E+00  0.00000000000E+00  0.91981776663E+02  0.91981776663E+02  0.00000000000E+00 0.  1.
          2   -1    0    0  501    0  0.00000000000E+00 -0.00000000000E+00 -0.21342435862E+03  0.21342435862E+03  0.00000000000E+00 0. -1.
         25    2    1    2    0    0  0.36180690972E+02 -0.13296050184E+02 -0.15276885319E+03  0.20117532404E+03  0.12508941262E+03 0.  0.
          5    1    3    3  502    0  0.71947627331E+02  0.26268281556E+02 -0.79717193035E+02  0.11062905116E+03  0.41800000000E+01 0.  1.
         -5    1    3    3    0  502 -0.35766936359E+02 -0.39564331740E+02 -0.73051660155E+02  0.90546272888E+02  0.41800000000E+01 0.  1.
        -11    1    1    2    0    0 -0.26019657206E+02  0.44516770353E+02  0.45216765667E+02  0.68580764805E+02  0.00000000000E+00 0.  1.
         11    1    1    2    0    0 -0.10161033766E+02 -0.31220720169E+02 -0.13890494434E+02  0.35650046433E+02  0.00000000000E+00 0. -1.
</event>
<event>
 7    1  0.2530765E-009  0.7636984E+02  0.7561462E-02  0.1339681E+00
         -1   -1    0    0    0  501 -0.00000000000E+00  0.00000000000E+00  0.52818742019E+02  0.52818742019E+02  0.00000000000E+00 0.  1.
          1   -1    0    0  501    0  0.00000000000E+00 -0.00000000000E+00 -0.39773292940E+03  0.39773292940E+03  0.00000000000E+00 0. -1.
         25    2    1    2    0    0 -0.14040169255E+02 -0.31341449763E+02 -0.32723614466E+03  0.35200906536E+03  0.12508986729E+03 0.  0.
          5    1    3    3  502    0 -0.18581622978E+02  0.44716972109E+01 -0.31198441076E+03  0.31259721327E+03  0.41800000000E+01 0.  1.
         -5    1    3    3    0  502  0.45414537228E+01 -0.35813146974E+02 -0.15251733898E+02  0.39411852088E+02  0.41800000000E+01 0.  1.
        -11    1    1    2    0    0  0.24925173294E+01  0.63044630319E+02 -0.92830326354E+01  0.63773135015E+02  0.00000000000E+00 0.  1.
         11    1    1    2    0    0  0.11547651926E+02 -0.31703180556E+02 -0.83950100888E+01  0.34769471045E+02  0.00000000000E+00 0. -1.
</event>
<event>
 7    1  0.2530765E-009  0.9348442E+02  0.7561462E-02  0.1294626E+00
         -1   -1    0    0    0  501 -0.00000000000E+00  0.00000000000E+00  0.10003379072E+03  0.10003379072E+03  0.00000000000E+00 0.  1.
          1   -1    0    0  501    0  0.00000000000E+00 -0.00000000000E+00 -0.13243186473E+03  0.13243186473E+03  0.00000000000E+00 0. -1.
         25    2    1    2    0    0  0.27236578590E+02 -0.11664097472E+02 -0.44806604834E+02  0.13613601715E+03  0.12508997141E+03 0.  0.
          5    1    3    3  502    0  0.76380996411E+02 -0.12999592290E+02 -0.16758814376E+02  0.79381208556E+02  0.41800000000E+01 0.  1.
         -5    1    3    3    0  502 -0.49144417821E+02  0.13354948181E+01 -0.28047790459E+02  0.56754808598E+02  0.41800000000E+01 0.  1.
        -11    1    1    2    0    0  0.65227897594E+01  0.23402857306E+02 -0.31456856673E+02  0.39746375282E+02  0.00000000000E+00 0. -1.
         11    1    1    2    0    0 -0.33759368349E+02 -0.11738759834E+02  0.43865387492E+02  0.56583263017E+02  0.00000000000E+00 0.  1.
</event>
<event>
 7    1  0.2530765E-009  0.1277765E+03  0.7561462E-02  0.1230793E+00
         -1   -1    0    0    0  501 -0.00000000000E+00  0.00000000000E+00  0.41470847816E+02  0.41470847816E+02  0.00000000000E+00 0.  1.
          1   -1    0    0  501    0  0.00000000000E+00 -0.00000000000E+00 -0.48148225577E+03  0.48148225577E+03  0.00000000000E+00 0. -1.
         25    2    1    2    0    0  0.42097667211E+02 -0.68023704542E+02 -0.31447102464E+03  0.34776191512E+03  0.12508751457E+03 0.  0.
          5    1    3    3  502    0  0.30093765257E+02  0.30605135009E+02 -0.14491019166E+03  0.15119108784E+03  0.41800000000E+01 0.  1.
         -5    1    3    3    0  502  0.12003901954E+02 -0.98628839552E+02 -0.16956083298E+03  0.19657082727E+03  0.41800000000E+01 0.  1.
        -11    1    1    2    0    0 -0.60574236558E+02  0.71991790503E+02 -0.12478303229E+03  0.15627815324E+03  0.00000000000E+00 0. -1.
         11    1    1    2    0    0  0.18476569348E+02 -0.39680859608E+01 -0.75735102848E+00  0.18913035231E+02  0.00000000000E+00 0.  1.
</event>
<event>
 7    1  0.2530765E-009  0.9195450E+02  0.7561462E-02  0.1298186E+00
         -2   -1    0    0    0  501 -0.00000000000E+00  0.00000000000E+00  0.60768868669E+02  0.60768868669E+02  0.00000000000E+00 0.  1.
          2   -1    0    0  501    0  0.00000000000E+00 -0.00000000000E+00 -0.25634468795E+03  0.25634468795E+03  0.00000000000E+00 0. -1.
         25    2    1    2    0    0  0.19612723472E+02  0.17987942676E+02 -0.40976981652E+02  0.13429675215E+03  0.12509308378E+03 0.  0.
          5    1    3    3  502    0 -0.32612054328E+02 -0.58704972974E+00  0.29746909958E+02  0.44342324781E+02  0.41800000000E+01 0.  1.
         -5    1    3    3    0  502  0.52224777801E+02  0.18574992405E+02 -0.70723891610E+02  0.89954427371E+02  0.41800000000E+01 0.  1.
        -11    1    1    2    0    0 -0.42200178453E+02 -0.44014559048E+02 -0.79526941406E+02  0.10021312728E+03  0.00000000000E+00 0.  1.
         11    1    1    2    0    0  0.22587454981E+02  0.26026616373E+02 -0.75071896219E+02  0.82603677184E+02  0.00000000000E+00 0. -1.
</event>
<event>
 7    1  0.2530765E-009  0.2743960E+03  0.7561462E-02  0.1098790E+00
          1   -1    0    0  501    0  0.00000000000E+00  0.00000000000E+00  0.16504823546E+03  0.16504823546E+03  0.00000000000E+00 0. -1.
         -1   -1    0    0    0  501 -0.00000000000E+00 -0.00000000000E+00 -0.51255635146E+03  0.51255635146E+03  0.00000000000E+00 0.  1.
         25    2    1    2    0    0  0.25415337554E+03 -0.77718957109E+02 -0.13078712998E+03  0.32153402880E+03  0.12507871007E+03 0.  0.
          5    1    3    3  502    0  0.21093640689E+03 -0.58301393778E+02 -0.15495591596E+03  0.26818282674E+03  0.41800000000E+01 0. -1.
         -5    1    3    3    0  502  0.43216968654E+02 -0.19417563331E+02  0.24168785981E+02  0.53351202059E+02  0.41800000000E+01 0. -1.
        -11    1    1    2    0    0 -0.10382493923E+03 -0.16211261369E+02 -0.74599661404E+02  0.12887021565E+03  0.00000000000E+00 0.  1.
         11    1    1    2    0    0 -0.15032843631E+03  0.93930218478E+02 -0.14212132462E+03  0.22720034247E+03  0.00000000000E+00 0. -1.
</event>
<event>
 7    1  0.2530765E-009  0.1092559E+03  0.7561462E-02  0.1261954E+00
          1   -1    0    0  501    0  0.00000000000E+00  0.00000000000E+00  0.19750590944E+02  0.19750590944E+02  0.00000000000E+00 0. -1.
         -1   -1    0    0    0  501 -0.00000000000E+00 -0.00000000000E+00 -0.62293421704E+03  0.62293421704E+03  0.00000000000E+00 0.  1.
         25    2    1    2    0    0 -0.34303680913E+01  0.59298154236E+01 -0.29308541467E+03  0.31873870992E+03  0.12509346414E+03 0.  0.
          5    1    3    3  502    0 -0.41348363061E+02 -0.45255968025E+02 -0.14402993936E+03  0.15658826776E+03  0.41800000000E+01 0.  1.
         -5    1    3    3    0  502  0.37917994970E+02  0.51185783449E+02 -0.14905547531E+03  0.16215044215E+03  0.41800000000E+01 0.  1.
        -11    1    1    2    0    0 -0.21699906168E+02  0.37343229089E+02 -0.15995417331E+03  0.16568264920E+03  0.00000000000E+00 0.  1.
         11    1    1    2    0    0  0.25130274259E+02 -0.43273044513E+02 -0.15014403811E+03  0.15826344886E+03  0.00000000000E+00 0. -1.
</event>
<event>
 7    1  0.2530765E-009  0.1007380E+03  0.7561462E-02  0.1278752E+00
          1   -1    0    0  501    0  0.00000000000E+00  0.00000000000E+00  0.83132181647E+03  0.83132181647E+03  0.00000000000E+00 0. -1.
         -1   -1    0    0    0  501 -0.00000000000E+00 -0.00000000000E+00 -0.16582156433E+02  0.16582156433E+02  0.00000000000E+00 0.  1.
         25    2    1    2    0    0 -0.34740985613E+02 -0.20596852313E+02  0.56457604141E+03  0.57967566695E+03  0.12508639380E+03 0.  0.
          5    1    3    3  502    0 -0.49712126314E+02  0.37361629900E+02  0.39293936839E+03  0.39785173938E+03  0.41800000000E+01 0. -1.
         -5    1    3    3    0  502  0.14971140701E+02 -0.57958482213E+02  0.17163667301E+03  0.18182392757E+03  0.41800000000E+01 0. -1.
        -11    1    1    2    0    0  0.11109363219E+02  0.44299880971E+02  0.61418415540E+02  0.76538350992E+02  0.00000000000E+00 0.  1.
         11    1    1    2    0    0  0.23631622394E+02 -0.23703028658E+02  0.18874520309E+03  0.19168995496E+03  0.00000000000E+00 0. -1.
</event>
<event>
 7    1  0.2530765E-009  0.7022358E+02  0.7561462E-02  0.1359334E+00
          2   -1    0    0  501    0  0.00000000000E+00  0.00000000000E+00  0.27952261535E+03  0.27952261535E+03  0.00000000000E+00 0. -1.
         -2   -1    0    0    0  501 -0.00000000000E+00 -0.00000000000E+00 -0.53601281916E+02  0.53601281916E+02  0.00000000000E+00 0.  1.
         25    2    1    2    0    0  0.24917928773E+02 -0.16413476851E+02  0.18749494648E+03  0.22735700879E+03  0.12508616667E+03 0.  0.
          5    1    3    3  502    0  0.40400457944E+02  0.13098337727E+02  0.63754703214E+01  0.43149536209E+02  0.41800000000E+01 0. -1.
         -5    1    3    3    0  502 -0.15482529170E+02 -0.29511814578E+02  0.18111947616E+03  0.18420747258E+03  0.41800000000E+01 0. -1.
        -11    1    1    2    0    0  0.20470634681E+01  0.32645725576E+02 -0.20753503250E+02  0.38738117718E+02  0.00000000000E+00 0.  1.
         11    1    1    2    0    0 -0.26964992241E+02 -0.16232248725E+02  0.59179890201E+02  0.67028770759E+02  0.00000000000E+00 0. -1.
</event>
<event>
 7    1  0.2530765E-009  0.9594439E+02  0.7561462E-02  0.1289063E+00
         -1   -1    0    0    0  501 -0.00000000000E+00  0.00000000000E+00  0.57303020493E+02  0.57303020493E+02  0.00000000000E+00 0.  1.
          1   -1    0    0  501    0  0.00000000000E+00 -0.00000000000E+00 -0.24484386455E+03  0.24484386455E+03  0.00000000000E+00 0. -1.
         25    2    1    2    0    0  0.63815829394E+01  0.14876372210E+01 -0.16816849450E+03  0.20969034973E+03  0.12508582079E+03 0.  0.
          5    1    3    3  502    0  0.48289693322E+02  0.39220589043E+02 -0.54834401048E+02  0.83032722612E+02  0.41800000000E+01 0.  1.
         -5    1    3    3    0  502 -0.41908110383E+02 -0.37732951822E+02 -0.11333409345E+03  0.12665762712E+03  0.41800000000E+01 0.  1.
        -11    1    1    2    0    0 -0.58811535960E+01 -0.37005451106E+02 -0.37124089581E+02  0.52746463449E+02  0.00000000000E+00 0. -1.
         11    1    1    2    0    0 -0.50042934347E+00  0.35517813885E+02  0.17751740031E+02  0.39710071856E+02  0.00000000000E+00 0.  1.
</event>
<event>
 7    1  0.2530765E-009  0.2650606E+03  0.7561462E-02  0.1104140E+00
          1   -1    0    0  501    0  0.00000000000E+00  0.00000000000E+00  0.33408825232E+03  0.33408825232E+03  0.00000000000E+00 0. -1.
         -1   -1    0    0    0  501 -0.00000000000E+00 -0.00000000000E+00 -0.24216053254E+03  0.24216053254E+03  0.00000000000E+00 0.  1.
         25    2    1    2    0    0 -0.13600235980E+03 -0.21730762183E+03 -0.10824050635E+02  0.28545385238E+03  0.12508995720E+03 0.  0.
          5    1    3    3  502    0  0.89503336759E+01 -0.48732112098E+02  0.31824141456E+02  0.59035375851E+02  0.41800000000E+01 0. -1.
         -5    1    3    3    0  502 -0.14495269347E+03 -0.16857550973E+03 -0.42648192091E+02  0.22641847653E+03  0.41800000000E+01 0. -1.
        -11    1    1    2    0    0  0.72027960447E+02  0.87630998551E+02  0.47194452422E-01  0.11343377460E+03  0.00000000000E+00 0.  1.
         11    1    1    2    0    0  0.63974399350E+02  0.12967662328E+03  0.10270457597E+03  0.17736115787E+03  0.00000000000E+00 0. -1.
</event>
<event>
 7    1  0.2530765E-009  0.1193505E+03  0.7561462E-02  0.1244172E+00
         -1   -1    0    0    0  501 -0.00000000000E+00  0.00000000000E+00  0.84863894516E+03  0.84863894516E+03  0.00000000000E+00 0.  1.
          1   -1    0    0  501    0  0.00000000000E+00 -0.00000000000E+00 -0.22674795005E+02  0.22674795005E+02  0.00000000000E+00 0. -1.
         25    2    1    2    0    0  0.24515363295E+02 -0.65539189341E+02  0.61829003037E+03  0.63468658109E+03  0.12509239057E+03 0.  0.
          5    1    3    3  502    0  0.44339164916E+02  0.20305049326E+02  0.31681738723E+03  0.32057602191E+03  0.41800000000E+01 0. -1.
         -5    1    3    3    0  502 -0.19823801621E+02 -0.85844238667E+02  0.30147264314E+03  0.31411055918E+03  0.41800000000E+01 0. -1.
        -11    1    1    2    0    0  0.35903923879E+01 -0.15430865328E+02  0.50617170808E+01  0.16632002348E+02  0.00000000000E+00 0. -1.
         11    1    1    2    0    0 -0.28105755683E+02  0.80970054670E+02  0.20261240271E+03  0.21999515673E+03  0.00000000000E+00 0.  1.
</event>
<event>
 7    1  0.2530765E-009  0.1111724E+03  0.7561462E-02  0.1258414E+00
          2   -1    0    0  501    0  0.00000000000E+00  0.00000000000E+00  0.42507747020E+02  0.42507747020E+02  0.00000000000E+00 0. -1.
         -2   -1    0    0    0  501 -0.00000000000E+00 -0.00000000000E+00 -0.30660208957E+03  0.30660208957E+03  0.00000000000E+00 0.  1.
         25    2    1    2    0    0 -0.33793496621E+01 -0.12912798422E+02 -0.17107815812E+03  0.21235225116E+03  0.12509029547E+03 0.  0.
          5    1    3    3  502    0  0.13531169655E+02  0.53318743847E+02 -0.57207789537E+02  0.79474427216E+02  0.41800000000E+01 0. -1.
         -5    1    3    3    0  502 -0.16910519317E+02 -0.66231542269E+02 -0.11387036859E+03  0.13287782395E+03  0.41800000000E+01 0. -1.
        -11    1    1    2    0    0  0.22496192988E+02 -0.38083495816E+02 -0.53787524031E+02  0.69638560395E+02  0.00000000000E+00 0.  1.
         11    1    1    2    0    0 -0.19116843326E+02  0.50996294238E+02 -0.39228660395E+02  0.67119025031E+02  0.00000000000E+00 0. -1.
</event>
<event>
 7    1  0.2530765E-009  0.9698304E+02  0.7561462E-02  0.1286771E+00
          2   -1    0    0  501    0  0.00000000000E+00  0.00000000000E+00  0.10938762426E+04  0.10938762426E+04  0.00000000000E+00 0. -1.
         -2   -1    0    0    0  501 -0.00000000000E+00 -0.00000000000E+00 -0.31801652369E+02  0.31801652369E+02  0.00000000000E+00 0.  1.
         25    2    1    2    0    0 -0.22198533099E+02 -0.37516551622E+02  0.98364633909E+03  0.99252586711E+03  0.12508880834E+03 0.  0.
          5    1    3    3  502    0 -0.63874869688E+02 -0.28271964244E+02  0.83177739285E+03  0.83471576396E+03  0.41800000000E+01 0. -1.
         -5    1    3    3    0  502  0.41676336588E+02 -0.92445873776E+01  0.15186894624E+03  0.15781010316E+03  0.41800000000E+01 0. -1.
        -11    1    1    2    0    0  0.37128681454E+02  0.49551797839E+02  0.91111691925E+02  0.11016015641E+03  0.00000000000E+00 0. -1.
         11    1    1    2    0    0 -0.14930148354E+02 -0.12035246217E+02 -0.12683440796E+02  0.22991871429E+02  0.00000000000E+00 0.  1.
</event>
<event>
 7    1  0.2530765E-009  0.1375526E+03  0.7561462E-02  0.1216661E+00
         -1   -1    0    0    0  501 -0.00000000000E+00  0.00000000000E+00  0.12257436093E+03  0.12257436093E+03  0.00000000000E+00 0.  1.
          1   -1    0    0  501    0  0.00000000000E+00 -0.00000000000E+00 -0.18692905052E+03  0.18692905052E+03  0.00000000000E+00 0. -1.
         25    2    1    2    0    0  0.58045242885E+02 -0.88057588162E+02 -0.32478338727E+02  0.16681008030E+03  0.12508945339E+03 0.  0.
          5    1    3    3  502    0 -0.18015229796E+02  0.10490002165E+02  0.22236787076E+02  0.30765821125E+02  0.41800000000E+01 0.  1.
         -5    1    3    3    0  502  0.76060472682E+02 -0.98547590327E+02 -0.54715125803E+02  0.13604425918E+03  0.41800000000E+01 0.  1.
        -11    1    1    2    0    0  0.17905483230E+02  0.10609919371E+02  0.13823711782E+02  0.24985430278E+02  0.00000000000E+00 0.  1.
         11    1    1    2    0    0 -0.75950726115E+02  0.77447668791E+02 -0.45700062646E+02  0.11770790086E+03  0.00000000000E+00 0. -1.
</event>
<event>
 7    1  0.2530765E-009  0.8154063E+02  0.7561462E-02  0.1324735E+00
          2   -1    0    0  501    0  0.00000000000E+00  0.00000000000E+00  0.10544720815E+04  0.10544720815E+04  0.00000000000E+00 0. -1.
         -2   -1    0    0    0  501 -0.00000000000E+00 -0.00000000000E+00 -0.12600262077E+02  0.12600262077E+02  0.00000000000E+00 0.  1.
         25    2    1    2    0    0  0.25277435715E+01  0.37788713086E+02  0.65385732368E+03  0.66679185577E+03  0.12509037882E+03 0.  0.
          5    1    3    3  502    0 -0.30407502759E+01 -0.12767024656E+02  0.32055725102E+01  0.14141823642E+02  0.41800000000E+01 0. -1.
         -5    1    3    3    0  502  0.55684938475E+01  0.50555737742E+02  0.65065175116E+03  0.65265003213E+03  0.41800000000E+01 0. -1.
        -11    1    1    2    0    0  0.43846730964E+02 -0.13233173167E+02  0.18768132047E+03  0.19318884735E+03  0.00000000000E+00 0. -1.
         11    1    1    2    0    0 -0.46374474536E+02 -0.24555539919E+02  0.20033317530E+03  0.20709164047E+03  0.00000000000E+00 0.  1.
</event>
<event>
 7    1  0.2530765E-009  0.9788819E+02  0.7561462E-02  0.1284801E+00
          1   -1    0    0  501    0  0.00000000000E+00  0.00000000000E+00  0.14047517341E+03  0.14047517341E+03  0.00000000000E+00 0. -1.
         -1   -1    0    0    0  501 -0.00000000000E+00 -0.00000000000E+00 -0.14314168509E+03  0.14314168509E+03  0.00000000000E+00 0.  1.
         25    2    1    2    0    0  0.65141590846E+02 -0.65629158951E+02  0.12053030598E+01  0.15556379107E+03  0.12509207399E+03 0.  0.
          5    1    3    3  502    0  0.49159557626E+02 -0.60150313532E+02 -0.55944431796E+02  0.95822618274E+02  0.41800000000E+01 0.  1.
         -5    1    3    3    0  502  0.15982033220E+02 -0.54788454192E+01  0.57149734856E+02  0.59741172796E+02  0.41800000000E+01 0.  1.
        -11    1    1    2    0    0 -0.28055980654E+02  0.35726488748E+01  0.35772967061E+02  0.45602708722E+02  0.00000000000E+00 0. -1.
         11    1    1    2    0    0 -0.37085610192E+02  0.62056510076E+02 -0.39644781808E+02  0.82450358706E+02  0.00000000000E+00 0.  1.
</event>
<event>
 7    1  0.2530765E-009  0.1073248E+03  0.7561462E-02  0.1265606E+00
          1   -1    0    0  501    0  0.00000000000E+00  0.00000000000E+00  0.35266675912E+03  0.35266675912E+03  0.00000000000E+00 0. -1.
         -1   -1    0    0    0  501 -0.00000000000E+00 -0.00000000000E+00 -0.55177083455E+02  0.55177083455E+02  0.00000000000E+00 0.  1.
         25    2    1    2    0    0 -0.25428804813E+02 -0.47662363048E+02  0.68878131405E+02  0.15267484080E+03  0.12508830905E+03 0.  0.
          5    1    3    3  502    0  0.43042282557E+02  0.94492550865E+01  0.89450756465E+01  0.45159863682E+02  0.41800000000E+01 0. -1.
         -5    1    3    3    0  502 -0.68471087371E+02 -0.57111618135E+02  0.59933055759E+02  0.10751497712E+03  0.41800000000E+01 0. -1.
        -11    1    1    2    0    0  0.42732113762E+02  0.47399744006E+02  0.22913448578E+03  0.23785580054E+03  0.00000000000E+00 0. -1.
         11    1    1    2    0    0 -0.17303308949E+02  0.26261904240E+00 -0.52294151327E+00  0.17313201240E+02  0.00000000000E+00 0.  1.
</event>
<event>
 7    1  0.2530765E-009  0.1131733E+03  0.7561462E-02  0.1254804E+00
          1   -1    0    0  501    0  0.00000000000E+00  0.00000000000E+00  0.97265028822E+02  0.97265028822E+02  0.00000000000E+00 0.  1.
         -1   -1    0    0    0  501 -0.00000000000E+00 -0.00000000000E+00 -0.19455293941E+03  0.19455293941E+03  0.00000000000E+00 0. -1.
         25    2    1    2    0    0  0.43208681496E+02 -0.71068988222E+02 -0.41520046331E+02  0.15584087706E+03  0.12507866914E+03 0.  0.
          5    1    3    3  502    0  0.33433427416E+01 -0.74634962725E+02  0.24317248438E+02  0.78678819089E+02  0.41800000000E+01 0. -1.
         -5    1    3    3    0  502  0.39865338754E+02  0.35659745036E+01 -0.65837294769E+02  0.77162057973E+02  0.41800000000E+01 0. -1.
        -11    1    1    2    0    0  0.20131668871E+02  0.28762976184E+02 -0.47919465008E+02  0.59404276085E+02  0.00000000000E+00 0. -1.
         11    1    1    2    0    0 -0.63340350367E+02  0.42306012038E+02 -0.78483992486E+01  0.76572815084E+02  0.00000000000E+00 0.  1.
</event>
<event>
 7    1  0.2530765E-009  0.1291075E+03  0.7561462E-02  0.1228786E+00
          2   -1    0    0  501    0  0.00000000000E+00  0.00000000000E+00  0.15590547972E+03  0.15590547972E+03  0.00000000000E+00 0. -1.
         -2   -1    0    0    0  501 -0.00000000000E+00 -0.00000000000E+00 -0.11749438446E+03  0.11749438446E+03  0.00000000000E+00 0.  1.
         25    2    1    2    0    0 -0.70370303288E+02 -0.39001655187E+02  0.40469148599E+02  0.15413785446E+03  0.12509043728E+03 0.  0.
          5    1    3    3  502    0 -0.10262830360E+03 -0.15972967115E+02  0.46419431498E+02  0.11384173399E+03  0.41800000000E+01 0.  1.
         -5    1    3    3    0  502  0.32258000311E+02 -0.23028688072E+02 -0.59502828993E+01  0.40296120471E+02  0.41800000000E+01 0.  1.
        -11    1    1    2    0    0  0.58111131138E+02  0.64075839710E+02 -0.16148170925E+02  0.87996478457E+02  0.00000000000E+00 0. -1.
         11    1    1    2    0    0  0.12259172150E+02 -0.25074184523E+02  0.14090117589E+02  0.31265531260E+02  0.00000000000E+00 0.  1.
</event>
<event>
 7    1  0.2530765E-009  0.9940016E+02  0.7561462E-02  0.1281562E+00
         -1   -1    0    0    0  501 -0.00000000000E+00  0.00000000000E+00  0.26722266610E+02  0.26722266610E+02  0.00000000000E+00 0.  1.
          1   -1    0    0  501    0  0.00000000000E+00 -0.00000000000E+00 -0.78860723264E+03  0.78860723264E+03  0.00000000000E+00 0. -1.
         25    2    1    2    0    0  0.69538023577E+02  0.35361478261E+02 -0.25353682582E+03  0.29328159511E+03  0.12508877295E+03 0.  0.
          5    1    3    3  502    0  0.26289226679E+02  0.36872754444E+01 -0.23481190657E+03  0.23634471288E+03  0.41800000000E+01 0.  1.
         -5    1    3    3    0  502  0.43248796898E+02  0.31674202817E+02 -0.18724919247E+02  0.56936882229E+02  0.41800000000E+01 0.  1.
        -11    1    1    2    0    0 -0.24737081943E+02 -0.61499881671E+02 -0.31201295149E+03  0.31897686525E+03  0.00000000000E+00 0. -1.
         11    1    1    2    0    0 -0.44800941634E+02  0.26138403410E+02 -0.19633518872E+03  0.20307103889E+03  0.00000000000E+00 0.  1.
</event>
<event>
 7    1  0.2530765E-009  0.1094584E+03  0.7561462E-02  0.1261576E+00
          2   -1    0    0  501    0  0.00000000000E+00  0.00000000000E+00  0.24858303183E+03  0.24858303183E+03  0.00000000000E+00 0. -1.
         -2   -1    0    0    0  501 -0.00000000000E+00 -0.00000000000E+00 -0.58930404494E+02  0.58930404494E+02  0.00000000000E+00 0.  1.
         25    2    1    2    0    0  0.17577746722E+02  0.43422262464E+02  0.13348098242E+03  0.18883695268E+03  0.12509097479E+03 0.  0.
          5    1    3    3  502    0  0.88897265150E+01  0.86279777636E+02  0.69488252443E+02  0.11121743071E+03  0.41800000000E+01 0.  1.
         -5    1    3    3    0  502  0.86880202073E+01 -0.42857515172E+02  0.63992729972E+02  0.77619521972E+02  0.41800000000E+01 0.  1.
        -11    1    1    2    0    0 -0.46427478698E+02 -0.18326550071E+02 -0.96795501216E+00  0.49923042302E+02  0.00000000000E+00 0.  1.
         11    1    1    2    0    0  0.28849731976E+02 -0.25095712393E+02  0.57139599935E+02  0.68753441342E+02  0.00000000000E+00 0. -1.
</event>
<event>
 7    1  0.2530765E-009  0.1006812E+03  0.7561462E-02  0.1278870E+00
          1   -1    0    0  501    0  0.00000000000E+00  0.00000000000E+00  0.14247772769E+03  0.14247772769E+03  0.00000000000E+00 0. -1.
         -1   -1    0    0    0  501 -0.00000000000E+00 -0.00000000000E+00 -0.23720626978E+03  0.23720626978E+03  0.00000000000E+00 0.  1.
         25    2    1    2    0    0 -0.76027094403E+02  0.15969952399E+01  0.81603987911E+02  0.16759998324E+03  0.12509146279E+03 0.  0.
          5    1    3    3  502    0 -0.32510863937E+01 -0.11391351430E+02  0.91978785844E+02  0.92832655329E+02  0.41800000000E+01 0. -1.
         -5    1    3    3    0  502 -0.72776008009E+02  0.12988346669E+02 -0.10374797934E+02  0.74767327912E+02  0.41800000000E+01 0. -1.
        -11    1    1    2    0    0  0.43639035711E+02 -0.43619375854E+02 -0.70427050225E+02  0.93632178182E+02  0.00000000000E+00 0. -1.
         11    1    1    2    0    0  0.32388058692E+02  0.42022380614E+02 -0.10590547977E+03  0.11845183605E+03  0.00000000000E+00 0.  1.
</event>
<event>
 7    1  0.2530765E-009  0.8505643E+02  0.7561462E-02  0.1315285E+00
         -2   -1    0    0    0  501 -0.00000000000E+00  0.00000000000E+00  0.15965453556E+03  0.15965453556E+03  0.00000000000E+00 0.  1.
          2   -1    0    0  501    0  0.00000000000E+00 -0.00000000000E+00 -0.11044546102E+03  0.11044546102E+03  0.00000000000E+00 0. -1.
         25    2    1    2    0    0  0.31834156441E+02 -0.57512212057E+02 -0.13085195616E+02  0.14191348406E+03  0.12508855488E+03 0.  0.
          5    1    3    3  502    0  0.29717620971E+01 -0.31807217841E+02  0.54867078908E+02  0.63627032185E+02  0.41800000000E+01 0. -1.
         -5    1    3    3    0  502  0.28862394344E+02 -0.25704994215E+02 -0.67952274523E+02  0.78286451879E+02  0.41800000000E+01 0. -1.
        -11    1    1    2    0    0 -0.55362965325E+02  0.30541379346E+02  0.66956811669E+02  0.92092607797E+02  0.00000000000E+00 0.  1.
         11    1    1    2    0    0  0.23528808884E+02  0.26970832710E+02 -0.46625415170E+01  0.36093904720E+02  0.00000000000E+00 0. -1.
</event>
<event>
 7    1  0.2530765E-009  0.1328680E+03  0.7561462E-02  0.1223261E+00
          2   -1    0    0  501    0  0.00000000000E+00  0.00000000000E+00  0.99696883395E+02  0.99696883395E+02  0.00000000000E+00 0. -1.
         -2   -1    0    0    0  501 -0.00000000000E+00 -0.00000000000E+00 -0.21079356793E+03  0.21079356793E+03  0.00000000000E+00 0.  1.
         25    2    1    2    0    0  0.79729462212E+02 -0.21319100994E+02 -0.89735728951E+01  0.15013264635E+03  0.12509194730E+03 0.  0.
          5    1    3    3  502    0  0.98504391884E+02  0.22734371837E+02  0.27965422577E+00  0.10118061815E+03  0.41800000000E+01 0.  1.
         -5    1    3    3    0  502 -0.18774929672E+02 -0.44053472831E+02 -0.92532271209E+01  0.48952028199E+02  0.41800000000E+01 0.  1.
        -11    1    1    2    0    0 -0.14547599393E+01  0.36688197334E+02 -0.59495154541E+02  0.69912899839E+02  0.00000000000E+00 0.  1.
         11    1    1    2    0    0 -0.78274702273E+02 -0.15369096340E+02 -0.42627957096E+02  0.90444905132E+02  0.00000000000E+00 0. -1.
</event>
<event>
 7    1  0.2530765E-009  0.8639129E+02  0.7561462E-02  0.1311834E+00
         -1   -1    0    0    0  501 -0.00000000000E+00  0.00000000000E+00  0.21904015488E+02  0.21904015488E+02  0.00000000000E+00 0.  1.
          1   -1    0    0  501    0  0.00000000000E+00 -0.00000000000E+00 -0.10984946547E+04  0.10984946547E+04  0.00000000000E+00 0. -1.
         25    2    1    2    0    0 -0.23451388457E+02 -0.16629176477E+02 -0.96317870497E+03  0.97169252731E+03  0.12508658119E+03 0.  0.
          5    1    3    3  502    0 -0.48694070353E+02 -0.14573500211E+02 -0.92034098183E+03  0.92175294664E+03  0.41800000000E+01 0.  1.
         -5    1    3    3    0  502  0.25242681896E+02 -0.20556762661E+01 -0.42837723139E+02  0.49939580675E+02  0.41800000000E+01 0.  1.
        -11    1    1    2    0    0  0.36967267018E+02 -0.29972877750E+02 -0.53332998774E+02  0.71479794276E+02  0.00000000000E+00 0.  1.
         11    1    1    2    0    0 -0.13515878561E+02  0.46602054227E+02 -0.60078935470E+02  0.77226348604E+02  0.00000000000E+00 0. -1.
</event>
<event>
 7    1  0.3109578E-009  0.2241828E+03  0.7561462E-02  0.1130802E+00
         -2   -1    0    0    0  501 -0.00000000000E+00  0.00000000000E+00  0.26073044439E+02  0.26073044439E+02  0.00000000000E+00 0.  1.
          2   -1    0    0  501    0  0.00000000000E+00 -0.00000000000E+00 -0.22288717361E+04  0.22288717361E+04  0.00000000000E+00 0. -1.
         25    2    1    2    0    0 -0.69967493248E+01 -0.21430324377E+03 -0.12123801573E+04  0.12375332061E+04  0.12509178921E+03 0.  0.
          5    1    3    3  502    0 -0.12983510066E+01 -0.21234156579E+03 -0.88709434149E+03  0.91216471615E+03  0.41800000000E+01 0. -1.
         -5    1    3    3    0  502 -0.56983983183E+01 -0.19616779832E+01 -0.32528581577E+03  0.32536848997E+03  0.41800000000E+01 0. -1.
        -11    1    1    2    0    0 -0.34593543748E+02  0.64697439322E+02 -0.23447470489E+03  0.24568447073E+03  0.00000000000E+00 0.  1.
         11    1    1    2    0    0  0.41590293073E+02  0.14960580445E+03 -0.75594382950E+03  0.77172710369E+03  0.00000000000E+00 0. -1.
</event>
<event>
 7    1  0.2530765E-009  0.1253691E+03  0.7561462E-02  0.1234494E+00
         -1   -1    0    0    0  501 -0.00000000000E+00  0.00000000000E+00  0.18099400679E+02  0.18099400679E+02  0.00000000000E+00 0.  1.
          1   -1    0    0  501    0  0.00000000000E+00 -0.00000000000E+00 -0.10881039342E+04  0.10881039342E+04  0.00000000000E+00 0. -1.
         25    2    1    2    0    0  0.54922783377E+02 -0.34111322507E+02 -0.81677209653E+03  0.82882080395E+03  0.12508866033E+03 0.  0.
          5    1    3    3  502    0 -0.93995533633E+00 -0.72072428046E+02 -0.46922053773E+03  0.47474277649E+03  0.41800000000E+01 0.  1.
         -5    1    3    3    0  502  0.55862738714E+02  0.37961105539E+02 -0.34755155880E+03  0.35407802746E+03  0.41800000000E+01 0.  1.
        -11    1    1    2    0    0 -0.56453494760E+02  0.61474384986E+02 -0.16369561395E+03  0.18374534309E+03  0.00000000000E+00 0.  1.
         11    1    1    2    0    0  0.15307113827E+01 -0.27363062479E+02 -0.89536823026E+02  0.93637187822E+02  0.00000000000E+00 0. -1.
</event>
<event>
 7    1  0.2530765E-009  0.1304654E+03  0.7561462E-02  0.1226767E+00
          4   -1    0    0  501    0  0.00000000000E+00  0.00000000000E+00  0.26043284547E+03  0.26043284547E+03  0.00000000000E+00 0.  1.
         -4   -1    0    0    0  501 -0.00000000000E+00 -0.00000000000E+00 -0.67748673368E+02  0.67748673368E+02  0.00000000000E+00 0. -1.
         25    2    1    2    0    0 -0.75911646882E+02 -0.97988169873E+01  0.13114763163E+03  0.19673877586E+03  0.12509136541E+03 0.  0.
          5    1    3    3  502    0  0.16421987356E+02 -0.43550130439E+02  0.29481213752E+02  0.55253143750E+02  0.41800000000E+01 0.  1.
         -5    1    3    3    0  502 -0.92333634238E+02  0.33751313452E+02  0.10166641787E+03  0.14148563211E+03  0.41800000000E+01 0.  1.
        -11    1    1    2    0    0  0.67997264622E+02  0.43805943975E+02  0.38253303174E+02  0.89475716970E+02  0.00000000000E+00 0. -1.
         11    1    1    2    0    0  0.79143822601E+01 -0.34007126988E+02  0.23283237305E+02  0.41967026007E+02  0.00000000000E+00 0.  1.
</event>
<event>
 7    1  0.2530765E-009  0.1071501E+03  0.7561462E-02  0.1265940E+00
          1   -1    0    0  501    0  0.00000000000E+00  0.00000000000E+00  0.17961166294E+03  0.17961166294E+03  0.00000000000E+00 0. -1.
         -1   -1    0    0    0  501 -0.00000000000E+00 -0.00000000000E+00 -0.12049835968E+03  0.12049835968E+03  0.00000000000E+00 0.  1.
         25    2    1    2    0    0 -0.33788654919E+02  0.62456017012E+02  0.10279976089E+03  0.17679614993E+03  0.12508661211E+03 0.  0.
          5    1    3    3  502    0 -0.37299568542E+02  0.94785412514E+02  0.10168670016E+03  0.14399024143E+03  0.41800000000E+01 0. -1.
         -5    1    3    3    0  502  0.35109136230E+01 -0.32329395502E+02  0.11130607290E+01  0.32805908495E+02  0.41800000000E+01 0. -1.
        -11    1    1    2    0    0  0.37159156478E+02 -0.32335119490E+02 -0.68341628450E+02  0.84243344199E+02  0.00000000000E+00 0.  1.
         11    1    1    2    0    0 -0.33705015593E+01 -0.30120897523E+02  0.24655170818E+02  0.39070528488E+02  0.00000000000E+00 0. -1.
</event>
<event>
 7    1  0.2530765E-009  0.1167674E+03  0.7561462E-02  0.1248527E+00
         -1   -1    0    0    0  501 -0.00000000000E+00  0.00000000000E+00  0.13861436740E+03  0.13861436740E+03  0.00000000000E+00 0.  1.
          1   -1    0    0  501    0  0.00000000000E+00 -0.00000000000E+00 -0.12098002530E+03  0.12098002530E+03  0.00000000000E+00 0. -1.
         25    2    1    2    0    0  0.43373250226E+02 -0.36538883967E+02 -0.26166469539E+02  0.13981358720E+03  0.12508727418E+03 0.  0.
          5    1    3    3  502    0 -0.39528300747E+02 -0.36488691572E+02 -0.52506786727E+01  0.54212113029E+02  0.41800000000E+01 0.  1.
         -5    1    3    3    0  502  0.82901550973E+02 -0.50192394119E-01 -0.20915790867E+02  0.85601474173E+02  0.41800000000E+01 0.  1.
        -11    1    1    2    0    0  0.50945394153E+01  0.46760062198E+02 -0.84420392304E+01  0.47788343505E+02  0.00000000000E+00 0. -1.
         11    1    1    2    0    0 -0.48467789642E+02 -0.10221178231E+02  0.52242850869E+02  0.71992461995E+02  0.00000000000E+00 0.  1.
</event>
<event>
 7    1  0.2530765E-009  0.9491752E+02  0.7561462E-02  0.1291362E+00
         -1   -1    0    0    0  501 -0.00000000000E+00  0.00000000000E+00  0.43607958025E+03  0.43607958025E+03  0.00000000000E+00 0.  1.
          1   -1    0    0  501    0  0.00000000000E+00 -0.00000000000E+00 -0.56881905656E+02  0.56881905656E+02  0.00000000000E+00 0. -1.
         25    2    1    2    0    0  0.76128146662E+02 -0.47112180822E+02  0.31195240186E+03  0.34781759313E+03  0.12509086606E+03 0.  0.
          5    1    3    3  502    0  0.25893781781E+02 -0.42089195513E+02  0.23371423673E+02  0.54824120225E+02  0.41800000000E+01 0. -1.
         -5    1    3    3    0  502  0.50234364881E+02 -0.50229853085E+01  0.28858097819E+03  0.29299347291E+03  0.41800000000E+01 0. -1.
        -11    1    1    2    0    0 -0.14152111234E+02  0.10255090297E+02  0.70823246330E+02  0.72947798803E+02  0.00000000000E+00 0.  1.
         11    1    1    2    0    0 -0.61976035429E+02  0.36857090525E+02 -0.35779735958E+01  0.72196093970E+02  0.00000000000E+00 0. -1.
</event>
<event>
 7    1  0.2530765E-009  0.1324579E+03  0.7561462E-02  0.1223854E+00
         -1   -1    0    0    0  501 -0.00000000000E+00  0.00000000000E+00  0.14715732590E+03  0.14715732590E+03  0.00000000000E+00 0.  1.
          1   -1    0    0  501    0  0.00000000000E+00 -0.00000000000E+00 -0.17403803724E+03  0.17403803724E+03  0.00000000000E+00 0. -1.
         25    2    1    2    0    0 -0.35790791230E+02 -0.95519710917E+02  0.42105563971E+02  0.16680525671E+03  0.12508444842E+03 0.  0.
          5    1    3    3  502    0 -0.17352723762E+02  0.15718153983E+02 -0.25819768694E+02  0.35104276691E+02  0.41800000000E+01 0.  1.
         -5    1    3    3    0  502 -0.18438067468E+02 -0.11123786490E+03  0.67925332665E+02  0.13170098002E+03  0.41800000000E+01 0.  1.
        -11    1    1    2    0    0 -0.17184321244E+02  0.64846866174E+02 -0.72925184112E+01  0.67480351022E+02  0.00000000000E+00 0. -1.
         11    1    1    2    0    0  0.52975112474E+02  0.30672844743E+02 -0.61693756899E+02  0.86909755416E+02  0.00000000000E+00 0.  1.
</event>
<event>
 7    1  0.2530765E-009  0.1315766E+03  0.7561462E-02  0.1225135E+00
         -1   -1    0    0    0  501 -0.00000000000E+00  0.00000000000E+00  0.13490525422E+04  0.13490525422E+04  0.00000000000E+00 0.  1.
          1   -1    0    0  501    0  0.00000000000E+00 -0.00000000000E+00 -0.18817319710E+02  0.18817319710E+02  0.00000000000E+00 0. -1.
         25    2    1    2    0    0 -0.66820577165E+02 -0.44110436488E+02  0.91690205369E+03  0.92885405822E+03  0.12509902189E+03 0.  0.
          5    1    3    3  502    0 -0.26101277790E+02  0.29626286169E+02  0.58704812977E+03  0.58838930361E+03  0.41800000000E+01 0. -1.
         -5    1    3    3    0  502 -0.40719299375E+02 -0.73736722657E+02  0.32985392392E+03  0.34046475462E+03  0.41800000000E+01 0. -1.
        -11    1    1    2    0    0 -0.28528421278E+02  0.32203522104E+02  0.67196563423E+02  0.79789195962E+02  0.00000000000E+00 0. -1.
         11    1    1    2    0    0  0.95348998442E+02  0.11906914384E+02  0.34613660536E+03  0.35922660770E+03  0.00000000000E+00 0.  1.
</event>
<event>
 7    1  0.2530765E-009  0.1066719E+03  0.7561462E-02  0.1266860E+00
          1   -1    0    0  501    0  0.00000000000E+00  0.00000000000E+00  0.32495732800E+03  0.32495732800E+03  0.00000000000E+00 0. -1.
         -1   -1    0    0    0  501 -0.00000000000E+00 -0.00000000000E+00 -0.41938837505E+02  0.41938837505E+02  0.00000000000E+00 0.  1.
         25    2    1    2    0    0  0.95626972151E+01 -0.21095442049E+02  0.19292268549E+03  0.23109071494E+03  0.12508914062E+03 0.  0.
          5    1    3    3  502    0 -0.61801873795E+01 -0.65033501905E+02  0.55243791153E+02  0.85655705864E+02  0.41800000000E+01 0.  1.
         -5    1    3    3    0  502  0.15742884595E+02  0.43938059856E+02  0.13767889433E+03  0.14543500907E+03  0.41800000000E+01 0.  1.
        -11    1    1    2    0    0  0.31229197092E+02 -0.24611082409E+02  0.28414918809E+02  0.48871011237E+02  0.00000000000E+00 0.  1.
         11    1    1    2    0    0 -0.40791894307E+02  0.45706524459E+02  0.61680886197E+02  0.86934439328E+02  0.00000000000E+00 0. -1.
</event>
<event>
 7    1  0.2530765E-009  0.1665609E+03  0.7561462E-02  0.1181482E+00
         -3   -1    0    0    0  501 -0.00000000000E+00  0.00000000000E+00  0.47992416377E+02  0.47992416377E+02  0.00000000000E+00 0.  1.
          3   -1    0    0  501    0  0.00000000000E+00 -0.00000000000E+00 -0.92839210961E+03  0.92839210961E+03  0.00000000000E+00 0. -1.
         25    2    1    2    0    0  0.27707789086E+01 -0.14012528132E+03 -0.19458737971E+03  0.27047215990E+03  0.12509264270E+03 0.  0.
          5    1    3    3  502    0 -0.37369748073E+02 -0.11304428949E+03 -0.18635052923E+03  0.22117753412E+03  0.41800000000E+01 0.  1.
         -5    1    3    3    0  502  0.40140526982E+02 -0.27080991824E+02 -0.82368504831E+01  0.49294625776E+02  0.41800000000E+01 0.  1.
        -11    1    1    2    0    0 -0.27885303272E+02  0.54802730075E+01 -0.16285911786E+03  0.16532004053E+03  0.00000000000E+00 0. -1.
         11    1    1    2    0    0  0.25114524364E+02  0.13464500831E+03 -0.52295319566E+03  0.54059232555E+03  0.00000000000E+00 0.  1.
</event>
<event>
 7    1  0.2530765E-009  0.1300086E+03  0.7561462E-02  0.1227443E+00
          1   -1    0    0  501    0  0.00000000000E+00  0.00000000000E+00  0.88572595703E+03  0.88572595703E+03  0.00000000000E+00 0. -1.
         -1   -1    0    0    0  501 -0.00000000000E+00 -0.00000000000E+00 -0.33999197224E+02  0.33999197224E+02  0.00000000000E+00 0.  1.
         25    2    1    2    0    0 -0.85452101531E+02  0.40148902845E+01  0.72874139152E+03  0.74433186777E+03  0.12509089760E+03 0.  0.
          5    1    3    3  502    0 -0.10760879015E+03  0.23826457191E+02  0.66235945242E+03  0.67147961130E+03  0.41800000000E+01 0.  1.
         -5    1    3    3    0  502  0.22156688624E+02 -0.19811566906E+02  0.66381939103E+02  0.72852256473E+02  0.41800000000E+01 0.  1.
        -11    1    1    2    0    0  0.97383193279E+01 -0.36163457186E+02  0.64075047850E+02  0.74217533345E+02  0.00000000000E+00 0.  1.
         11    1    1    2    0    0  0.75713782203E+02  0.32148566901E+02  0.58910320435E+02  0.10117575314E+03  0.00000000000E+00 0. -1.
</event>
<event>
 7    1  0.2530765E-009  0.1151071E+03  0.7561462E-02  0.1251394E+00
         -2   -1    0    0    0  501 -0.00000000000E+00  0.00000000000E+00  0.10827040919E+03  0.10827040919E+03  0.00000000000E+00 0.  1.
          2   -1    0    0  501    0  0.00000000000E+00 -0.00000000000E+00 -0.16526300887E+03  0.16526300887E+03  0.00000000000E+00 0. -1.
         25    2    1    2    0    0 -0.57889167308E+02  0.54106346043E+02 -0.32475062454E+02  0.15159825557E+03  0.12509496008E+03 0.  0.
          5    1    3    3  502    0 -0.57253976126E+02  0.90361895889E+02 -0.40082661193E+02  0.11431265083E+03  0.41800000000E+01 0. -1.
         -5    1    3    3    0  502 -0.63519118212E+00 -0.36255549846E+02  0.76075987388E+01  0.37285604743E+02  0.41800000000E+01 0. -1.
        -11    1    1    2    0    0  0.30445715956E+02 -0.56436591155E+01 -0.51467205368E+02  0.60063847168E+02  0.00000000000E+00 0. -1.
         11    1    1    2    0    0  0.27443451352E+02 -0.48462686928E+02  0.26949668139E+02  0.61871315318E+02  0.00000000000E+00 0.  1.
</event>
<event>
 7    1  0.2530765E-009  0.1173906E+03  0.7561462E-02  0.1247465E+00
          3   -1    0    0  501    0  0.00000000000E+00  0.00000000000E+00  0.18119195695E+03  0.18119195695E+03  0.00000000000E+00 0. -1.
         -3   -1    0    0    0  501 -0.00000000000E+00 -0.00000000000E+00 -0.18480824438E+03  0.18480824438E+03  0.00000000000E+00 0.  1.
         25    2    1    2    0    0  0.53850582124E+02 -0.66595388792E+02 -0.12157025895E+03  0.19432371567E+03  0.12509015792E+03 0.  0.
          5    1    3    3  502    0 -0.65146097996E+00 -0.83804848135E+02 -0.35934912369E+02  0.91282349331E+02  0.41800000000E+01 0.  1.
         -5    1    3    3    0  502  0.54502043104E+02  0.17209459344E+02 -0.85635346583E+02  0.10304136634E+03  0.41800000000E+01 0.  1.
        -11    1    1    2    0    0 -0.17621496682E+02 -0.14590798312E+00  0.88478586691E+02  0.90216399492E+02  0.00000000000E+00 0. -1.
         11    1    1    2    0    0 -0.36229085442E+02  0.66741296775E+02  0.29475384824E+02  0.81460086163E+02  0.00000000000E+00 0.  1.
</event>
<event>
 7    1  0.2560493E-009  0.2140941E+03  0.7561462E-02  0.1138364E+00
          1   -1    0    0  501    0  0.00000000000E+00  0.00000000000E+00  0.22652568775E+03  0.22652568775E+03  0.00000000000E+00 0. -1.
         -1   -1    0    0    0  501 -0.00000000000E+00 -0.00000000000E+00 -0.24266494290E+03  0.24266494290E+03  0.00000000000E+00 0.  1.
         25    2    1    2    0    0  0.18553673968E+03 -0.88705791618E+02  0.19789299107E+02  0.24152057167E+03  0.12509185002E+03 0.  0.
          5    1    3    3  502    0  0.30974952337E+02 -0.47221340581E+02 -0.41389731572E+02  0.70141891607E+02  0.41800000000E+01 0. -1.
         -5    1    3    3    0  502  0.15456178734E+03 -0.41484451037E+02  0.61179030679E+02  0.17137868006E+03  0.41800000000E+01 0. -1.
        -11    1    1    2    0    0 -0.48270157570E+02  0.43098179798E+00 -0.42530869993E+02  0.64335594809E+02  0.00000000000E+00 0.  1.
         11    1    1    2    0    0 -0.13726658211E+03  0.88274809820E+02  0.66023157358E+01  0.16333446417E+03  0.00000000000E+00 0. -1.
</event>
<event>
 7    1  0.2530765E-009  0.1321433E+03  0.7561462E-02  0.1224310E+00
          2   -1    0    0  501    0  0.00000000000E+00  0.00000000000E+00  0.63073999293E+03  0.63073999293E+03  0.00000000000E+00 0. -1.
         -2   -1    0    0    0  501 -0.00000000000E+00 -0.00000000000E+00 -0.40229672228E+02  0.40229672228E+02  0.00000000000E+00 0.  1.
         25    2    1    2    0    0  0.83474410437E+02 -0.61849934539E+02  0.42763442257E+03  0.45750838244E+03  0.12509727827E+03 0.  0.
          5    1    3    3  502    0 -0.20050509221E+02  0.19769606987E+02  0.50440125826E+02  0.57918382003E+02  0.41800000000E+01 0.  1.
         -5    1    3    3    0  502  0.10352491966E+03 -0.81619541525E+02  0.37719429674E+03  0.39959000043E+03  0.41800000000E+01 0.  1.
        -11    1    1    2    0    0 -0.21071177038E+02  0.14217112614E+02 -0.69637563392E+01  0.26355543918E+02  0.00000000000E+00 0.  1.
         11    1    1    2    0    0 -0.62403233398E+02  0.47632821925E+02  0.16983965447E+03  0.18710573881E+03  0.00000000000E+00 0. -1.
</event>
<event>
 7    1  0.2530765E-009  0.1075158E+03  0.7561462E-02  0.1265241E+00
          1   -1    0    0  501    0  0.00000000000E+00  0.00000000000E+00  0.39069499915E+03  0.39069499915E+03  0.00000000000E+00 0. -1.
         -1   -1    0    0    0  501 -0.00000000000E+00 -0.00000000000E+00 -0.35716185835E+02  0.35716185835E+02  0.00000000000E+00 0.  1.
         25    2    1    2    0    0  0.15863809493E+02  0.10757102360E+02  0.12480769816E+03  0.17774042116E+03  0.12508924851E+03 0.  0.
          5    1    3    3  502    0 -0.21746131765E+02  0.59563209045E+02  0.75711630907E+02  0.98845301219E+02  0.41800000000E+01 0.  1.
         -5    1    3    3    0  502  0.37609941258E+02 -0.48806106685E+02  0.49096067250E+02  0.78895119942E+02  0.41800000000E+01 0.  1.
        -11    1    1    2    0    0  0.29632290081E+02  0.19150238713E+02  0.55995767340E+02  0.66184063174E+02  0.00000000000E+00 0. -1.
         11    1    1    2    0    0 -0.45496099574E+02 -0.29907341074E+02  0.17417534782E+03  0.18248670065E+03  0.00000000000E+00 0.  1.
</event>
<event>
 7    1  0.2530765E-009  0.1023274E+03  0.7561462E-02  0.1275476E+00
         -1   -1    0    0    0  501 -0.00000000000E+00  0.00000000000E+00  0.32202113686E+03  0.32202113686E+03  0.00000000000E+00 0.  1.
          1   -1    0    0  501    0  0.00000000000E+00 -0.00000000000E+00 -0.53316162581E+02  0.53316162581E+02  0.00000000000E+00 0. -1.
         25    2    1    2    0    0  0.15318841696E+02  0.71003938345E+02  0.13399329030E+03  0.19717439572E+03  0.12508922539E+03 0.  0.
          5    1    3    3  502    0 -0.15404271920E+02 -0.18696999377E+02 -0.84616748893E+01  0.25998879226E+02  0.41800000000E+01 0.  1.
         -5    1    3    3    0  502  0.30723113616E+02  0.89700937722E+02  0.14245496519E+03  0.17117551649E+03  0.41800000000E+01 0.  1.
        -11    1    1    2    0    0  0.15616569010E+02 -0.29736007562E+02 -0.34954190865E+00  0.33589128493E+02  0.00000000000E+00 0. -1.
         11    1    1    2    0    0 -0.30935410706E+02 -0.41267930782E+02  0.13506122588E+03  0.14457377523E+03  0.00000000000E+00 0.  1.
</event>
<event>
 7    1  0.2530765E-009  0.1065183E+03  0.7561462E-02  0.1267157E+00
         -2   -1    0    0    0  501 -0.00000000000E+00  0.00000000000E+00  0.52660857444E+02  0.52660857444E+02  0.00000000000E+00 0.  1.
          2   -1    0    0  501    0  0.00000000000E+00 -0.00000000000E+00 -0.29284373053E+03  0.29284373053E+03  0.00000000000E+00 0. -1.
         25    2    1    2    0    0 -0.38572693707E+02  0.30618662755E+02 -0.81968919735E+02  0.15745471570E+03  0.12509088090E+03 0.  0.
          5    1    3    3  502    0 -0.76565098008E+02  0.16905169359E+02 -0.16222305773E+02  0.80178766445E+02  0.41800000000E+01 0.  1.
         -5    1    3    3    0  502  0.37992404301E+02  0.13713493396E+02 -0.65746613961E+02  0.77275949254E+02  0.41800000000E+01 0.  1.
        -11    1    1    2    0    0 -0.21975687734E+02  0.64645864537E+01 -0.12831670804E+02  0.26255923237E+02  0.00000000000E+00 0.  1.
         11    1    1    2    0    0  0.60548381441E+02 -0.37083249208E+02 -0.14538228255E+03  0.16179394904E+03  0.00000000000E+00 0. -1.
</event>
<event>
 7    1  0.2530765E-009  0.1011082E+03  0.7561462E-02  0.1277983E+00
         -1   -1    0    0    0  501 -0.00000000000E+00  0.00000000000E+00  0.28183822679E+03  0.28183822679E+03  0.00000000000E+00 0.  1.
          1   -1    0    0  501    0  0.00000000000E+00 -0.00000000000E+00 -0.52127166807E+02  0.52127166807E+02  0.00000000000E+00 0. -1.
         25    2    1    2    0    0  0.40106277111E+02 -0.43885008845E+01  0.87483082199E+02  0.15789320393E+03  0.12509676963E+03 0.  0.
          5    1    3    3  502    0  0.61880961372E+02 -0.36957313635E+02  0.12616584109E+02  0.73292202901E+02  0.41800000000E+01 0.  1.
         -5    1    3    3    0  502 -0.21774684261E+02  0.32568812750E+02  0.74866498090E+02  0.84601001028E+02  0.41800000000E+01 0.  1.
        -11    1    1    2    0    0 -0.31565045825E+02 -0.36840782247E+02  0.11778963804E+03  0.12738914468E+03  0.00000000000E+00 0.  1.
         11    1    1    2    0    0 -0.85412312859E+01  0.41229283131E+02  0.24438339749E+02  0.48683044986E+02  0.00000000000E+00 0. -1.
</event>
<event>
 7    1  0.2530765E-009  0.8066229E+02  0.7561462E-02  0.1327182E+00
          2   -1    0    0  501    0  0.00000000000E+00  0.00000000000E+00  0.24335833412E+03  0.24335833412E+03  0.00000000000E+00 0. -1.
         -2   -1    0    0    0  501 -0.00000000000E+00 -0.00000000000E+00 -0.58833597073E+02  0.58833597073E+02  0.00000000000E+00 0.  1.
         25    2    1    2    0    0 -0.11858128633E+02 -0.47528969958E+02  0.10444551119E+03  0.17017215244E+03  0.12510027361E+03 0.  0.
          5    1    3    3  502    0  0.30120265901E+02 -0.55884145417E+02  0.74327428113E+01  0.64054556377E+02  0.41800000000E+01 0. -1.
         -5    1    3    3    0  502 -0.41978394534E+02  0.83551754599E+01  0.97012768383E+02  0.10611759606E+03  0.41800000000E+01 0. -1.
        -11    1    1    2    0    0  0.17365031026E+02  0.19409564852E+02  0.95841445357E+02  0.99316958060E+02  0.00000000000E+00 0. -1.
         11    1    1    2    0    0 -0.55069023931E+01  0.28119405106E+02 -0.15762219506E+02  0.32702820692E+02  0.00000000000E+00 0.  1.
</event>
<event>
 7    1  0.2530765E-009  0.1682251E+03  0.7561462E-02  0.1179712E+00
          2   -1    0    0  501    0  0.00000000000E+00  0.00000000000E+00  0.10649011715E+03  0.10649011715E+03  0.00000000000E+00 0. -1.
         -2   -1    0    0    0  501 -0.00000000000E+00 -0.00000000000E+00 -0.29129175396E+03  0.29129175396E+03  0.00000000000E+00 0.  1.
         25    2    1    2    0    0  0.94587279792E+02  0.92592934717E+02 -0.14571142061E+03  0.23323894471E+03  0.12509349374E+03 0.  0.
          5    1    3    3  502    0 -0.27938726978E+02  0.16870609232E+02 -0.51374563172E+02  0.61008262245E+02  0.41800000000E+01 0.  1.
         -5    1    3    3    0  502  0.12252600677E+03  0.75722325485E+02 -0.94336857434E+02  0.17223068247E+03  0.41800000000E+01 0.  1.
        -11    1    1    2    0    0 -0.26641109336E+02 -0.87325891361E+02 -0.28000427377E+02  0.95496512722E+02  0.00000000000E+00 0.  1.
         11    1    1    2    0    0 -0.67946170456E+02 -0.52670433562E+01 -0.11089788827E+02  0.69046413677E+02  0.00000000000E+00 0. -1.
</event>
<event>
 7    1  0.2530765E-009  0.9112186E+02  0.7561462E-02  0.1300157E+00
         -2   -1    0    0    0  501 -0.00000000000E+00  0.00000000000E+00  0.15728959108E+03  0.15728959108E+03  0.00000000000E+00 0.  1.
          2   -1    0    0  501    0  0.00000000000E+00 -0.00000000000E+00 -0.93240067737E+02  0.93240067737E+02  0.00000000000E+00 0. -1.
         25    2    1    2    0    0  0.28775476077E+02 -0.46845184985E+02  0.37023288438E+02  0.14156320120E+03  0.12508763595E+03 0.  0.
          5    1    3    3  502    0 -0.12736042166E+02  0.16003283502E+02 -0.32729735137E+02  0.38820353102E+02  0.41800000000E+01 0.  1.
         -5    1    3    3    0  502  0.41511518243E+02 -0.62848468487E+02  0.69753023575E+02  0.10274284810E+03  0.41800000000E+01 0.  1.
        -11    1    1    2    0    0 -0.28506648844E+02 -0.91478458426E+01 -0.19866803045E+02  0.35930515932E+02  0.00000000000E+00 0. -1.
         11    1    1    2    0    0 -0.26882723301E+00  0.55993030827E+02  0.46893037948E+02  0.73035941682E+02  0.00000000000E+00 0.  1.
</event>
<event>
 7    1  0.2530765E-009  0.1141173E+03  0.7561462E-02  0.1253130E+00
         -1   -1    0    0    0  501 -0.00000000000E+00  0.00000000000E+00  0.11768745567E+03  0.11768745567E+03  0.00000000000E+00 0.  1.
          1   -1    0    0  501    0  0.00000000000E+00 -0.00000000000E+00 -0.13075445976E+03  0.13075445976E+03  0.00000000000E+00 0. -1.
         25    2    1    2    0    0 -0.57100689774E+02 -0.24828748208E+02 -0.12099077050E+01  0.13973590154E+03  0.12509077820E+03 0.  0.
          5    1    3    3  502    0 -0.72867697092E+02  0.20660832476E+02 -0.32114354347E+02  0.82373390322E+02  0.41800000000E+01 0.  1.
         -5    1    3    3    0  502  0.15767007317E+02 -0.45489580684E+02  0.30904446642E+02  0.57362511215E+02  0.41800000000E+01 0.  1.
        -11    1    1    2    0    0  0.40935719465E+02 -0.27479930505E+02  0.89992967367E+01  0.50118530010E+02  0.00000000000E+00 0.  1.
         11    1    1    2    0    0  0.16164970310E+02  0.52308678713E+02 -0.20856393125E+02  0.58587483885E+02  0.00000000000E+00 0. -1.
</event>
<event>
 7    1  0.2530765E-009  0.1078850E+03  0.7561462E-02  0.1264537E+00
          2   -1    0    0  501    0  0.00000000000E+00  0.00000000000E+00  0.27536595530E+03  0.27536595530E+03  0.00000000000E+00 0. -1.
         -2   -1    0    0    0  501 -0.00000000000E+00 -0.00000000000E+00 -0.60480440080E+02  0.60480440080E+02  0.00000000000E+00 0.  1.
         25    2    1    2    0    0  0.51213002567E+02  0.72629998503E+01  0.58290886397E+02  0.14737624300E+03  0.12508559775E+03 0.  0.
          5    1    3    3  502    0  0.87018475679E+02  0.24639682087E+02  0.57688673033E+02  0.10735354880E+03  0.41800000000E+01 0. -1.
         -5    1    3    3    0  502 -0.35805473112E+02 -0.17376682237E+02  0.60221336414E+00  0.40022694203E+02  0.41800000000E+01 0. -1.
        -11    1    1    2    0    0 -0.41556783433E+02 -0.35948909009E+02  0.14665727963E+03  0.15661305174E+03  0.00000000000E+00 0. -1.
         11    1    1    2    0    0 -0.96562191338E+01  0.28685909159E+02  0.99373491999E+01  0.31857100642E+02  0.00000000000E+00 0.  1.
</event>
<event>
 7    1  0.2530765E-009  0.7539966E+02  0.7561462E-02  0.1342638E+00
         -2   -1    0    0    0  501 -0.00000000000E+00  0.00000000000E+00  0.27268042662E+02  0.27268042662E+02  0.00000000000E+00 0. -1.
          2   -1    0    0  501    0  0.00000000000E+00 -0.00000000000E+00 -0.55865265186E+03  0.55865265186E+03  0.00000000000E+00 0.  1.
         25    2    1    2    0    0 -0.24418079218E+02  0.32007258194E+02 -0.41184655160E+03  0.43230350935E+03  0.12509210592E+03 0.  0.
          5    1    3    3  502    0  0.17969529128E+02 -0.93584572962E+01 -0.33279664796E+03  0.33343899891E+03  0.41800000000E+01 0.  1.
         -5    1    3    3    0  502 -0.42387608345E+02  0.41365715491E+02 -0.79049903634E+02  0.98864510436E+02  0.41800000000E+01 0.  1.
        -11    1    1    2    0    0  0.43325893147E+02 -0.27446462633E+02 -0.24921434959E+02  0.57022094389E+02  0.00000000000E+00 0. -1.
         11    1    1    2    0    0 -0.18907813930E+02 -0.45607955618E+01 -0.94616622640E+02  0.96595090784E+02  0.00000000000E+00 0.  1.
</event>
<event>
 7    1  0.2530765E-009  0.1091918E+03  0.7561462E-02  0.1262074E+00
          2   -1    0    0  501    0  0.00000000000E+00  0.00000000000E+00  0.20716677486E+03  0.20716677486E+03  0.00000000000E+00 0. -1.
         -2   -1    0    0    0  501 -0.00000000000E+00 -0.00000000000E+00 -0.63994732591E+02  0.63994732591E+02  0.00000000000E+00 0.  1.
         25    2    1    2    0    0 -0.19728942340E+02 -0.20878165463E+02  0.49211474881E+02  0.13745190444E+03  0.12508448272E+03 0.  0.
          5    1    3    3  502    0 -0.36200376522E+02  0.44275120047E+02  0.64892403485E+01  0.57709064763E+02  0.41800000000E+01 0. -1.
         -5    1    3    3    0  502  0.16471434182E+02 -0.65153285511E+02  0.42722234533E+02  0.79742839681E+02  0.41800000000E+01 0. -1.
        -11    1    1    2    0    0  0.28118916349E+02 -0.30595667941E+02  0.30378841101E+02  0.51474676687E+02  0.00000000000E+00 0.  1.
         11    1    1    2    0    0 -0.83899740088E+01  0.51473833404E+02  0.63581726283E+02  0.82234926317E+02  0.00000000000E+00 0. -1.
</event>
<event>
 7    1  0.2530765E-009  0.8622724E+02  0.7561462E-02  0.1312254E+00
         -2   -1    0    0    0  501 -0.00000000000E+00  0.00000000000E+00  0.71868722299E+02  0.71868722299E+02  0.00000000000E+00 0.  1.
          2   -1    0    0  501    0  0.00000000000E+00 -0.00000000000E+00 -0.25133171401E+03  0.25133171401E+03  0.00000000000E+00 0. -1.
         25    2    1    2    0    0  0.14423742330E+02  0.52952250111E+02 -0.16583150793E+03  0.21484863575E+03  0.12509141508E+03 0.  0.
          5    1    3    3  502    0  0.41734781770E+02  0.12971316080E+01 -0.33123017995E+01  0.42094159963E+02  0.41800000000E+01 0. -1.
         -5    1    3    3    0  502 -0.27311039440E+02  0.51655118503E+02 -0.16251920613E+03  0.17275447578E+03  0.41800000000E+01 0. -1.
        -11    1    1    2    0    0 -0.30841002737E+02 -0.25933442849E+02  0.32951748948E+02  0.52053133109E+02  0.00000000000E+00 0.  1.
         11    1    1    2    0    0  0.16417260407E+02 -0.27018807262E+02 -0.46583232734E+02  0.56298667454E+02  0.00000000000E+00 0. -1.
</event>
<event>
 7    1  0.2530765E-009  0.9701110E+02  0.7561462E-02  0.1286710E+00
         -2   -1    0    0    0  501 -0.00000000000E+00  0.00000000000E+00  0.53317604828E+02  0.53317604828E+02  0.00000000000E+00 0.  1.
          2   -1    0    0  501    0  0.00000000000E+00 -0.00000000000E+00 -0.27790678896E+03  0.27790678896E+03  0.00000000000E+00 0. -1.
         25    2    1    2    0    0  0.38689756958E+02 -0.39479683363E+02 -0.13164868044E+03  0.18983159144E+03  0.12509642423E+03 0.  0.
          5    1    3    3  502    0  0.37642688048E+02 -0.80729909899E+02 -0.11406202987E+03  0.14478228266E+03  0.41800000000E+01 0.  1.
         -5    1    3    3    0  502  0.10470689101E+01  0.41250226536E+02 -0.17586650567E+02  0.45049308771E+02  0.41800000000E+01 0.  1.
        -11    1    1    2    0    0 -0.21977987926E+02  0.41076887398E+02  0.36569020619E+00  0.46588371520E+02  0.00000000000E+00 0.  1.
         11    1    1    2    0    0 -0.16711769032E+02 -0.15972040346E+01 -0.93306193900E+02  0.94804430830E+02  0.00000000000E+00 0. -1.
</event>
<event>
 7    1  0.2530765E-009  0.9736491E+02  0.7561462E-02  0.1285937E+00
          4   -1    0    0  501    0  0.00000000000E+00  0.00000000000E+00  0.41233695430E+02  0.41233695430E+02  0.00000000000E+00 0. -1.
         -4   -1    0    0    0  501 -0.00000000000E+00 -0.00000000000E+00 -0.31980376822E+03  0.31980376822E+03  0.00000000000E+00 0.  1.
         25    2    1    2    0    0  0.52215559993E+01 -0.34878995443E+02 -0.16967485379E+03  0.21372856995E+03  0.12508611688E+03 0.  0.
          5    1    3    3  502    0  0.44780465056E+02  0.19858396280E+02 -0.12031755081E+03  0.12997473365E+03  0.41800000000E+01 0. -1.
         -5    1    3    3    0  502 -0.39558909057E+02 -0.54737391723E+02 -0.49357302977E+02  0.83753836304E+02  0.41800000000E+01 0. -1.
        -11    1    1    2    0    0 -0.34755839588E+02  0.33595078464E+02 -0.17758017956E+02  0.51497037625E+02  0.00000000000E+00 0. -1.
         11    1    1    2    0    0  0.29534283588E+02  0.12839169795E+01 -0.91137201039E+02  0.95811856068E+02  0.00000000000E+00 0.  1.
</event>
<event>
 7    1  0.2530765E-009  0.1072561E+03  0.7561462E-02  0.1265737E+00
         -3   -1    0    0    0  501 -0.00000000000E+00  0.00000000000E+00  0.20106337898E+03  0.20106337898E+03  0.00000000000E+00 0.  1.
          3   -1    0    0  501    0  0.00000000000E+00 -0.00000000000E+00 -0.74913200981E+02  0.74913200981E+02  0.00000000000E+00 0. -1.
         25    2    1    2    0    0  0.13847665510E+02  0.47450827563E+02  0.10421787813E+03  0.17015466088E+03  0.12509158094E+03 0.  0.
          5    1    3    3  502    0  0.64095305728E+02  0.25141712174E+02  0.24441453645E+02  0.73179033634E+02  0.41800000000E+01 0. -1.
         -5    1    3    3    0  502 -0.50247640217E+02  0.22309115390E+02  0.79776424483E+02  0.96975627248E+02  0.41800000000E+01 0. -1.
        -11    1    1    2    0    0 -0.11274279324E+02  0.19968204934E+02 -0.16430313502E+02  0.28209817162E+02  0.00000000000E+00 0. -1.
         11    1    1    2    0    0 -0.25733861863E+01 -0.67419032497E+02  0.38362613377E+02  0.77612101920E+02  0.00000000000E+00 0.  1.
</event>
<event>
 7    1  0.2530765E-009  0.1046550E+03  0.7561462E-02  0.1270801E+00
         -2   -1    0    0    0  501 -0.00000000000E+00  0.00000000000E+00  0.85176351226E+02  0.85176351226E+02  0.00000000000E+00 0. -1.
          2   -1    0    0  501    0  0.00000000000E+00 -0.00000000000E+00 -0.15163780763E+03  0.15163780763E+03  0.00000000000E+00 0.  1.
         25    2    1    2    0    0  0.29388801083E+02  0.15829692313E+01 -0.58104320455E+02  0.14102972263E+03  0.12508822162E+03 0.  0.
          5    1    3    3  502    0  0.50973041121E+02 -0.46861649566E+02 -0.53556387927E+02  0.87635747323E+02  0.41800000000E+01 0. -1.
         -5    1    3    3    0  502 -0.21584240038E+02  0.48444618798E+02 -0.45479325280E+01  0.53393975304E+02  0.41800000000E+01 0. -1.
        -11    1    1    2    0    0  0.19428686316E+02  0.24600501031E+02 -0.22530262523E+02  0.38604031296E+02  0.00000000000E+00 0.  1.
         11    1    1    2    0    0 -0.48817487399E+02 -0.26183470262E+02  0.14173126578E+02  0.57180404929E+02  0.00000000000E+00 0. -1.
</event>
<event>
 7    1  0.2530765E-009  0.2163499E+03  0.7561462E-02  0.1136634E+00
          2   -1    0    0  501    0  0.00000000000E+00  0.00000000000E+00  0.14592935128E+03  0.14592935128E+03  0.00000000000E+00 0. -1.
         -2   -1    0    0    0  501 -0.00000000000E+00 -0.00000000000E+00 -0.34858811463E+03  0.34858811463E+03  0.00000000000E+00 0.  1.
         25    2    1    2    0    0 -0.18101166375E+03  0.71777156650E+02 -0.14713119266E+03  0.27424808153E+03  0.12508892730E+03 0.  0.
          5    1    3    3  502    0 -0.51499578007E+02  0.81248236287E+02 -0.34439022708E+02  0.10225947936E+03  0.41800000000E+01 0.  1.
         -5    1    3    3    0  502 -0.12951208575E+03 -0.94710796372E+01 -0.11269216996E+03  0.17198860216E+03  0.41800000000E+01 0.  1.
        -11    1    1    2    0    0  0.15297583980E+03 -0.29552672234E+02 -0.64802313713E+02  0.16874331945E+03  0.00000000000E+00 0. -1.
         11    1    1    2    0    0  0.28035823956E+02 -0.42224484415E+02  0.92747430198E+01  0.51526064929E+02  0.00000000000E+00 0.  1.
</event>
<event>
 7    1  0.2530765E-009  0.9631148E+02  0.7561462E-02  0.1288249E+00
         -1   -1    0    0    0  501 -0.00000000000E+00  0.00000000000E+00  0.33246739666E+03  0.33246739666E+03  0.00000000000E+00 0.  1.
          1   -1    0    0  501    0  0.00000000000E+00 -0.00000000000E+00 -0.45748898950E+02  0.45748898950E+02  0.00000000000E+00 0. -1.
         25    2    1    2    0    0  0.34276723696E+02 -0.20669053525E+02  0.22572587467E+03  0.26115446041E+03  0.12508948052E+03 0.  0.
          5    1    3    3  502    0  0.59437317323E+02 -0.40521534813E+02  0.21554088688E+03  0.22726666230E+03  0.41800000000E+01 0.  1.
         -5    1    3    3    0  502 -0.25160593627E+02  0.19852481288E+02  0.10184987788E+02  0.33887798116E+02  0.41800000000E+01 0.  1.
        -11    1    1    2    0    0 -0.59964225608E+02  0.16751218191E+02  0.65854548103E+02  0.90626338167E+02  0.00000000000E+00 0.  1.
         11    1    1    2    0    0  0.25687501911E+02  0.39178353341E+01 -0.48619250580E+01  0.26435497034E+02  0.00000000000E+00 0. -1.
</event>
<event>
 7    1  0.2530765E-009  0.1291713E+03  0.7561462E-02  0.1228691E+00
         -2   -1    0    0    0  501 -0.00000000000E+00  0.00000000000E+00  0.41816279018E+02  0.41816279018E+02  0.00000000000E+00 0.  1.
          2   -1    0    0  501    0  0.00000000000E+00 -0.00000000000E+00 -0.57976030263E+03  0.57976030263E+03  0.00000000000E+00 0. -1.
         25    2    1    2    0    0  0.30975654216E+02  0.10035698350E+03 -0.35544129774E+03  0.39117431518E+03  0.12509122043E+03 0.  0.
          5    1    3    3  502    0  0.39054160535E+02  0.26084989001E+02 -0.27034164221E+02  0.54350460361E+02  0.41800000000E+01 0.  1.
         -5    1    3    3    0  502 -0.80785063194E+01  0.74271994496E+02 -0.32840713352E+03  0.33682385482E+03  0.41800000000E+01 0.  1.
        -11    1    1    2    0    0  0.30566736774E+02 -0.37781715499E+02 -0.39554970073E+02  0.62660825725E+02  0.00000000000E+00 0.  1.
         11    1    1    2    0    0 -0.61542390990E+02 -0.62575267999E+02 -0.14294775579E+03  0.16774144074E+03  0.00000000000E+00 0. -1.
</event>
<event>
 7    1  0.2530765E-009  0.1472896E+03  0.7561462E-02  0.1203844E+00
         -2   -1    0    0    0  501 -0.00000000000E+00  0.00000000000E+00  0.34754193860E+02  0.34754193860E+02  0.00000000000E+00 0.  1.
          2   -1    0    0  501    0  0.00000000000E+00 -0.00000000000E+00 -0.73290483319E+03  0.73290483319E+03  0.00000000000E+00 0. -1.
         25    2    1    2    0    0 -0.11776231576E+03  0.29818315190E+02 -0.30506640456E+03  0.35137857022E+03  0.12507715014E+03 0.  0.
          5    1    3    3  502    0  0.21667576368E+02 -0.11344897648E+02 -0.76868591283E+02  0.80774026111E+02  0.41800000000E+01 0.  1.
         -5    1    3    3    0  502 -0.13942989213E+03  0.41163212839E+02 -0.22819781327E+03  0.27060454411E+03  0.41800000000E+01 0.  1.
        -11    1    1    2    0    0  0.62591739908E+02 -0.29406348518E+02 -0.12771229019E+03  0.14523390893E+03  0.00000000000E+00 0.  1.
         11    1    1    2    0    0  0.55170575852E+02 -0.41196667265E+00 -0.26537194458E+03  0.27104654790E+03  0.00000000000E+00 0. -1.
</event>
<event>
 7    1  0.2530765E-009  0.9756379E+02  0.7561462E-02  0.1285504E+00
          4   -1    0    0  501    0  0.00000000000E+00  0.00000000000E+00  0.22638015212E+02  0.22638015212E+02  0.00000000000E+00 0. -1.
         -4   -1    0    0    0  501 -0.00000000000E+00 -0.00000000000E+00 -0.72601554852E+03  0.72601554852E+03  0.00000000000E+00 0.  1.
         25    2    1    2    0    0 -0.58964809124E+02  0.50910577239E+01 -0.49267025207E+03  0.51173579029E+03  0.12508706650E+03 0.  0.
          5    1    3    3  502    0  0.59879334487E+00 -0.22268402760E+02 -0.38463495499E+03  0.38530216884E+03  0.41800000000E+01 0.  1.
         -5    1    3    3    0  502 -0.59563602469E+02  0.27359460484E+02 -0.10803529709E+03  0.12643362145E+03  0.41800000000E+01 0.  1.
        -11    1    1    2    0    0  0.26374326345E+02 -0.46878748819E+02 -0.12598087563E+03  0.13698322235E+03  0.00000000000E+00 0.  1.
         11    1    1    2    0    0  0.32590482778E+02  0.41787691095E+02 -0.84726405604E+02  0.99934551089E+02  0.00000000000E+00 0. -1.
</event>
<event>
 7    1  0.2530765E-009  0.8831617E+02  0.7561462E-02  0.1306981E+00
          1   -1    0    0  501    0  0.00000000000E+00  0.00000000000E+00  0.30421766764E+03  0.30421766764E+03  0.00000000000E+00 0. -1.
         -1   -1    0    0    0  501 -0.00000000000E+00 -0.00000000000E+00 -0.41440540989E+02  0.41440540989E+02  0.00000000000E+00 0.  1.
         25    2    1    2    0    0 -0.12596961420E+01 -0.23021504318E+02  0.17834201340E+03  0.21905395339E+03  0.12508870555E+03 0.  0.
          5    1    3    3  502    0 -0.36808495281E+02 -0.54555780362E+02  0.51917942477E+02  0.83929396797E+02  0.41800000000E+01 0. -1.
         -5    1    3    3    0  502  0.35548799139E+02  0.31534276044E+02  0.12642407092E+03  0.13512455659E+03  0.41800000000E+01 0. -1.
        -11    1    1    2    0    0  0.29488542076E+02  0.17277674632E+02  0.90871966642E+02  0.97086592668E+02  0.00000000000E+00 0. -1.
         11    1    1    2    0    0 -0.28228845934E+02  0.57438296859E+01 -0.64368533893E+01  0.29517662573E+02  0.00000000000E+00 0.  1.
</event>
<event>
 7    1  0.2530765E-009  0.1172845E+03  0.7561462E-02  0.1247645E+00
          2   -1    0    0  501    0  0.00000000000E+00  0.00000000000E+00  0.70074503896E+03  0.70074503896E+03  0.00000000000E+00 0. -1.
         -2   -1    0    0    0  501 -0.00000000000E+00 -0.00000000000E+00 -0.20727820119E+02  0.20727820119E+02  0.00000000000E+00 0.  1.
         25    2    1    2    0    0  0.36404994241E+02 -0.38916064402E+02  0.37453867346E+03  0.39845549385E+03  0.12509108279E+03 0.  0.
          5    1    3    3  502    0  0.76780051398E+02  0.38515034844E+01  0.20911982067E+03  0.22284205656E+03  0.41800000000E+01 0.  1.
         -5    1    3    3    0  502 -0.40375057157E+02 -0.42767567886E+02  0.16541885278E+03  0.17561343730E+03  0.41800000000E+01 0.  1.
        -11    1    1    2    0    0 -0.32420357797E+02 -0.20960863052E+02  0.69233753445E+02  0.79270107832E+02  0.00000000000E+00 0.  1.
         11    1    1    2    0    0 -0.39846364441E+01  0.59876927453E+02  0.23624479194E+03  0.24374725739E+03  0.00000000000E+00 0. -1.
</event>
<event>
 7    1  0.2530765E-009  0.9001809E+02  0.7561462E-02  0.1302808E+00
         -1   -1    0    0    0  501 -0.00000000000E+00  0.00000000000E+00  0.88218268526E+02  0.88218268526E+02  0.00000000000E+00 0.  1.
          1   -1    0    0  501    0  0.00000000000E+00 -0.00000000000E+00 -0.22775977042E+03  0.22775977042E+03  0.00000000000E+00 0. -1.
         25    2    1    2    0    0  0.28142961868E+02 -0.72327940969E+02 -0.12888992316E+03  0.19566087051E+03  0.12508879490E+03 0.  0.
          5    1    3    3  502    0  0.15945988491E+02 -0.58384278141E+02  0.45866548638E+01  0.60840022073E+02  0.41800000000E+01 0.  1.
         -5    1    3    3    0  502  0.12196973377E+02 -0.13943662828E+02 -0.13347657802E+03  0.13482084843E+03  0.41800000000E+01 0.  1.
        -11    1    1    2    0    0 -0.35282637229E+02  0.86848385427E+01  0.27681714278E+02  0.45678969075E+02  0.00000000000E+00 0.  1.
         11    1    1    2    0    0  0.71396753610E+01  0.63643102426E+02 -0.38333293016E+02  0.74638199363E+02  0.00000000000E+00 0. -1.
</event>
<event>
 7    1  0.2530765E-009  0.9335028E+02  0.7561462E-02  0.1294935E+00
          3   -1    0    0  501    0  0.00000000000E+00  0.00000000000E+00  0.14870259810E+03  0.14870259810E+03  0.00000000000E+00 0. -1.
         -3   -1    0    0    0  501 -0.00000000000E+00 -0.00000000000E+00 -0.95004880844E+02  0.95004880844E+02  0.00000000000E+00 0.  1.
         25    2    1    2    0    0 -0.35851013305E+02 -0.37533484245E+02  0.44295521844E+02  0.14249068996E+03  0.12508975128E+03 0.  0.
          5    1    3    3  502    0  0.33018064803E+02 -0.41164731358E+00 -0.21966422493E+02  0.39879295054E+02  0.41800000000E+01 0.  1.
         -5    1    3    3    0  502 -0.68869078108E+02 -0.37121836932E+02  0.66261944337E+02  0.10261139490E+03  0.41800000000E+01 0.  1.
        -11    1    1    2    0    0 -0.43397303267E+01 -0.11134449050E+02 -0.26166945674E+02  0.28766617126E+02  0.00000000000E+00 0.  1.
         11    1    1    2    0    0  0.40190743632E+02  0.48667933295E+02  0.35569141084E+02  0.72450171859E+02  0.00000000000E+00 0. -1.
</event>
<event>
 7    1  0.2530765E-009  0.1919698E+03  0.7561462E-02  0.1156697E+00
         -3   -1    0    0    0  501 -0.00000000000E+00  0.00000000000E+00  0.24927618831E+03  0.24927618831E+03  0.00000000000E+00 0.  1.
          3   -1    0    0  501    0  0.00000000000E+00 -0.00000000000E+00 -0.18730780479E+03  0.18730780479E+03  0.00000000000E+00 0. -1.
         25    2    1    2    0    0  0.16013772689E+03 -0.51763482663E+02 -0.48783594545E+02  0.21529465368E+03  0.12509356137E+03 0.  0.
          5    1    3    3  502    0  0.66835724543E+02 -0.70362949822E+02 -0.67443368191E+02  0.11825412930E+03  0.41800000000E+01 0. -1.
         -5    1    3    3    0  502  0.93302002343E+02  0.18599467160E+02  0.18659773645E+02  0.97040524382E+02  0.41800000000E+01 0. -1.
        -11    1    1    2    0    0 -0.12625008453E+03 -0.40085885095E+01  0.73871217537E+02  0.14632877163E+03  0.00000000000E+00 0. -1.
         11    1    1    2    0    0 -0.33887642355E+02  0.55772071172E+02  0.36880760526E+02  0.74960567795E+02  0.00000000000E+00 0.  1.
</event>
<event>
 7    1  0.2530765E-009  0.3702786E+02  0.7561462E-02  0.1531296E+00
          2   -1    0    0  501    0  0.00000000000E+00  0.00000000000E+00  0.42779148885E+03  0.42779148885E+03  0.00000000000E+00 0. -1.
         -2   -1    0    0    0  501 -0.00000000000E+00 -0.00000000000E+00 -0.43227977994E+02  0.43227977994E+02  0.00000000000E+00 0.  1.
         25    2    1    2    0    0  0.10229193184E+02  0.12602999392E+02  0.34881550068E+03  0.37092348664E+03  0.12509399440E+03 0.  0.
          5    1    3    3  502    0 -0.98466275493E+01  0.11179402570E+02 -0.51912577422E+01  0.16320437275E+02  0.41800000000E+01 0.  1.
         -5    1    3    3    0  502  0.20075820733E+02  0.14235968228E+01  0.35400675842E+03  0.35460304936E+03  0.41800000000E+01 0.  1.
        -11    1    1    2    0    0 -0.54776634277E+01  0.11882839664E+02 -0.28400066070E+02  0.31269320874E+02  0.00000000000E+00 0.  1.
         11    1    1    2    0    0 -0.47515297562E+01 -0.24485839057E+02  0.64148076247E+02  0.68826659337E+02  0.00000000000E+00 0. -1.
</event>
<event>
 7    1  0.2530765E-009  0.8357156E+02  0.7561462E-02  0.1319211E+00
          1   -1    0    0  501    0  0.00000000000E+00  0.00000000000E+00  0.28713499205E+03  0.28713499205E+03  0.00000000000E+00 0. -1.
         -1   -1    0    0    0  501 -0.00000000000E+00 -0.00000000000E+00 -0.71829653815E+02  0.71829653815E+02  0.00000000000E+00 0.  1.
         25    2    1    2    0    0  0.37385492093E+02  0.28052010655E+02  0.15825832826E+02  0.13447369605E+03  0.12509247628E+03 0.  0.
          5    1    3    3  502    0  0.17247320901E+02 -0.31783491426E+02  0.50555140540E+02  0.62297311663E+02  0.41800000000E+01 0.  1.
         -5    1    3    3    0  502  0.20138171191E+02  0.59835502082E+02 -0.34729307713E+02  0.72176384383E+02  0.41800000000E+01 0.  1.
        -11    1    1    2    0    0 -0.35153156371E+02 -0.41185133463E+02  0.20349627388E+03  0.21057704791E+03  0.00000000000E+00 0. -1.
         11    1    1    2    0    0 -0.22323357223E+01  0.13133122807E+02 -0.40167684737E+01  0.13913901912E+02  0.00000000000E+00 0.  1.
</event>
<event>
 7    1  0.5285819E-009  0.9644960E+02  0.7561462E-02  0.1287944E+00
         -2   -1    0    0    0  501 -0.00000000000E+00  0.00000000000E+00  0.23993918394E+02  0.23993918394E+02  0.00000000000E+00 0.  1.
          2   -1    0    0  501    0  0.00000000000E+00 -0.00000000000E+00 -0.65854446655E+03  0.65854446655E+03  0.00000000000E+00 0. -1.
         25    2    1    2    0    0  0.36732828677E+02  0.48855509475E+02 -0.39593095513E+03  0.41969931982E+03  0.12510010520E+03 0.  0.
          5    1    3    3  502    0  0.46899195639E+02 -0.13428793433E+02 -0.30518321436E+03  0.30908596502E+03  0.41800000000E+01 0. -1.
         -5    1    3    3    0  502 -0.10166366962E+02  0.62284302908E+02 -0.90747740769E+02  0.11061335480E+03  0.41800000000E+01 0. -1.
        -11    1    1    2    0    0  0.13714057075E+02 -0.90706957613E+01 -0.76495758025E+00  0.16460195720E+02  0.00000000000E+00 0.  1.
         11    1    1    2    0    0 -0.50446885752E+02 -0.39784813713E+02 -0.23785463545E+03  0.24637886940E+03  0.00000000000E+00 0. -1.
</event>
<event>
 7    1  0.2530765E-009  0.1123554E+03  0.7561462E-02  0.1256269E+00
          2   -1    0    0  501    0  0.00000000000E+00  0.00000000000E+00  0.27689105828E+03  0.27689105828E+03  0.00000000000E+00 0. -1.
         -2   -1    0    0    0  501 -0.00000000000E+00 -0.00000000000E+00 -0.56596665689E+02  0.56596665689E+02  0.00000000000E+00 0.  1.
         25    2    1    2    0    0  0.34447022745E+02 -0.43045279050E+02  0.83709952485E+02  0.16029463237E+03  0.12509004596E+03 0.  0.
          5    1    3    3  502    0 -0.34229175522E+02  0.13634561598E+02 -0.13154720338E+01  0.37104455171E+02  0.41800000000E+01 0.  1.
         -5    1    3    3    0  502  0.68676198267E+02 -0.56679840648E+02  0.85025424519E+02  0.12319017720E+03  0.41800000000E+01 0.  1.
        -11    1    1    2    0    0 -0.31686530486E+02 -0.18624714304E+02  0.21457255586E+02  0.42559722913E+02  0.00000000000E+00 0.  1.
         11    1    1    2    0    0 -0.27604922590E+01  0.61669993354E+02  0.11512718452E+03  0.13063336868E+03  0.00000000000E+00 0. -1.
</event>
<event>
 7    1  0.2530765E-009  0.1336660E+03  0.7561462E-02  0.1222115E+00
          1   -1    0    0  501    0  0.00000000000E+00  0.00000000000E+00  0.14056566042E+03  0.14056566042E+03  0.00000000000E+00 0. -1.
         -1   -1    0    0    0  501 -0.00000000000E+00 -0.00000000000E+00 -0.15821068629E+03  0.15821068629E+03  0.00000000000E+00 0.  1.
         25    2    1    2    0    0 -0.88909074994E+02  0.43875518774E+02  0.17342761349E+02  0.16055354266E+03  0.12508710536E+03 0.  0.
          5    1    3    3  502    0  0.20100361468E+02 -0.17821683562E+02  0.22248301630E+02  0.35129706254E+02  0.41800000000E+01 0.  1.
         -5    1    3    3    0  502 -0.10900943646E+03  0.61697202335E+02 -0.49055402806E+01  0.12542383641E+03  0.41800000000E+01 0.  1.
        -11    1    1    2    0    0  0.32313833476E+02 -0.48230704278E+02 -0.53063272418E+02  0.78651735828E+02  0.00000000000E+00 0.  1.
         11    1    1    2    0    0  0.56595241519E+02  0.43551855041E+01  0.18075485208E+02  0.59571068220E+02  0.00000000000E+00 0. -1.
</event>
<event>
 7    1  0.2530765E-009  0.1205559E+03  0.7561462E-02  0.1242183E+00
         -2   -1    0    0    0  501 -0.00000000000E+00  0.00000000000E+00  0.42985548724E+02  0.42985548724E+02  0.00000000000E+00 0.  1.
          2   -1    0    0  501    0  0.00000000000E+00 -0.00000000000E+00 -0.56355372661E+03  0.56355372661E+03  0.00000000000E+00 0. -1.
         25    2    1    2    0    0  0.67602768065E+02  0.70476941649E+02 -0.24885555634E+03  0.29515012148E+03  0.12508945892E+03 0.  0.
          5    1    3    3  502    0  0.27520730780E+02  0.88135253372E+02 -0.22886450163E+03  0.24682310673E+03  0.41800000000E+01 0.  1.
         -5    1    3    3    0  502  0.40082037285E+02 -0.17658311724E+02 -0.19991054704E+02  0.48327014744E+02  0.41800000000E+01 0.  1.
        -11    1    1    2    0    0 -0.70196747881E+02 -0.55498820439E+02 -0.28008644827E+03  0.29403421737E+03  0.00000000000E+00 0. -1.
         11    1    1    2    0    0  0.25939798166E+01 -0.14978121210E+02  0.83738267220E+01  0.17354936480E+02  0.00000000000E+00 0.  1.
</event>
<event>
 7    1  0.2530765E-009  0.1199671E+03  0.7561462E-02  0.1243151E+00
         -1   -1    0    0    0  501 -0.00000000000E+00  0.00000000000E+00  0.30623270861E+02  0.30623270861E+02  0.00000000000E+00 0.  1.
          1   -1    0    0  501    0  0.00000000000E+00 -0.00000000000E+00 -0.52775465204E+03  0.52775465204E+03  0.00000000000E+00 0. -1.
         25    2    1    2    0    0  0.48759462826E+01 -0.66815693767E+02 -0.24234599345E+03  0.28083158465E+03  0.12508671636E+03 0.  0.
          5    1    3    3  502    0 -0.20990858814E+01  0.36729881260E+02 -0.79226433340E+02  0.87451646518E+02  0.41800000000E+01 0.  1.
         -5    1    3    3    0  502  0.69750321640E+01 -0.10354557503E+03 -0.16311956011E+03  0.19337993813E+03  0.41800000000E+01 0.  1.
        -11    1    1    2    0    0 -0.33588708713E+02  0.61163460820E+02 -0.22588422172E+03  0.23641669128E+03  0.00000000000E+00 0. -1.
         11    1    1    2    0    0  0.28712762430E+02  0.56522329472E+01 -0.28901166015E+02  0.41129646980E+02  0.00000000000E+00 0.  1.
</event>
<event>
 7    1  0.2530765E-009  0.1097194E+03  0.7561462E-02  0.1261090E+00
          1   -1    0    0  501    0  0.00000000000E+00  0.00000000000E+00  0.37948196901E+03  0.37948196901E+03  0.00000000000E+00 0. -1.
         -1   -1    0    0    0  501 -0.00000000000E+00 -0.00000000000E+00 -0.42552915319E+02  0.42552915319E+02  0.00000000000E+00 0.  1.
         25    2    1    2    0    0 -0.33144252433E+02  0.22333545242E+02  0.27255826842E+03  0.30254396653E+03  0.12509002074E+03 0.  0.
          5    1    3    3  502    0  0.77759131407E+00 -0.50314590881E+02  0.11882609958E+03  0.12910955443E+03  0.41800000000E+01 0. -1.
         -5    1    3    3    0  502 -0.33921843747E+02  0.72648136123E+02  0.15373216884E+03  0.17343441211E+03  0.41800000000E+01 0. -1.
        -11    1    1    2    0    0 -0.25951045095E+02 -0.12295806786E+02 -0.35125963811E+01  0.28930640148E+02  0.00000000000E+00 0.  1.
         11    1    1    2    0    0  0.59095297528E+02 -0.10037738456E+02  0.67883381655E+02  0.90560277651E+02  0.00000000000E+00 0. -1.
</event>
<event>
 7    1  0.2530765E-009  0.1330948E+03  0.7561462E-02  0.1222935E+00
         -2   -1    0    0    0  501 -0.00000000000E+00  0.00000000000E+00  0.41822629656E+02  0.41822629656E+02  0.00000000000E+00 0. -1.
          2   -1    0    0  501    0  0.00000000000E+00 -0.00000000000E+00 -0.45545060848E+03  0.45545060848E+03  0.00000000000E+00 0.  1.
         25    2    1    2    0    0  0.79781763463E+02 -0.14571326401E+02 -0.24738590051E+03  0.28883464874E+03  0.12509283435E+03 0.  0.
          5    1    3    3  502    0 -0.91640317549E+01 -0.48500624223E+02 -0.54200051852E+02  0.73426208188E+02  0.41800000000E+01 0.  1.
         -5    1    3    3    0  502  0.88945795218E+02  0.33929297822E+02 -0.19318584866E+03  0.21540844055E+03  0.41800000000E+01 0.  1.
        -11    1    1    2    0    0 -0.55854846613E+01 -0.32841713179E+02 -0.23663072040E+02  0.40862167610E+02  0.00000000000E+00 0. -1.
         11    1    1    2    0    0 -0.74196278801E+02  0.47413039580E+02 -0.14257900628E+03  0.16757642179E+03  0.00000000000E+00 0.  1.
</event>
<event>
 7    1  0.2530765E-009  0.1064214E+03  0.7561462E-02  0.1267344E+00
         -2   -1    0    0    0  501 -0.00000000000E+00  0.00000000000E+00  0.36442420268E+02  0.36442420268E+02  0.00000000000E+00 0.  1.
          2   -1    0    0  501    0  0.00000000000E+00 -0.00000000000E+00 -0.38568470633E+03  0.38568470633E+03  0.00000000000E+00 0. -1.
         25    2    1    2    0    0 -0.41640791466E+02 -0.20302497395E+02 -0.17270588860E+03  0.21822236744E+03  0.12509009065E+03 0.  0.
          5    1    3    3  502    0 -0.66201958710E+02  0.14792371720E+02 -0.15922217648E+03  0.17312044212E+03  0.41800000000E+01 0.  1.
         -5    1    3    3    0  502  0.24561167244E+02 -0.35094869116E+02 -0.13483712121E+02  0.45101925316E+02  0.41800000000E+01 0.  1.
        -11    1    1    2    0    0  0.12428554063E+02 -0.36177677651E+02 -0.72560274367E+02  0.82026134449E+02  0.00000000000E+00 0. -1.
         11    1    1    2    0    0  0.29212237403E+02  0.56480175047E+02 -0.10397612309E+03  0.12187862471E+03  0.00000000000E+00 0.  1.
</event>
<event>
 7    1  0.3535602E-009  0.1202405E+03  0.7561462E-02  0.1242701E+00
          1   -1    0    0  501    0  0.00000000000E+00  0.00000000000E+00  0.12471620447E+03  0.12471620447E+03  0.00000000000E+00 0. -1.
         -1   -1    0    0    0  501 -0.00000000000E+00 -0.00000000000E+00 -0.14884356217E+03  0.14884356217E+03  0.00000000000E+00 0.  1.
         25    2    1    2    0    0  0.63824862604E+02 -0.51540608041E+02 -0.13638280283E+02  0.15020797173E+03  0.12508550963E+03 0.  0.
          5    1    3    3  502    0  0.47716350530E+02  0.28252764285E+02  0.23826373182E+02  0.60499894683E+02  0.41800000000E+01 0. -1.
         -5    1    3    3    0  502  0.16108512073E+02 -0.79793372326E+02 -0.37464653465E+02  0.89708077048E+02  0.41800000000E+01 0. -1.
        -11    1    1    2    0    0  0.11714346789E+02 -0.34230926232E+00 -0.27728800737E+02  0.30103645737E+02  0.00000000000E+00 0.  1.
         11    1    1    2    0    0 -0.75539209392E+02  0.51882917303E+02  0.17239723316E+02  0.93248149169E+02  0.00000000000E+00 0. -1.
</event>
<event>
 7    1  0.2530765E-009  0.1055168E+03  0.7561462E-02  0.1269105E+00
         -2   -1    0    0    0  501 -0.00000000000E+00  0.00000000000E+00  0.58149703477E+03  0.58149703477E+03  0.00000000000E+00 0. -1.
          2   -1    0    0  501    0  0.00000000000E+00 -0.00000000000E+00 -0.37914480807E+02  0.37914480807E+02  0.00000000000E+00 0.  1.
         25    2    1    2    0    0 -0.73474880146E+02 -0.24724328613E+02  0.15831718573E+03  0.21615230990E+03  0.12509052459E+03 0.  0.
          5    1    3    3  502    0  0.11793427682E+02  0.14444115872E+02 -0.11346251233E+02  0.22224473826E+02  0.41800000000E+01 0. -1.
         -5    1    3    3    0  502 -0.85268307828E+02 -0.39168444484E+02  0.16966343696E+03  0.19392783608E+03  0.41800000000E+01 0. -1.
        -11    1    1    2    0    0  0.51036670015E+01 -0.17101219670E+02  0.12048037255E+02  0.21532634134E+02  0.00000000000E+00 0.  1.
         11    1    1    2    0    0  0.68371213145E+02  0.41825548283E+02  0.37321733097E+03  0.38172657153E+03  0.00000000000E+00 0. -1.
</event>
<event>
 7    1  0.2530765E-009  0.1633866E+03  0.7561462E-02  0.1184926E+00
         -2   -1    0    0    0  501 -0.00000000000E+00  0.00000000000E+00  0.45991885198E+03  0.45991885198E+03  0.00000000000E+00 0.  1.
          2   -1    0    0  501    0  0.00000000000E+00 -0.00000000000E+00 -0.78063364935E+02  0.78063364935E+02  0.00000000000E+00 0. -1.
         25    2    1    2    0    0  0.11931205045E+03 -0.50773137482E+02  0.80554769489E+02  0.19735665764E+03  0.12508917841E+03 0.  0.
          5    1    3    3  502    0 -0.18769769019E+02 -0.36537611662E+02  0.18008512687E+02  0.45045313010E+02  0.41800000000E+01 0. -1.
         -5    1    3    3    0  502  0.13808181947E+03 -0.14235525820E+02  0.62546256802E+02  0.15231134463E+03  0.41800000000E+01 0. -1.
        -11    1    1    2    0    0 -0.89226469268E+02  0.67776878822E+02  0.16114509695E+03  0.19627228636E+03  0.00000000000E+00 0.  1.
         11    1    1    2    0    0 -0.30085581183E+02 -0.17003741339E+02  0.14015562060E+03  0.14435327291E+03  0.00000000000E+00 0. -1.
</event>
<event>
 7    1  0.4159028E-009  0.1001168E+03  0.7561462E-02  0.1280050E+00
          2   -1    0    0  501    0  0.00000000000E+00  0.00000000000E+00  0.21436784729E+04  0.21436784729E+04  0.00000000000E+00 0. -1.
         -2   -1    0    0    0  501 -0.00000000000E+00 -0.00000000000E+00 -0.72490923734E+01  0.72490923734E+01  0.00000000000E+00 0.  1.
         25    2    1    2    0    0 -0.12823360692E+02  0.41470852199E+02  0.15711143924E+04  0.15766840195E+04  0.12509113925E+03 0.  0.
          5    1    3    3  502    0  0.13275531025E+02 -0.24567579544E+02  0.10164424821E+03  0.10549327601E+03  0.41800000000E+01 0.  1.
         -5    1    3    3    0  502 -0.26098891717E+02  0.66038431743E+02  0.14694701442E+04  0.14711907435E+04  0.41800000000E+01 0.  1.
        -11    1    1    2    0    0 -0.38477933552E+02 -0.28690162093E+02  0.26668271521E+03  0.27096742860E+03  0.00000000000E+00 0.  1.
         11    1    1    2    0    0  0.51301294244E+02 -0.12780690106E+02  0.29863227290E+03  0.30327611717E+03  0.00000000000E+00 0. -1.
</event>
<event>
 7    1  0.2530765E-009  0.1168929E+03  0.7561462E-02  0.1248313E+00
          1   -1    0    0  501    0  0.00000000000E+00  0.00000000000E+00  0.23477068057E+02  0.23477068057E+02  0.00000000000E+00 0. -1.
         -1   -1    0    0    0  501 -0.00000000000E+00 -0.00000000000E+00 -0.92927743331E+03  0.92927743331E+03  0.00000000000E+00 0.  1.
         25    2    1    2    0    0 -0.73985671529E+01  0.10079460633E+03 -0.49792145789E+03  0.52324733344E+03  0.12509077610E+03 0.  0.
          5    1    3    3  502    0 -0.89243813590E+01  0.87638015884E+02 -0.14268533205E+03  0.16773980683E+03  0.41800000000E+01 0.  1.
         -5    1    3    3    0  502  0.15258142061E+01  0.13156590450E+02 -0.35523612583E+03  0.35550752661E+03  0.41800000000E+01 0.  1.
        -11    1    1    2    0    0  0.17042066472E+02  0.10485534557E+02 -0.10025886273E+03  0.10223608962E+03  0.00000000000E+00 0. -1.
         11    1    1    2    0    0 -0.96434993193E+01 -0.11128014089E+03 -0.30762004463E+03  0.32727107831E+03  0.00000000000E+00 0.  1.
</event>
<event>
 7    1  0.2530765E-009  0.9032198E+02  0.7561462E-02  0.1302074E+00
          2   -1    0    0  501    0  0.00000000000E+00  0.00000000000E+00  0.89546081042E+03  0.89546081042E+03  0.00000000000E+00 0.  1.
         -2   -1    0    0    0  501 -0.00000000000E+00 -0.00000000000E+00 -0.18653709053E+02  0.18653709053E+02  0.00000000000E+00 0. -1.
         25    2    1    2    0    0 -0.61344275858E+02  0.26257713560E+02  0.39115207768E+03  0.41605191300E+03  0.12508660497E+03 0.  0.
          5    1    3    3  502    0 -0.35105137678E+02  0.33315428916E+01  0.15468243545E+02  0.38732529323E+02  0.41800000000E+01 0. -1.
         -5    1    3    3    0  502 -0.26239138180E+02  0.22926170669E+02  0.37568383413E+03  0.37731938368E+03  0.41800000000E+01 0. -1.
        -11    1    1    2    0    0  0.83459183923E+02 -0.13602049299E+02  0.35344150212E+03  0.36341621669E+03  0.00000000000E+00 0. -1.
         11    1    1    2    0    0 -0.22114908065E+02 -0.12655664261E+02  0.13221352157E+03  0.13464638979E+03  0.00000000000E+00 0.  1.
</event>
<event>
 7    1  0.2530765E-009  0.3071823E+03  0.7561462E-02  0.1081704E+00
         -2   -1    0    0    0  501 -0.00000000000E+00  0.00000000000E+00  0.11521918136E+03  0.11521918136E+03  0.00000000000E+00 0.  1.
          2   -1    0    0  501    0  0.00000000000E+00 -0.00000000000E+00 -0.12321687890E+04  0.12321687890E+04  0.00000000000E+00 0. -1.
         25    2    1    2    0    0  0.13578349225E+02 -0.29150578250E+03 -0.94419214483E+03  0.99614492630E+03  0.12508363215E+03 0.  0.
          5    1    3    3  502    0  0.64068364907E+02 -0.13703997907E+03 -0.38081767152E+03  0.40978565444E+03  0.41800000000E+01 0. -1.
         -5    1    3    3    0  502 -0.50490015682E+02 -0.15446580343E+03 -0.56337447331E+03  0.58635927186E+03  0.41800000000E+01 0. -1.
        -11    1    1    2    0    0  0.24509382932E+02  0.46933572641E+02 -0.71440497369E+01  0.53427591553E+02  0.00000000000E+00 0.  1.
         11    1    1    2    0    0 -0.38087732157E+02  0.24457220986E+03 -0.16561341312E+03  0.29781545255E+03  0.00000000000E+00 0. -1.
</event>
<event>
 7    1  0.3613623E-009  0.1193719E+03  0.7561462E-02  0.1244137E+00
          3   -1    0    0  501    0  0.00000000000E+00  0.00000000000E+00  0.30949442356E+03  0.30949442356E+03  0.00000000000E+00 0. -1.
         -3   -1    0    0    0  501 -0.00000000000E+00 -0.00000000000E+00 -0.69775771000E+02  0.69775771000E+02  0.00000000000E+00 0.  1.
         25    2    1    2    0    0  0.18708037316E+02  0.93435895852E+02  0.95933355747E+02  0.18421053981E+03  0.12510018760E+03 0.  0.
          5    1    3    3  502    0 -0.39482965528E+02  0.70042057890E+02  0.15268727038E+02  0.81947549480E+02  0.41800000000E+01 0. -1.
         -5    1    3    3    0  502  0.58191002845E+02  0.23393837962E+02  0.80664628709E+02  0.10226299033E+03  0.41800000000E+01 0. -1.
        -11    1    1    2    0    0 -0.15553918736E+02 -0.68708439556E+02  0.26678902916E+02  0.75329528839E+02  0.00000000000E+00 0.  1.
         11    1    1    2    0    0 -0.31541185803E+01 -0.24727456295E+02  0.11710639390E+03  0.11973012591E+03  0.00000000000E+00 0. -1.
</event>
<event>
 7    1  0.2530765E-009  0.1315549E+03  0.7561462E-02  0.1225167E+00
          2   -1    0    0  501    0  0.00000000000E+00  0.00000000000E+00  0.16596750959E+03  0.16596750959E+03  0.00000000000E+00 0. -1.
         -2   -1    0    0    0  501 -0.00000000000E+00 -0.00000000000E+00 -0.16915505293E+03  0.16915505293E+03  0.00000000000E+00 0.  1.
         25    2    1    2    0    0 -0.65613119023E+02  0.94752330012E+02  0.54169319742E+02  0.17850499475E+03  0.12508650014E+03 0.  0.
          5    1    3    3  502    0 -0.87527467411E+02  0.58758407000E+02  0.76794106654E+02  0.13049296978E+03  0.41800000000E+01 0.  1.
         -5    1    3    3    0  502  0.21914348388E+02  0.35993923012E+02 -0.22624786911E+02  0.48012024971E+02  0.41800000000E+01 0.  1.
        -11    1    1    2    0    0  0.24735854887E+02 -0.34677962829E+02 -0.70892021332E+02  0.82704911048E+02  0.00000000000E+00 0.  1.
         11    1    1    2    0    0  0.40877264136E+02 -0.60074367183E+02  0.13535158254E+02  0.73912656728E+02  0.00000000000E+00 0. -1.
</event>
<event>
 7    1  0.2530765E-009  0.2105118E+03  0.7561462E-02  0.1141161E+00
          2   -1    0    0  501    0  0.00000000000E+00  0.00000000000E+00  0.55794918760E+03  0.55794918760E+03  0.00000000000E+00 0. -1.
         -2   -1    0    0    0  501 -0.00000000000E+00 -0.00000000000E+00 -0.10687787322E+03  0.10687787322E+03  0.00000000000E+00 0.  1.
         25    2    1    2    0    0  0.45258028139E+01  0.18351628969E+03  0.71569953171E+02  0.23338587819E+03  0.12509196005E+03 0.  0.
          5    1    3    3  502    0  0.34587766922E+02  0.53733768279E+01 -0.76537785728E+01  0.36072697787E+02  0.41800000000E+01 0. -1.
         -5    1    3    3    0  502 -0.30061964108E+02  0.17814291287E+03  0.79223731744E+02  0.19731318041E+03  0.41800000000E+01 0. -1.
        -11    1    1    2    0    0  0.43269598389E+02 -0.77264945373E+02  0.15523682307E+03  0.17871933630E+03  0.00000000000E+00 0.  1.
         11    1    1    2    0    0 -0.47795401203E+02 -0.10625134432E+03  0.22426453814E+03  0.25272184633E+03  0.00000000000E+00 0. -1.
</event>
<event>
 7    1  0.2530765E-009  0.1176893E+03  0.7561462E-02  0.1246958E+00
          2   -1    0    0  501    0  0.00000000000E+00  0.00000000000E+00  0.27661328211E+03  0.27661328211E+03  0.00000000000E+00 0. -1.
         -2   -1    0    0    0  501 -0.00000000000E+00 -0.00000000000E+00 -0.74444154466E+02  0.74444154466E+02  0.00000000000E+00 0.  1.
         25    2    1    2    0    0  0.76220920583E+02 -0.40646838074E+01  0.43672847576E+02  0.15291345890E+03  0.12509619461E+03 0.  0.
          5    1    3    3  502    0 -0.20030561929E+02 -0.16881924517E+02 -0.22952502642E+02  0.35078662520E+02  0.41800000000E+01 0. -1.
         -5    1    3    3    0  502  0.96251482513E+02  0.12817240710E+02  0.66625350219E+02  0.11783479638E+03  0.41800000000E+01 0. -1.
        -11    1    1    2    0    0 -0.93014884519E+02  0.10647391289E+02  0.15284883416E+03  0.17924257805E+03  0.00000000000E+00 0. -1.
         11    1    1    2    0    0  0.16793963935E+02 -0.65827074821E+01  0.56474459042E+01  0.18901399623E+02  0.00000000000E+00 0.  1.
</event>
<event>
 7    1  0.2530765E-009  0.9675627E+02  0.7561462E-02  0.1287269E+00
          1   -1    0    0  501    0  0.00000000000E+00  0.00000000000E+00  0.90601624454E+03  0.90601624454E+03  0.00000000000E+00 0. -1.
         -1   -1    0    0    0  501 -0.00000000000E+00 -0.00000000000E+00 -0.18861391473E+02  0.18861391473E+02  0.00000000000E+00 0.  1.
         25    2    1    2    0    0 -0.39213623512E+01  0.72304259384E+02  0.46059081500E+03  0.48273670601E+03  0.12509014934E+03 0.  0.
          5    1    3    3  502    0  0.76146296149E+01  0.37413410172E+01  0.36145324498E+03  0.36157696404E+03  0.41800000000E+01 0. -1.
         -5    1    3    3    0  502 -0.11535991966E+02  0.68562918367E+02  0.99137570016E+02  0.12115974197E+03  0.41800000000E+01 0. -1.
        -11    1    1    2    0    0 -0.20659834223E+02 -0.84481034695E+02  0.28624571512E+03  0.29916631394E+03  0.00000000000E+00 0. -1.
         11    1    1    2    0    0  0.24581196574E+02  0.12176775311E+02  0.14031832295E+03  0.14297461606E+03  0.00000000000E+00 0.  1.
</event>
<event>
 7    1  0.2579875E-009  0.1435450E+03  0.7561462E-02  0.1208637E+00
         -1   -1    0    0    0  501 -0.00000000000E+00  0.00000000000E+00  0.27369076068E+02  0.27369076068E+02  0.00000000000E+00 0.  1.
          1   -1    0    0  501    0  0.00000000000E+00 -0.00000000000E+00 -0.11348821957E+04  0.11348821957E+04  0.00000000000E+00 0. -1.
         25    2    1    2    0    0  0.12719788106E+03  0.23726869772E+01 -0.76913060920E+03  0.78955322081E+03  0.12508982330E+03 0.  0.
          5    1    3    3  502    0  0.84251862387E+02 -0.37726706223E+02 -0.65126250622E+03  0.65778568325E+03  0.41800000000E+01 0. -1.
         -5    1    3    3    0  502  0.42946018672E+02  0.40099393200E+02 -0.11786810297E+03  0.13176753756E+03  0.41800000000E+01 0. -1.
        -11    1    1    2    0    0 -0.41105855483E+02  0.21565572902E+02 -0.21735726802E+03  0.22225873942E+03  0.00000000000E+00 0.  1.
         11    1    1    2    0    0 -0.86092025576E+02 -0.23938259880E+02 -0.12102524241E+03  0.15043931154E+03  0.00000000000E+00 0. -1.
</event>
<event>
 7    1  0.2530765E-009  0.1255035E+03  0.7561462E-02  0.1234285E+00
         -2   -1    0    0    0  501 -0.00000000000E+00  0.00000000000E+00  0.82009208437E+02  0.82009208437E+02  0.00000000000E+00 0.  1.
          2   -1    0    0  501    0  0.00000000000E+00 -0.00000000000E+00 -0.30158948825E+03  0.30158948825E+03  0.00000000000E+00 0. -1.
         25    2    1    2    0    0  0.84415327018E+02  0.49825807659E+02 -0.46603949127E+02  0.16561028358E+03  0.12508508868E+03 0.  0.
          5    1    3    3  502    0 -0.18210194727E+02 -0.20571985841E+02 -0.28455327197E+02  0.39774311299E+02  0.41800000000E+01 0. -1.
         -5    1    3    3    0  502  0.10262552174E+03  0.70397793500E+02 -0.18148621930E+02  0.12583597229E+03  0.41800000000E+01 0. -1.
        -11    1    1    2    0    0 -0.17327050580E+02 -0.15906003193E+02  0.56480276555E+01  0.24189415780E+02  0.00000000000E+00 0.  1.
         11    1    1    2    0    0 -0.67088276438E+02 -0.33919804467E+02 -0.17862435834E+03  0.19379899732E+03  0.00000000000E+00 0. -1.
</event>
<event>
 7    1  0.2530765E-009  0.1047098E+03  0.7561462E-02  0.1270693E+00
         -1   -1    0    0    0  501 -0.00000000000E+00  0.00000000000E+00  0.46710706302E+03  0.46710706302E+03  0.00000000000E+00 0.  1.
          1   -1    0    0  501    0  0.00000000000E+00 -0.00000000000E+00 -0.57130995580E+02  0.57130995580E+02  0.00000000000E+00 0. -1.
         25    2    1    2    0    0 -0.60047561125E+02 -0.78474524978E+01  0.49220508379E+02  0.14743826225E+03  0.12509232840E+03 0.  0.
          5    1    3    3  502    0  0.51333275376E+00 -0.44037343898E+02  0.61446576830E+02  0.75714631163E+02  0.41800000000E+01 0. -1.
         -5    1    3    3    0  502 -0.60560893879E+02  0.36189891401E+02 -0.12226068451E+02  0.71723631090E+02  0.41800000000E+01 0. -1.
        -11    1    1    2    0    0  0.24286538341E+02  0.39751360343E+02  0.85157463368E+02  0.97065957786E+02  0.00000000000E+00 0. -1.
         11    1    1    2    0    0  0.35761022784E+02 -0.31903907845E+02  0.27559809570E+03  0.27973383856E+03  0.00000000000E+00 0.  1.
</event>
<event>
 7    1  0.2530765E-009  0.1520374E+03  0.7561462E-02  0.1197992E+00
          4   -1    0    0  501    0  0.00000000000E+00  0.00000000000E+00  0.89128352215E+03  0.89128352215E+03  0.00000000000E+00 0. -1.
         -4   -1    0    0    0  501 -0.00000000000E+00 -0.00000000000E+00 -0.31964314782E+02  0.31964314782E+02  0.00000000000E+00 0.  1.
         25    2    1    2    0    0 -0.12864793605E+03 -0.16267233079E+02  0.44333799338E+03  0.47854979369E+03  0.12508562806E+03 0.  0.
          5    1    3    3  502    0 -0.30100541008E+02 -0.35467501493E+02  0.29930584164E+03  0.30292811932E+03  0.41800000000E+01 0.  1.
         -5    1    3    3    0  502 -0.98547395041E+02  0.19200268414E+02  0.14403215174E+03  0.17562167437E+03  0.41800000000E+01 0.  1.
        -11    1    1    2    0    0  0.10395846626E+03 -0.26694068004E+02  0.27084454990E+03  0.29133607086E+03  0.00000000000E+00 0.  1.
         11    1    1    2    0    0  0.24689469790E+02  0.42961301083E+02  0.14513666408E+03  0.15336197238E+03  0.00000000000E+00 0. -1.
</event>
<event>
 7    1  0.2530765E-009  0.1476177E+03  0.7561462E-02  0.1203431E+00
         -1   -1    0    0    0  501 -0.00000000000E+00  0.00000000000E+00  0.58998539730E+02  0.58998539730E+02  0.00000000000E+00 0.  1.
          1   -1    0    0  501    0  0.00000000000E+00 -0.00000000000E+00 -0.54495668578E+03  0.54495668578E+03  0.00000000000E+00 0. -1.
         25    2    1    2    0    0 -0.11359000766E+03 -0.70242967087E+02 -0.17187943183E+03  0.25105132605E+03  0.12508982756E+03 0.  0.
          5    1    3    3  502    0 -0.41978603732E+02 -0.14663784881E+02 -0.15163463210E+03  0.15807518404E+03  0.41800000000E+01 0.  1.
         -5    1    3    3    0  502 -0.71611403931E+02 -0.55579182206E+02 -0.20244799739E+02  0.92976142015E+02  0.41800000000E+01 0.  1.
        -11    1    1    2    0    0  0.21219002693E+00  0.43290031129E+02 -0.10432936697E+03  0.11295436527E+03  0.00000000000E+00 0.  1.
         11    1    1    2    0    0  0.11337781764E+03  0.26952935958E+02 -0.20974934725E+03  0.23994953419E+03  0.00000000000E+00 0. -1.
</event>
<event>
 7    1  0.2530765E-009  0.1274378E+03  0.7561462E-02  0.1231308E+00
         -4   -1    0    0    0  501 -0.00000000000E+00  0.00000000000E+00  0.12769346120E+03  0.12769346120E+03  0.00000000000E+00 0.  1.
          4   -1    0    0  501    0  0.00000000000E+00 -0.00000000000E+00 -0.19759045869E+03  0.19759045869E+03  0.00000000000E+00 0. -1.
         25    2    1    2    0    0  0.11146488492E+03  0.40314480794E+02 -0.67727939720E+02  0.18516086309E+03  0.12509114065E+03 0.  0.
          5    1    3    3  502    0  0.43515005105E+02  0.49064142811E+02 -0.91385930732E+02  0.11255979084E+03  0.41800000000E+01 0.  1.
         -5    1    3    3    0  502  0.67949879818E+02 -0.87496620173E+01  0.23657991012E+02  0.72601072247E+02  0.41800000000E+01 0.  1.
        -11    1    1    2    0    0 -0.36735715983E+02 -0.24451411349E+02 -0.35634409043E+02  0.56720326635E+02  0.00000000000E+00 0.  1.
         11    1    1    2    0    0 -0.74729168940E+02 -0.15863069445E+02  0.33465351270E+02  0.83402730161E+02  0.00000000000E+00 0. -1.
</event>
<event>
 7    1  0.2530765E-009  0.7756261E+02  0.7561462E-02  0.1336114E+00
         -1   -1    0    0    0  501 -0.00000000000E+00  0.00000000000E+00  0.27622408437E+03  0.27622408437E+03  0.00000000000E+00 0. -1.
          1   -1    0    0  501    0  0.00000000000E+00 -0.00000000000E+00 -0.67984046601E+02  0.67984046601E+02  0.00000000000E+00 0.  1.
         25    2    1    2    0    0 -0.18430734731E+02 -0.60104174368E+02  0.18111906347E+03  0.22891860337E+03  0.12508960011E+03 0.  0.
          5    1    3    3  502    0  0.24080960153E+01 -0.48134171701E+02  0.22856495767E+01  0.48429268070E+02  0.41800000000E+01 0. -1.
         -5    1    3    3    0  502 -0.20838830746E+02 -0.11970002667E+02  0.17883341390E+03  0.18048933530E+03  0.41800000000E+01 0. -1.
        -11    1    1    2    0    0  0.35871510075E+02  0.26851339067E+02  0.53212551918E+02  0.69565331354E+02  0.00000000000E+00 0. -1.
         11    1    1    2    0    0 -0.17440775344E+02  0.33252835301E+02 -0.26091577620E+02  0.45724196252E+02  0.00000000000E+00 0.  1.
</event>
<event>
 7    1  0.2530765E-009  0.1540252E+03  0.7561462E-02  0.1195612E+00
          1   -1    0    0  501    0  0.00000000000E+00  0.00000000000E+00  0.10869292834E+03  0.10869292834E+03  0.00000000000E+00 0. -1.
         -1   -1    0    0    0  501 -0.00000000000E+00 -0.00000000000E+00 -0.34757169687E+03  0.34757169687E+03  0.00000000000E+00 0.  1.
         25    2    1    2    0    0 -0.31364059450E+02  0.10988076282E+03 -0.25756842678E+03  0.30829598390E+03  0.12508969962E+03 0.  0.
          5    1    3    3  502    0 -0.75114121323E+02  0.79250656800E+02 -0.20966734557E+03  0.23643321684E+03  0.41800000000E+01 0.  1.
         -5    1    3    3    0  502  0.43750061873E+02  0.30630106023E+02 -0.47901081211E+02  0.71862767064E+02  0.41800000000E+01 0.  1.
        -11    1    1    2    0    0 -0.17603957328E+02 -0.91063899644E+02  0.14892316670E+01  0.92761796786E+02  0.00000000000E+00 0. -1.
         11    1    1    2    0    0  0.48968016778E+02 -0.18816863179E+02  0.17200426586E+02  0.55206844520E+02  0.00000000000E+00 0.  1.
</event>
<event>
 7    1  0.2530765E-009  0.1172396E+03  0.7561462E-02  0.1247722E+00
         -4   -1    0    0    0  501 -0.00000000000E+00  0.00000000000E+00  0.36324896023E+02  0.36324896023E+02  0.00000000000E+00 0.  1.
          4   -1    0    0  501    0  0.00000000000E+00 -0.00000000000E+00 -0.59714827937E+03  0.59714827937E+03  0.00000000000E+00 0. -1.
         25    2    1    2    0    0  0.24124557094E+02  0.42946343280E+02 -0.11841395570E+03  0.17915193253E+03  0.12508863804E+03 0.  0.
          5    1    3    3  502    0 -0.37358945468E+02 -0.22923119028E+02 -0.43553964438E+02  0.61932062865E+02  0.41800000000E+01 0. -1.
         -5    1    3    3    0  502  0.61483502562E+02  0.65869462308E+02 -0.74859991263E+02  0.11721986966E+03  0.41800000000E+01 0. -1.
        -11    1    1    2    0    0 -0.13790515664E+02  0.26586515686E+02 -0.86565405665E+02  0.91600167011E+02  0.00000000000E+00 0.  1.
         11    1    1    2    0    0 -0.10334041430E+02 -0.69532858966E+02 -0.35584402198E+03  0.36272107585E+03  0.00000000000E+00 0. -1.
</event>
<event>
 7    1  0.2530765E-009  0.8144110E+02  0.7561462E-02  0.1325011E+00
          2   -1    0    0  501    0  0.00000000000E+00  0.00000000000E+00  0.83227325026E+03  0.83227325026E+03  0.00000000000E+00 0. -1.
         -2   -1    0    0    0  501 -0.00000000000E+00 -0.00000000000E+00 -0.15103717973E+02  0.15103717973E+02  0.00000000000E+00 0.  1.
         25    2    1    2    0    0 -0.12683854770E+02  0.16156125295E+02  0.39391887185E+03  0.41381173330E+03  0.12508466120E+03 0.  0.
          5    1    3    3  502    0  0.16865191938E+02  0.32075003381E+02  0.37137837432E+03  0.37316566007E+03  0.41800000000E+01 0.  1.
         -5    1    3    3    0  502 -0.29549046708E+02 -0.15918878086E+02  0.22540497525E+02  0.40646073237E+02  0.41800000000E+01 0.  1.
        -11    1    1    2    0    0  0.36957390825E+02 -0.42792393120E+02  0.22033203980E+03  0.22747141668E+03  0.00000000000E+00 0. -1.
         11    1    1    2    0    0 -0.24273536055E+02  0.26636267825E+02  0.20291862064E+03  0.20609381825E+03  0.00000000000E+00 0.  1.
</event>
<event>
 7    1  0.2530765E-009  0.1281485E+03  0.7561462E-02  0.1230229E+00
          2   -1    0    0  501    0  0.00000000000E+00  0.00000000000E+00  0.39122128008E+03  0.39122128008E+03  0.00000000000E+00 0. -1.
         -2   -1    0    0    0  501 -0.00000000000E+00 -0.00000000000E+00 -0.83614065786E+02  0.83614065786E+02  0.00000000000E+00 0.  1.
         25    2    1    2    0    0  0.95549958330E+02  0.51756195769E+02  0.28667509419E+03  0.33111562065E+03  0.12508575567E+03 0.  0.
          5    1    3    3  502    0  0.33376921474E+02  0.57028530356E+02  0.41614577374E+02  0.78201774990E+02  0.41800000000E+01 0. -1.
         -5    1    3    3    0  502  0.62173036856E+02 -0.52723345866E+01  0.24506051682E+03  0.25291384566E+03  0.41800000000E+01 0. -1.
        -11    1    1    2    0    0 -0.14491396232E+02 -0.43762414456E+02  0.38889379458E+02  0.60311966627E+02  0.00000000000E+00 0. -1.
         11    1    1    2    0    0 -0.81058562099E+02 -0.79937813133E+01 -0.17957259355E+02  0.83407758588E+02  0.00000000000E+00 0.  1.
</event>
<event>
 7    1  0.2530765E-009  0.1129171E+03  0.7561462E-02  0.1255261E+00
         -2   -1    0    0    0  501 -0.00000000000E+00  0.00000000000E+00  0.26584039747E+03  0.26584039747E+03  0.00000000000E+00 0. -1.
          2   -1    0    0  501    0  0.00000000000E+00 -0.00000000000E+00 -0.17280898300E+03  0.17280898300E+03  0.00000000000E+00 0.  1.
         25    2    1    2    0    0 -0.80023115245E+02  0.51617600565E+02 -0.11343905142E+03  0.19386621445E+03  0.12509042751E+03 0.  0.
          5    1    3    3  502    0 -0.38027879496E+02  0.35609475998E+02 -0.13432248089E+03  0.14413242408E+03  0.41800000000E+01 0. -1.
         -5    1    3    3    0  502 -0.41995235749E+02  0.16008124567E+02  0.20883429466E+02  0.49733790365E+02  0.41800000000E+01 0. -1.
        -11    1    1    2    0    0  0.91230266195E+02 -0.17990959681E+02  0.17094649217E+03  0.19460046065E+03  0.00000000000E+00 0. -1.
         11    1    1    2    0    0 -0.11207150950E+02 -0.33626640884E+02  0.35523973721E+02  0.50182705372E+02  0.00000000000E+00 0.  1.
</event>
<event>
 7    1  0.2530765E-009  0.1302385E+03  0.7561462E-02  0.1227102E+00
         -1   -1    0    0    0  501 -0.00000000000E+00  0.00000000000E+00  0.74911596960E+03  0.74911596960E+03  0.00000000000E+00 0.  1.
          1   -1    0    0  501    0  0.00000000000E+00 -0.00000000000E+00 -0.33509697096E+02  0.33509697096E+02  0.00000000000E+00 0. -1.
         25    2    1    2    0    0  0.89652659397E+01  0.11395811117E+03  0.41623784322E+03  0.44940907190E+03  0.12509094565E+03 0.  0.
          5    1    3    3  502    0  0.20207579446E+02  0.11189125191E+03  0.42117657069E+03  0.43627419660E+03  0.41800000000E+01 0. -1.
         -5    1    3    3    0  502 -0.11242313506E+02  0.20668592555E+01 -0.49387274679E+01  0.13134875300E+02  0.41800000000E+01 0. -1.
        -11    1    1    2    0    0  0.31017755028E+02 -0.57702734521E+02  0.80859248974E+02  0.10406692483E+03  0.00000000000E+00 0. -1.
         11    1    1    2    0    0 -0.39983020968E+02 -0.56255376648E+02  0.21850918031E+03  0.22914966997E+03  0.00000000000E+00 0.  1.
</event>
<event>
 7    1  0.2530765E-009  0.1550630E+03  0.7561462E-02  0.1194386E+00
         -2   -1    0    0    0  501 -0.00000000000E+00  0.00000000000E+00  0.31695304368E+02  0.31695304368E+02  0.00000000000E+00 0.  1.
          2   -1    0    0  501    0  0.00000000000E+00 -0.00000000000E+00 -0.92103220126E+03  0.92103220126E+03  0.00000000000E+00 0. -1.
         25    2    1    2    0    0  0.83029574465E+02 -0.93374981852E+02 -0.35557890649E+03  0.39711199866E+03  0.12509509690E+03 0.  0.
          5    1    3    3  502    0  0.36849053445E+02  0.15275401442E+02 -0.18706285615E+03  0.19131433606E+03  0.41800000000E+01 0.  1.
         -5    1    3    3    0  502  0.46180521020E+02 -0.10865038329E+03 -0.16851605033E+03  0.20579766260E+03  0.41800000000E+01 0.  1.
        -11    1    1    2    0    0 -0.87376498894E+01 -0.16839272172E+02 -0.10596199977E+03  0.10764689038E+03  0.00000000000E+00 0.  1.
         11    1    1    2    0    0 -0.74291924576E+02  0.11021425402E+03 -0.42779599063E+03  0.44796861659E+03  0.00000000000E+00 0. -1.
</event>
<event>
 7    1  0.2530765E-009  0.1292424E+03  0.7561462E-02  0.1228584E+00
          2   -1    0    0  501    0  0.00000000000E+00  0.00000000000E+00  0.58953311622E+03  0.58953311622E+03  0.00000000000E+00 0. -1.
         -2   -1    0    0    0  501 -0.00000000000E+00 -0.00000000000E+00 -0.35682386795E+02  0.35682386795E+02  0.00000000000E+00 0.  1.
         25    2    1    2    0    0  0.68458599036E+02 -0.43631409531E+02  0.40945724028E+03  0.43576825702E+03  0.12509381489E+03 0.  0.
          5    1    3    3  502    0  0.79552638111E+02 -0.78459386770E+02  0.32313122457E+03  0.34192946392E+03  0.41800000000E+01 0.  1.
         -5    1    3    3    0  502 -0.11094039075E+02  0.34827977240E+02  0.86326015715E+02  0.93838793102E+02  0.41800000000E+01 0.  1.
        -11    1    1    2    0    0 -0.23815229543E+02 -0.20716073194E+02  0.86452512637E+01  0.32727071610E+02  0.00000000000E+00 0.  1.
         11    1    1    2    0    0 -0.44643369493E+02  0.64347482724E+02  0.13574823787E+03  0.15672017438E+03  0.00000000000E+00 0. -1.
</event>
<event>
 7    1  0.2530765E-009  0.1480775E+03  0.7561462E-02  0.1202855E+00
          1   -1    0    0  501    0  0.00000000000E+00  0.00000000000E+00  0.98136609042E+02  0.98136609042E+02  0.00000000000E+00 0. -1.
         -1   -1    0    0    0  501 -0.00000000000E+00 -0.00000000000E+00 -0.10278490522E+04  0.10278490522E+04  0.00000000000E+00 0.  1.
         25    2    1    2    0    0  0.94905066840E+02 -0.41107527285E+02 -0.96929035859E+03  0.98278557916E+03  0.12508754869E+03 0.  0.
          5    1    3    3  502    0  0.83269029696E+02  0.30474786596E+02 -0.48121879682E+03  0.48933776345E+03  0.41800000000E+01 0. -1.
         -5    1    3    3    0  502  0.11636037144E+02 -0.71582313881E+02 -0.48807156177E+03  0.49344781571E+03  0.41800000000E+01 0. -1.
        -11    1    1    2    0    0 -0.70518820012E+02 -0.16294219652E+02  0.35726449557E+02  0.80714216640E+02  0.00000000000E+00 0. -1.
         11    1    1    2    0    0 -0.24386246829E+02  0.57401746937E+02  0.38514659104E+01  0.62485865405E+02  0.00000000000E+00 0.  1.
</event>
<event>
 7    1  0.2530765E-009  0.1121430E+03  0.7561462E-02  0.1256652E+00
         -1   -1    0    0    0  501 -0.00000000000E+00  0.00000000000E+00  0.61553475133E+03  0.61553475133E+03  0.00000000000E+00 0.  1.
          1   -1    0    0  501    0  0.00000000000E+00 -0.00000000000E+00 -0.23305194917E+02  0.23305194917E+02  0.00000000000E+00 0. -1.
         25    2    1    2    0    0 -0.13083480103E+02 -0.52537170045E+02  0.33246276981E+03  0.35931878484E+03  0.12508862513E+03 0.  0.
          5    1    3    3  502    0  0.41523191058E+02 -0.67063045414E+02  0.21068427413E+03  0.22500436267E+03  0.41800000000E+01 0. -1.
         -5    1    3    3    0  502 -0.54606671162E+02  0.14525875369E+02  0.12177849568E+03  0.13431442216E+03  0.41800000000E+01 0. -1.
        -11    1    1    2    0    0 -0.28176074239E+02  0.31710899639E+02  0.54220500428E+02  0.68842828109E+02  0.00000000000E+00 0. -1.
         11    1    1    2    0    0  0.41259554342E+02  0.20826270406E+02  0.20554628617E+03  0.21067833330E+03  0.00000000000E+00 0.  1.
</event>
<event>
 7    1  0.2530765E-009  0.8291023E+02  0.7561462E-02  0.1320990E+00
         -3   -1    0    0    0  501 -0.00000000000E+00  0.00000000000E+00  0.61767013337E+03  0.61767013337E+03  0.00000000000E+00 0.  1.
          3   -1    0    0  501    0  0.00000000000E+00 -0.00000000000E+00 -0.68412256353E+02  0.68412256353E+02  0.00000000000E+00 0. -1.
         25    2    1    2    0    0 -0.10364359356E+02 -0.63193434328E+02  0.55682142949E+03  0.57428358625E+03  0.12510276977E+03 0.  0.
          5    1    3    3  502    0 -0.89648114596E+01 -0.28229310420E+02  0.52775587408E+03  0.52860287253E+03  0.41800000000E+01 0.  1.
         -5    1    3    3    0  502 -0.13995478968E+01 -0.34964123908E+02  0.29065555407E+02  0.45680713721E+02  0.41800000000E+01 0.  1.
        -11    1    1    2    0    0 -0.12117897656E+02  0.74516080535E+02 -0.26807349353E+02  0.80113192929E+02  0.00000000000E+00 0. -1.
         11    1    1    2    0    0  0.22482257013E+02 -0.11322646207E+02  0.19243796881E+02  0.31685610550E+02  0.00000000000E+00 0.  1.
</event>
<event>
 7    1  0.2530765E-009  0.8790591E+02  0.7561462E-02  0.1308004E+00
          2   -1    0    0  501    0  0.00000000000E+00  0.00000000000E+00  0.47691310975E+03  0.47691310975E+03  0.00000000000E+00 0. -1.
         -2   -1    0    0    0  501 -0.00000000000E+00 -0.00000000000E+00 -0.43468066004E+02  0.43468066004E+02  0.00000000000E+00 0.  1.
         25    2    1    2    0    0  0.68843003204E+00  0.29006227611E+02  0.73034917421E+02  0.14772782907E+03  0.12509027597E+03 0.  0.
          5    1    3    3  502    0  0.10754484810E+02  0.56853452965E+02  0.94521824867E+02  0.11090456183E+03  0.41800000000E+01 0.  1.
         -5    1    3    3    0  502 -0.10066054778E+02 -0.27847225354E+02 -0.21486907446E+02  0.36823267241E+02  0.41800000000E+01 0.  1.
        -11    1    1    2    0    0  0.21034631801E+02  0.23220205045E+02  0.68662642716E+02  0.75473122117E+02  0.00000000000E+00 0.  1.
         11    1    1    2    0    0 -0.21723061833E+02 -0.52226432656E+02  0.29174748361E+03  0.29718022457E+03  0.00000000000E+00 0. -1.
</event>
<event>
 7    1  0.2530765E-009  0.1245575E+03  0.7561462E-02  0.1235762E+00
         -2   -1    0    0    0  501 -0.00000000000E+00  0.00000000000E+00  0.10898812346E+03  0.10898812346E+03  0.00000000000E+00 0. -1.
          2   -1    0    0  501    0  0.00000000000E+00 -0.00000000000E+00 -0.18798250868E+03  0.18798250868E+03  0.00000000000E+00 0.  1.
         25    2    1    2    0    0  0.64661949398E+01  0.78704831338E+02  0.84588350711E+01  0.14817333059E+03  0.12509005498E+03 0.  0.
          5    1    3    3  502    0  0.53728164438E+02  0.33801527622E+02 -0.32127128629E+02  0.71266287384E+02  0.41800000000E+01 0. -1.
         -5    1    3    3    0  502 -0.47261969499E+02  0.44903303715E+02  0.40585963701E+02  0.76907043208E+02  0.41800000000E+01 0. -1.
        -11    1    1    2    0    0  0.38718903785E+02 -0.59698925130E+02 -0.47435657558E+02  0.85517581701E+02  0.00000000000E+00 0. -1.
         11    1    1    2    0    0 -0.45185098725E+02 -0.19005906208E+02 -0.40017562728E+02  0.63279719850E+02  0.00000000000E+00 0.  1.
</event>
<event>
 7    1  0.2530765E-009  0.1530476E+03  0.7561462E-02  0.1196777E+00
          1   -1    0    0  501    0  0.00000000000E+00  0.00000000000E+00  0.52044065562E+03  0.52044065562E+03  0.00000000000E+00 0. -1.
         -1   -1    0    0    0  501 -0.00000000000E+00 -0.00000000000E+00 -0.53117421735E+02  0.53117421735E+02  0.00000000000E+00 0.  1.
         25    2    1    2    0    0 -0.78280566956E+02 -0.94586761556E+02  0.25588937025E+03  0.31016346807E+03  0.12508998559E+03 0.  0.
          5    1    3    3  502    0 -0.92329154634E+02 -0.56463707546E+02  0.94665958503E+02  0.14384692963E+03  0.41800000000E+01 0.  1.
         -5    1    3    3    0  502  0.14048587678E+02 -0.38123054010E+02  0.16122341174E+03  0.16631653844E+03  0.41800000000E+01 0.  1.
        -11    1    1    2    0    0  0.96638226243E+02  0.50172349757E+02  0.15155465463E+03  0.18661464249E+03  0.00000000000E+00 0. -1.
         11    1    1    2    0    0 -0.18357659287E+02  0.44414411799E+02  0.59879209006E+02  0.76779966795E+02  0.00000000000E+00 0.  1.
</event>
<event>
 7    1  0.2530765E-009  0.3718391E+03  0.7561462E-02  0.1053992E+00
         -1   -1    0    0    0  501 -0.00000000000E+00  0.00000000000E+00  0.29447044507E+03  0.29447044507E+03  0.00000000000E+00 0.  1.
          1   -1    0    0  501    0  0.00000000000E+00 -0.00000000000E+00 -0.50293578560E+03  0.50293578560E+03  0.00000000000E+00 0. -1.
         25    2    1    2    0    0  0.35250249188E+03  0.50901070986E+02 -0.20562894899E+03  0.42985999413E+03  0.12508966416E+03 0.  0.
          5    1    3    3  502    0  0.29794734238E+03 -0.63042663163E+01 -0.16918081441E+03  0.34271268282E+03  0.41800000000E+01 0.  1.
         -5    1    3    3    0  502  0.54555149501E+02  0.57205337302E+02 -0.36448134581E+02  0.87147311303E+02  0.41800000000E+01 0.  1.
        -11    1    1    2    0    0 -0.28213272101E+03 -0.44700411600E+01 -0.13931560047E+02  0.28251184382E+03  0.00000000000E+00 0. -1.
         11    1    1    2    0    0 -0.70369770875E+02 -0.46431029826E+02  0.11095168504E+02  0.85034392735E+02  0.00000000000E+00 0.  1.
</event>
<event>
 7    1  0.2530765E-009  0.1021468E+03  0.7561462E-02  0.1275845E+00
          2   -1    0    0  501    0  0.00000000000E+00  0.00000000000E+00  0.11856790194E+03  0.11856790194E+03  0.00000000000E+00 0. -1.
         -2   -1    0    0    0  501 -0.00000000000E+00 -0.00000000000E+00 -0.12609391988E+03  0.12609391988E+03  0.00000000000E+00 0.  1.
         25    2    1    2    0    0 -0.52809859330E+02 -0.90461572753E+01  0.17053631443E+02  0.13714628751E+03  0.12509022196E+03 0.  0.
          5    1    3    3  502    0 -0.69547033993E+02  0.38857669561E+02 -0.84110268543E+01  0.80217991708E+02  0.41800000000E+01 0.  1.
         -5    1    3    3    0  502  0.16737174662E+02 -0.47903826837E+02  0.25464658297E+02  0.56928295807E+02  0.41800000000E+01 0.  1.
        -11    1    1    2    0    0  0.45176054033E+02 -0.15605763800E+02 -0.51473922752E+02  0.70242298121E+02  0.00000000000E+00 0.  1.
         11    1    1    2    0    0  0.76338052975E+01  0.24651921075E+02  0.26894273367E+02  0.37273236189E+02  0.00000000000E+00 0. -1.
</event>
<event>
 7    1  0.2530765E-009  0.1384864E+03  0.7561462E-02  0.1215380E+00
         -2   -1    0    0    0  501 -0.00000000000E+00  0.00000000000E+00  0.24326337743E+02  0.24326337743E+02  0.00000000000E+00 0.  1.
          2   -1    0    0  501    0  0.00000000000E+00 -0.00000000000E+00 -0.10817920078E+04  0.10817920078E+04  0.00000000000E+00 0. -1.
         25    2    1    2    0    0 -0.57482735488E+02 -0.10396591120E+03 -0.50790134828E+03  0.53639905061E+03  0.12508791442E+03 0.  0.
          5    1    3    3  502    0  0.65104005905E+01 -0.71273185312E+02 -0.40204801060E+03  0.40838992089E+03  0.41800000000E+01 0. -1.
         -5    1    3    3    0  502 -0.63993136079E+02 -0.32692725891E+02 -0.10585333768E+03  0.12800912971E+03  0.41800000000E+01 0. -1.
        -11    1    1    2    0    0 -0.16778131161E+01  0.58912406859E+02 -0.11916043497E+03  0.13293869264E+03  0.00000000000E+00 0.  1.
         11    1    1    2    0    0  0.59160548604E+02  0.45053504344E+02 -0.43040388679E+03  0.43678060228E+03  0.00000000000E+00 0. -1.
</event>
<event>
 7    1  0.2530765E-009  0.2634679E+03  0.7561462E-02  0.1105077E+00
         -1   -1    0    0    0  501 -0.00000000000E+00  0.00000000000E+00  0.12909701277E+03  0.12909701277E+03  0.00000000000E+00 0.  1.
          1   -1    0    0  501    0  0.00000000000E+00 -0.00000000000E+00 -0.55371556068E+03  0.55371556068E+03  0.00000000000E+00 0. -1.
         25    2    1    2    0    0 -0.54705770332E+02  0.23607442968E+03 -0.24047627340E+03  0.36359238483E+03  0.12508687614E+03 0.  0.
          5    1    3    3  502    0 -0.85649390584E+02  0.94039154033E+02 -0.11423761835E+03  0.17101721096E+03  0.41800000000E+01 0. -1.
         -5    1    3    3    0  502  0.30943620252E+02  0.14203527565E+03 -0.12623865505E+03  0.19257517387E+03  0.41800000000E+01 0. -1.
        -11    1    1    2    0    0 -0.18581655891E+02 -0.27692824951E+02 -0.28758330499E+01  0.33472987694E+02  0.00000000000E+00 0.  1.
         11    1    1    2    0    0  0.73287426223E+02 -0.20838160473E+03 -0.18126644147E+03  0.28574720092E+03  0.00000000000E+00 0. -1.
</event>
<event>
 7    1  0.2530765E-009  0.9634634E+02  0.7561462E-02  0.1288172E+00
         -2   -1    0    0    0  501 -0.00000000000E+00  0.00000000000E+00  0.16751070094E+03  0.16751070094E+03  0.00000000000E+00 0.  1.
          2   -1    0    0  501    0  0.00000000000E+00 -0.00000000000E+00 -0.91617643237E+02  0.91617643237E+02  0.00000000000E+00 0. -1.
         25    2    1    2    0    0 -0.17549622985E+02 -0.15236119151E+01  0.10237356241E+03  0.16260466204E+03  0.12509843795E+03 0.  0.
          5    1    3    3  502    0  0.18770704219E+02 -0.56780097418E+02  0.52286726355E+02  0.79546797249E+02  0.41800000000E+01 0. -1.
         -5    1    3    3    0  502 -0.36320327204E+02  0.55256485503E+02  0.50086836052E+02  0.83057864794E+02  0.41800000000E+01 0. -1.
        -11    1    1    2    0    0  0.31595801099E+02 -0.22410518871E+02 -0.47802331083E+02  0.61527139216E+02  0.00000000000E+00 0. -1.
         11    1    1    2    0    0 -0.14046178114E+02  0.23934130786E+02  0.21321826381E+02  0.34996542920E+02  0.00000000000E+00 0.  1.
</event>
<event>
 7    1  0.2530765E-009  0.9780069E+02  0.7561462E-02  0.1284990E+00
          2   -1    0    0  501    0  0.00000000000E+00  0.00000000000E+00  0.18271962114E+03  0.18271962114E+03  0.00000000000E+00 0.  1.
         -2   -1    0    0    0  501 -0.00000000000E+00 -0.00000000000E+00 -0.11233705087E+03  0.11233705087E+03  0.00000000000E+00 0. -1.
         25    2    1    2    0    0  0.22870291895E+02  0.65914847201E+02 -0.27155248758E+02  0.14578796790E+03  0.12509559031E+03 0.  0.
          5    1    3    3  502    0  0.43165079240E+02 -0.17794292331E+01  0.31681045800E+02  0.53735942321E+02  0.41800000000E+01 0.  1.
         -5    1    3    3    0  502 -0.20294787345E+02  0.67694276434E+02 -0.58836294558E+02  0.92052025576E+02  0.41800000000E+01 0.  1.
        -11    1    1    2    0    0 -0.33997675205E+02 -0.36143645643E+02  0.32031659875E+01  0.49723890757E+02  0.00000000000E+00 0. -1.
         11    1    1    2    0    0  0.11127383310E+02 -0.29771201558E+02  0.94334653041E+02  0.99544813355E+02  0.00000000000E+00 0.  1.
</event>
<event>
 7    1  0.2530765E-009  0.7589074E+02  0.7561462E-02  0.1341135E+00
         -3   -1    0    0    0  501 -0.00000000000E+00  0.00000000000E+00  0.13442020721E+03  0.13442020721E+03  0.00000000000E+00 0.  1.
          3   -1    0    0  501    0  0.00000000000E+00 -0.00000000000E+00 -0.13195419692E+03  0.13195419692E+03  0.00000000000E+00 0. -1.
         25    2    1    2    0    0 -0.37951975362E+02  0.31324957212E+02 -0.31629496677E+02  0.13809212705E+03  0.12508958835E+03 0.  0.
          5    1    3    3  502    0 -0.40596737711E+02  0.28181662028E+02 -0.77411533529E+02  0.91936494988E+02  0.41800000000E+01 0.  1.
         -5    1    3    3    0  502  0.26447623488E+01  0.31432951840E+01  0.45782036852E+02  0.46155632059E+02  0.41800000000E+01 0.  1.
        -11    1    1    2    0    0  0.45659369474E+02  0.15995943308E+02  0.57320612083E+02  0.75008671450E+02  0.00000000000E+00 0.  1.
         11    1    1    2    0    0 -0.77073941123E+01 -0.47320900520E+02 -0.23225105109E+02  0.53273605635E+02  0.00000000000E+00 0. -1.
</event>
<event>
 7    1  0.2530765E-009  0.1355040E+03  0.7561462E-02  0.1219510E+00
         -4   -1    0    0    0  501 -0.00000000000E+00  0.00000000000E+00  0.30123610085E+03  0.30123610085E+03  0.00000000000E+00 0. -1.
          4   -1    0    0  501    0  0.00000000000E+00 -0.00000000000E+00 -0.87215461413E+02  0.87215461413E+02  0.00000000000E+00 0.  1.
         25    2    1    2    0    0  0.31606804478E+01 -0.11494955797E+03  0.74851834189E+02  0.18567248437E+03  0.12509230030E+03 0.  0.
          5    1    3    3  502    0 -0.32105688502E+02 -0.34373797647E+02 -0.24265647505E+02  0.53090745405E+02  0.41800000000E+01 0.  1.
         -5    1    3    3    0  502  0.35266368949E+02 -0.80575760326E+02  0.99117481694E+02  0.13258173897E+03  0.41800000000E+01 0.  1.
        -11    1    1    2    0    0  0.14050529441E+02  0.11749663475E+03  0.84495523477E+02  0.14540416102E+03  0.00000000000E+00 0.  1.
         11    1    1    2    0    0 -0.17211209889E+02 -0.25470767734E+01  0.54673281776E+02  0.57374916872E+02  0.00000000000E+00 0. -1.
</event>
<event>
 7    1  0.2530765E-009  0.1405037E+03  0.7561462E-02  0.1212653E+00
          2   -1    0    0  501    0  0.00000000000E+00  0.00000000000E+00  0.63486858076E+02  0.63486858076E+02  0.00000000000E+00 0.  1.
         -2   -1    0    0    0  501 -0.00000000000E+00 -0.00000000000E+00 -0.35915233995E+03  0.35915233995E+03  0.00000000000E+00 0. -1.
         25    2    1    2    0    0 -0.78007022431E+02 -0.59636961758E+02 -0.19592846145E+03  0.25234421987E+03  0.12509188837E+03 0.  0.
          5    1    3    3  502    0  0.93970497059E+01  0.23698840904E+02 -0.83088973801E+02  0.87012582830E+02  0.41800000000E+01 0.  1.
         -5    1    3    3    0  502 -0.87404072137E+02 -0.83335802663E+02 -0.11283948765E+03  0.16533163704E+03  0.41800000000E+01 0.  1.
        -11    1    1    2    0    0  0.47408436335E+01 -0.23238675064E+02 -0.41052087169E+01  0.24069988693E+02  0.00000000000E+00 0.  1.
         11    1    1    2    0    0  0.73266178797E+02  0.82875636822E+02 -0.95631811698E+02  0.14622498946E+03  0.00000000000E+00 0. -1.
</event>
<event>
 7    1  0.2530765E-009  0.1032530E+03  0.7561462E-02  0.1273600E+00
          4   -1    0    0  501    0  0.00000000000E+00  0.00000000000E+00  0.19386585291E+03  0.19386585291E+03  0.00000000000E+00 0. -1.
         -4   -1    0    0    0  501 -0.00000000000E+00 -0.00000000000E+00 -0.75355863383E+02  0.75355863383E+02  0.00000000000E+00 0.  1.
         25    2    1    2    0    0  0.18021742002E+02 -0.32968947732E+02  0.11026226544E+03  0.17093113966E+03  0.12509177682E+03 0.  0.
          5    1    3    3  502    0 -0.48278762361E+02  0.31075592452E+00  0.73485668629E+02  0.88025856191E+02  0.41800000000E+01 0. -1.
         -5    1    3    3    0  502  0.66300504363E+02 -0.33279703657E+02  0.36776596806E+02  0.82905283468E+02  0.41800000000E+01 0. -1.
        -11    1    1    2    0    0 -0.47497667812E+02  0.19779235478E+02  0.29807901729E+02  0.59462236833E+02  0.00000000000E+00 0. -1.
         11    1    1    2    0    0  0.29475925809E+02  0.13189712254E+02 -0.21560177639E+02  0.38828339799E+02  0.00000000000E+00 0.  1.
</event>
<event>
 7    1  0.2530765E-009  0.1083307E+03  0.7561462E-02  0.1263693E+00
         -3   -1    0    0    0  501 -0.00000000000E+00  0.00000000000E+00  0.21476826319E+02  0.21476826319E+02  0.00000000000E+00 0.  1.
          3   -1    0    0  501    0  0.00000000000E+00 -0.00000000000E+00 -0.57922593525E+03  0.57922593525E+03  0.00000000000E+00 0. -1.
         25    2    1    2    0    0 -0.33725578572E+01 -0.20831565320E+02 -0.34529814720E+03  0.36786370710E+03  0.12509024058E+03 0.  0.
          5    1    3    3  502    0  0.43469469995E+02 -0.49979461253E+02 -0.13534255463E+03  0.15074024301E+03  0.41800000000E+01 0.  1.
         -5    1    3    3    0  502 -0.46842027853E+02  0.29147895933E+02 -0.20995559257E+03  0.21712346410E+03  0.41800000000E+01 0.  1.
        -11    1    1    2    0    0 -0.20413665753E+02  0.51937018758E+02 -0.11534736488E+03  0.12813737258E+03  0.00000000000E+00 0. -1.
         11    1    1    2    0    0  0.23786223610E+02 -0.31105453438E+02 -0.97103596853E+02  0.10470168188E+03  0.00000000000E+00 0.  1.
</event>
<event>
 7    1  0.2530765E-009  0.1845427E+03  0.7561462E-02  0.1163478E+00
          1   -1    0    0  501    0  0.00000000000E+00  0.00000000000E+00  0.42314526402E+03  0.42314526402E+03  0.00000000000E+00 0. -1.
         -1   -1    0    0    0  501 -0.00000000000E+00 -0.00000000000E+00 -0.90926551713E+02  0.90926551713E+02  0.00000000000E+00 0.  1.
         25    2    1    2    0    0  0.16121703188E+03  0.18585437324E+02  0.14941103057E+03  0.25358924993E+03  0.12508997473E+03 0.  0.
          5    1    3    3  502    0 -0.20949844984E+02  0.50564452043E+01  0.12432440646E+02  0.25228983796E+02  0.41800000000E+01 0. -1.
         -5    1    3    3    0  502  0.18216687686E+03  0.13528992119E+02  0.13697858992E+03  0.22836026614E+03  0.41800000000E+01 0. -1.
        -11    1    1    2    0    0 -0.98506801305E+02 -0.24258035810E+02  0.16726522247E+03  0.19562642166E+03  0.00000000000E+00 0. -1.
         11    1    1    2    0    0 -0.62710230574E+02  0.56725984861E+01  0.15542459271E+02  0.64856144137E+02  0.00000000000E+00 0.  1.
</event>
<event>
 7    1  0.2530765E-009  0.9462266E+02  0.7561462E-02  0.1292028E+00
          1   -1    0    0  501    0  0.00000000000E+00  0.00000000000E+00  0.40532048197E+02  0.40532048197E+02  0.00000000000E+00 0. -1.
         -1   -1    0    0    0  501 -0.00000000000E+00 -0.00000000000E+00 -0.41356971472E+03  0.41356971472E+03  0.00000000000E+00 0.  1.
         25    2    1    2    0    0 -0.29005255630E+00  0.75240633293E+02 -0.20646747904E+03  0.25285706551E+03  0.12508652465E+03 0.  0.
          5    1    3    3  502    0  0.78508132528E+01  0.19739875684E+00 -0.16762906260E+03  0.16786497331E+03  0.41800000000E+01 0.  1.
         -5    1    3    3    0  502 -0.81408658091E+01  0.75043234536E+02 -0.38838416437E+02  0.84992092203E+02  0.41800000000E+01 0.  1.
        -11    1    1    2    0    0  0.13114994938E+02 -0.86618159706E+02 -0.16087084310E+03  0.18317788306E+03  0.00000000000E+00 0.  1.
         11    1    1    2    0    0 -0.12824942382E+02  0.11377526413E+02 -0.56993443933E+01  0.18066814354E+02  0.00000000000E+00 0. -1.
</event>
<event>
 7    1  0.2530765E-009  0.1477774E+03  0.7561462E-02  0.1203231E+00
          1   -1    0    0  501    0  0.00000000000E+00  0.00000000000E+00  0.19757062208E+03  0.19757062208E+03  0.00000000000E+00 0. -1.
         -1   -1    0    0    0  501 -0.00000000000E+00 -0.00000000000E+00 -0.18623989394E+03  0.18623989394E+03  0.00000000000E+00 0.  1.
         25    2    1    2    0    0  0.61708074284E+00  0.14375213353E+03 -0.59258209971E+02  0.19955654022E+03  0.12508485366E+03 0.  0.
          5    1    3    3  502    0 -0.13894904956E+01  0.14901453929E+02  0.36026306423E+02  0.39234565979E+02  0.41800000000E+01 0. -1.
         -5    1    3    3    0  502  0.20065712384E+01  0.12885067960E+03 -0.95284516395E+02  0.16032197425E+03  0.41800000000E+01 0. -1.
        -11    1    1    2    0    0  0.22738738926E+02 -0.61132983971E+02 -0.10609353524E+02  0.66082148568E+02  0.00000000000E+00 0.  1.
         11    1    1    2    0    0 -0.23355819669E+02 -0.82619149558E+02  0.81198291632E+02  0.11817182723E+03  0.00000000000E+00 0. -1.
</event>
<event>
 7    1  0.2530765E-009  0.9170166E+02  0.7561462E-02  0.1298782E+00
         -1   -1    0    0    0  501 -0.00000000000E+00  0.00000000000E+00  0.24465928410E+02  0.24465928410E+02  0.00000000000E+00 0.  1.
          1   -1    0    0  501    0  0.00000000000E+00 -0.00000000000E+00 -0.51828240604E+03  0.51828240604E+03  0.00000000000E+00 0. -1.
         25    2    1    2    0    0  0.23981712866E+02  0.17912119485E+02 -0.27918790450E+03  0.30739101325E+03  0.12508949770E+03 0.  0.
          5    1    3    3  502    0  0.30247029209E+02 -0.44749256473E+02 -0.19368155191E+03  0.20111537654E+03  0.41800000000E+01 0.  1.
         -5    1    3    3    0  502 -0.62653163437E+01  0.62661375958E+02 -0.85506352590E+02  0.10627563671E+03  0.41800000000E+01 0.  1.
        -11    1    1    2    0    0  0.16756926414E+02 -0.19038378877E+02 -0.10922298058E+02  0.27614326861E+02  0.00000000000E+00 0. -1.
         11    1    1    2    0    0 -0.40738639280E+02  0.11262593919E+01 -0.20370627508E+03  0.20774299434E+03  0.00000000000E+00 0.  1.
</event>
<event>
 7    1  0.2530765E-009  0.9866216E+02  0.7561462E-02  0.1283135E+00
         -2   -1    0    0    0  501 -0.00000000000E+00  0.00000000000E+00  0.21631284166E+03  0.21631284166E+03  0.00000000000E+00 0.  1.
          2   -1    0    0  501    0  0.00000000000E+00 -0.00000000000E+00 -0.97204210802E+02  0.97204210802E+02  0.00000000000E+00 0. -1.
         25    2    1    2    0    0  0.80585219902E+02  0.50007644935E+02  0.85546509628E+02  0.17877547221E+03  0.12509085473E+03 0.  0.
          5    1    3    3  502    0  0.76195956230E+02  0.30789389801E+02 -0.83783239220E+01  0.82713233414E+02  0.41800000000E+01 0.  1.
         -5    1    3    3    0  502  0.43892636718E+01  0.19218255134E+02  0.93924833550E+02  0.96062238800E+02  0.41800000000E+01 0.  1.
        -11    1    1    2    0    0 -0.41810691875E+02 -0.27652945497E+02 -0.28928410156E+02  0.57876353236E+02  0.00000000000E+00 0. -1.
         11    1    1    2    0    0 -0.38774528027E+02 -0.22354699438E+02  0.62490531389E+02  0.76865227014E+02  0.00000000000E+00 0.  1.
</event>
<event>
 7    1  0.2530765E-009  0.1049672E+03  0.7561462E-02  0.1270184E+00
          1   -1    0    0  501    0  0.00000000000E+00  0.00000000000E+00  0.14939575512E+03  0.14939575512E+03  0.00000000000E+00 0. -1.
         -1   -1    0    0    0  501 -0.00000000000E+00 -0.00000000000E+00 -0.10271436561E+03  0.10271436561E+03  0.00000000000E+00 0.  1.
         25    2    1    2    0    0  0.43842269423E+02 -0.47893889311E+02  0.38782053436E+02  0.14617428666E+03  0.12508759007E+03 0.  0.
          5    1    3    3  502    0  0.28738594119E+02  0.36165007147E+02  0.39104061747E+02  0.60666420522E+02  0.41800000000E+01 0. -1.
         -5    1    3    3    0  502  0.15103675304E+02 -0.84058896458E+02 -0.32200831065E+00  0.85507866134E+02  0.41800000000E+01 0. -1.
        -11    1    1    2    0    0 -0.52447169352E+02  0.37107723834E+02  0.36707246224E+02  0.73993990746E+02  0.00000000000E+00 0. -1.
         11    1    1    2    0    0  0.86048999296E+01  0.10786165478E+02 -0.28807910144E+02  0.31941843331E+02  0.00000000000E+00 0.  1.
</event>
<event>
 7    1  0.2530765E-009  0.1087301E+03  0.7561462E-02  0.1262940E+00
         -2   -1    0    0    0  501 -0.00000000000E+00  0.00000000000E+00  0.11400325953E+02  0.11400325953E+02  0.00000000000E+00 0.  1.
          2   -1    0    0  501    0  0.00000000000E+00 -0.00000000000E+00 -0.18270423048E+04  0.18270423048E+04  0.00000000000E+00 0. -1.
         25    2    1    2    0    0  0.86178804552E+02  0.15488421934E+02 -0.12623993748E+04  0.12715998521E+04  0.12508926714E+03 0.  0.
          5    1    3    3  502    0 -0.29170880379E+01  0.18324524754E+01 -0.82365348524E+03  0.82367129574E+03  0.41800000000E+01 0. -1.
         -5    1    3    3    0  502  0.89095892590E+02  0.13655969458E+02 -0.43874588959E+03  0.44792855637E+03  0.41800000000E+01 0. -1.
        -11    1    1    2    0    0 -0.32290857344E+02  0.35243217655E+02 -0.17401095665E+03  0.18045663438E+03  0.00000000000E+00 0.  1.
         11    1    1    2    0    0 -0.53887947208E+02 -0.50731639589E+02 -0.37923164738E+03  0.38638614428E+03  0.00000000000E+00 0. -1.
</event>
<event>
 7    1  0.2533188E-009  0.1307326E+03  0.7561462E-02  0.1226373E+00
         -1   -1    0    0    0  501 -0.00000000000E+00  0.00000000000E+00  0.33782690696E+02  0.33782690696E+02  0.00000000000E+00 0.  1.
          1   -1    0    0  501    0  0.00000000000E+00 -0.00000000000E+00 -0.64881611000E+03  0.64881611000E+03  0.00000000000E+00 0. -1.
         25    2    1    2    0    0 -0.47391552064E+02  0.85874479864E+02 -0.28215970693E+03  0.32385665250E+03  0.12509454684E+03 0.  0.
          5    1    3    3  502    0  0.22738688283E+01  0.10477355716E+03 -0.17150651626E+03  0.20103389336E+03  0.41800000000E+01 0. -1.
         -5    1    3    3    0  502 -0.49665420892E+02 -0.18899077300E+02 -0.11065319067E+03  0.12282275913E+03  0.41800000000E+01 0. -1.
        -11    1    1    2    0    0  0.45731595993E+02 -0.51534794671E+02 -0.30972343795E+03  0.31729453501E+03  0.00000000000E+00 0. -1.
         11    1    1    2    0    0  0.16599560705E+01 -0.34339685193E+02 -0.23150274422E+02  0.41447613190E+02  0.00000000000E+00 0.  1.
</event>
<event>
 7    1  0.2530765E-009  0.8127368E+02  0.7561462E-02  0.1325475E+00
         -2   -1    0    0    0  501 -0.00000000000E+00  0.00000000000E+00  0.12801991455E+03  0.12801991455E+03  0.00000000000E+00 0. -1.
          2   -1    0    0  501    0  0.00000000000E+00 -0.00000000000E+00 -0.17196417970E+03  0.17196417970E+03  0.00000000000E+00 0.  1.
         25    2    1    2    0    0  0.49845666852E+02  0.28327157538E+02 -0.11005367899E+03  0.17620503405E+03  0.12509749561E+03 0.  0.
          5    1    3    3  502    0 -0.24242018244E+02  0.12375063595E+02 -0.94889337479E+02  0.98804232778E+02  0.41800000000E+01 0.  1.
         -5    1    3    3    0  502  0.74087685097E+02  0.15952093942E+02 -0.15164341506E+02  0.77400801271E+02  0.41800000000E+01 0.  1.
        -11    1    1    2    0    0 -0.29142015632E+02 -0.82915333505E+01 -0.17745461447E+02  0.35112789727E+02  0.00000000000E+00 0.  1.
         11    1    1    2    0    0 -0.20703651220E+02 -0.20035624187E+02  0.83854875281E+02  0.88666270469E+02  0.00000000000E+00 0. -1.
</event>
<event>
 7    1  0.2530765E-009  0.1449347E+03  0.7561462E-02  0.1206839E+00
          2   -1    0    0  501    0  0.00000000000E+00  0.00000000000E+00  0.22455304747E+03  0.22455304747E+03  0.00000000000E+00 0.  1.
         -2   -1    0    0    0  501 -0.00000000000E+00 -0.00000000000E+00 -0.12923564598E+03  0.12923564598E+03  0.00000000000E+00 0. -1.
         25    2    1    2    0    0 -0.82423292534E+02 -0.66847909875E+02  0.13077919247E+03  0.20979142917E+03  0.12508798648E+03 0.  0.
          5    1    3    3  502    0 -0.10728747630E+03 -0.20263894797E+02  0.10216434707E+03  0.14958694534E+03  0.41800000000E+01 0.  1.
         -5    1    3    3    0  502  0.24864183770E+02 -0.46584015078E+02  0.28614845406E+02  0.60204483828E+02  0.41800000000E+01 0.  1.
        -11    1    1    2    0    0  0.12343136381E+02  0.55238016892E+02  0.12913018377E+02  0.58054608513E+02  0.00000000000E+00 0.  1.
         11    1    1    2    0    0  0.70080156153E+02  0.11609892983E+02 -0.48374809360E+02  0.85942655778E+02  0.00000000000E+00 0. -1.
</event>
<event>
 7    1  0.2530765E-009  0.7881151E+02  0.7561462E-02  0.1332458E+00
         -2   -1    0    0    0  501 -0.00000000000E+00  0.00000000000E+00  0.81140073919E+02  0.81140073919E+02  0.00000000000E+00 0. -1.
          2   -1    0    0  501    0  0.00000000000E+00 -0.00000000000E+00 -0.15153541159E+03  0.15153541159E+03  0.00000000000E+00 0.  1.
         25    2    1    2    0    0 -0.56277578369E+01  0.80864749548E+01 -0.59819983909E+02  0.13901582058E+03  0.12509958098E+03 0.  0.
          5    1    3    3  502    0  0.15514235503E+02 -0.38713999358E+02  0.18054878104E+02  0.45638977562E+02  0.41800000000E+01 0. -1.
         -5    1    3    3    0  502 -0.21141993340E+02  0.46800474313E+02 -0.77874862013E+02  0.93376843017E+02  0.41800000000E+01 0. -1.
        -11    1    1    2    0    0 -0.26004257445E+02  0.98644887735E+01 -0.38718317479E+02  0.47672189508E+02  0.00000000000E+00 0.  1.
         11    1    1    2    0    0  0.31632015282E+02 -0.17950963728E+02  0.28142963713E+02  0.45987475427E+02  0.00000000000E+00 0. -1.
</event>
<event>
 7    1  0.2530765E-009  0.8105468E+02  0.7561462E-02  0.1326085E+00
          2   -1    0    0  501    0  0.00000000000E+00  0.00000000000E+00  0.11758703156E+04  0.11758703156E+04  0.00000000000E+00 0. -1.
         -2   -1    0    0    0  501 -0.00000000000E+00 -0.00000000000E+00 -0.12059137293E+02  0.12059137293E+02  0.00000000000E+00 0.  1.
         25    2    1    2    0    0  0.13175233887E+02 -0.33713754123E+02  0.82082307424E+03  0.83108834750E+03  0.12508844125E+03 0.  0.
          5    1    3    3  502    0  0.33206754892E+02 -0.48964520911E+02  0.17531086380E+03  0.18507183537E+03  0.41800000000E+01 0.  1.
         -5    1    3    3    0  502 -0.20031521005E+02  0.15250766787E+02  0.64551221044E+03  0.64601651213E+03  0.41800000000E+01 0.  1.
        -11    1    1    2    0    0  0.18642144341E+02 -0.11565216068E+02  0.21826224565E+02  0.30946208929E+02  0.00000000000E+00 0.  1.
         11    1    1    2    0    0 -0.31817378228E+02  0.45278970191E+02  0.32116187951E+03  0.32589489647E+03  0.00000000000E+00 0. -1.
</event>
<event>
 7    1  0.2530765E-009  0.6701180E+02  0.7561462E-02  0.1370560E+00
         -1   -1    0    0    0  501 -0.00000000000E+00  0.00000000000E+00  0.14161223138E+03  0.14161223138E+03  0.00000000000E+00 0.  1.
          1   -1    0    0  501    0  0.00000000000E+00 -0.00000000000E+00 -0.10746551749E+03  0.10746551749E+03  0.00000000000E+00 0. -1.
         25    2    1    2    0    0  0.72499386099E+01 -0.53582425876E+02 -0.32690239872E+01  0.13631651687E+03  0.12509143969E+03 0.  0.
          5    1    3    3  502    0  0.28327729174E+02 -0.19197077869E+02 -0.58438498948E+02  0.67849234323E+02  0.41800000000E+01 0.  1.
         -5    1    3    3    0  502 -0.21077790564E+02 -0.34385348007E+02  0.55169474961E+02  0.68467282552E+02  0.41800000000E+01 0.  1.
        -11    1    1    2    0    0 -0.14873463490E+02  0.45598753817E+02  0.66305381063E+02  0.81834404890E+02  0.00000000000E+00 0.  1.
         11    1    1    2    0    0  0.76235248800E+01  0.79836720586E+01 -0.28889643184E+02  0.30926827100E+02  0.00000000000E+00 0. -1.
</event>
<event>
 7    1  0.2530765E-009  0.9074226E+02  0.7561462E-02  0.1301064E+00
          4   -1    0    0  501    0  0.00000000000E+00  0.00000000000E+00  0.13188074385E+03  0.13188074385E+03  0.00000000000E+00 0. -1.
         -4   -1    0    0    0  501 -0.00000000000E+00 -0.00000000000E+00 -0.11698395648E+03  0.11698395648E+03  0.00000000000E+00 0.  1.
         25    2    1    2    0    0 -0.77229631345E+01  0.55070198667E+01  0.69056113671E+02  0.14320013013E+03  0.12509020348E+03 0.  0.
          5    1    3    3  502    0  0.54755766607E+02 -0.13289204111E+02  0.15235591544E+02  0.58518309719E+02  0.41800000000E+01 0.  1.
         -5    1    3    3    0  502 -0.62478729742E+02  0.18796223978E+02  0.53820522127E+02  0.84681820410E+02  0.41800000000E+01 0.  1.
        -11    1    1    2    0    0  0.28158581996E+02  0.13918455045E+02 -0.67516570658E+02  0.74465538636E+02  0.00000000000E+00 0.  1.
         11    1    1    2    0    0 -0.20435618862E+02 -0.19425474911E+02  0.13357244361E+02  0.31199031567E+02  0.00000000000E+00 0. -1.
</event>
<event>
 7    1  0.2530765E-009  0.1564071E+03  0.7561462E-02  0.1192814E+00
          2   -1    0    0  501    0  0.00000000000E+00  0.00000000000E+00  0.26602836017E+03  0.26602836017E+03  0.00000000000E+00 0. -1.
         -2   -1    0    0    0  501 -0.00000000000E+00 -0.00000000000E+00 -0.13242890485E+03  0.13242890485E+03  0.00000000000E+00 0.  1.
         25    2    1    2    0    0 -0.63236572254E+02 -0.10649577491E+03  0.16780314188E+03  0.24319985900E+03  0.12509221737E+03 0.  0.
          5    1    3    3  502    0 -0.98835782340E+02 -0.69841208820E+02  0.93802926091E+02  0.15317561054E+03  0.41800000000E+01 0. -1.
         -5    1    3    3    0  502  0.35599210086E+02 -0.36654566093E+02  0.74000215785E+02  0.90024248458E+02  0.41800000000E+01 0. -1.
        -11    1    1    2    0    0  0.49913029683E+02  0.21377879502E+02  0.14617662862E+02  0.56231666627E+02  0.00000000000E+00 0. -1.
         11    1    1    2    0    0  0.13323542572E+02  0.85117895411E+02 -0.48821349413E+02  0.99025739403E+02  0.00000000000E+00 0.  1.
</event>
<event>
 7    1  0.2530765E-009  0.2406218E+03  0.7561462E-02  0.1119379E+00
          2   -1    0    0  501    0  0.00000000000E+00  0.00000000000E+00  0.27870962638E+03  0.27870962638E+03  0.00000000000E+00 0. -1.
         -2   -1    0    0    0  501 -0.00000000000E+00 -0.00000000000E+00 -0.25653925809E+03  0.25653925809E+03  0.00000000000E+00 0.  1.
         25    2    1    2    0    0  0.19020388133E+02 -0.23255893923E+03  0.95147579808E+02  0.28132901748E+03  0.12509004259E+03 0.  0.
          5    1    3    3  502    0  0.36205495829E+02 -0.19393757093E+03  0.24436359976E+02  0.19883970287E+03  0.41800000000E+01 0.  1.
         -5    1    3    3    0  502 -0.17185107696E+02 -0.38621368293E+02  0.70711219832E+02  0.82489314614E+02  0.41800000000E+01 0.  1.
        -11    1    1    2    0    0  0.20502044442E+02  0.12842262837E+03 -0.24006618988E+02  0.13224607011E+03  0.00000000000E+00 0. -1.
         11    1    1    2    0    0 -0.39522432576E+02  0.10413631086E+03 -0.48970592525E+02  0.12167379688E+03  0.00000000000E+00 0.  1.
</event>
<event>
 7    1  0.2530765E-009  0.1090717E+03  0.7561462E-02  0.1262299E+00
          2   -1    0    0  501    0  0.00000000000E+00  0.00000000000E+00  0.36751471342E+03  0.36751471342E+03  0.00000000000E+00 0. -1.
         -2   -1    0    0    0  501 -0.00000000000E+00 -0.00000000000E+00 -0.71540139896E+02  0.71540139896E+02  0.00000000000E+00 0.  1.
         25    2    1    2    0    0 -0.52407779836E+02 -0.42993511008E+02  0.28731293411E+03  0.32061037354E+03  0.12508905682E+03 0.  0.
          5    1    3    3  502    0 -0.69010297166E+01 -0.79085081672E+02  0.12468399711E+03  0.14787036853E+03  0.41800000000E+01 0.  1.
         -5    1    3    3    0  502 -0.45506750119E+02  0.36091570664E+02  0.16262893700E+03  0.17274000501E+03  0.41800000000E+01 0.  1.
        -11    1    1    2    0    0  0.57603403521E+02  0.27032964436E+02 -0.34323649647E+02  0.72298313871E+02  0.00000000000E+00 0.  1.
         11    1    1    2    0    0 -0.51956236857E+01  0.15960546573E+02  0.42985289059E+02  0.46146165906E+02  0.00000000000E+00 0. -1.
</event>
<event>
 7    1  0.2530765E-009  0.2477485E+03  0.7561462E-02  0.1114736E+00
          2   -1    0    0  501    0  0.00000000000E+00  0.00000000000E+00  0.13117829723E+04  0.13117829723E+04  0.00000000000E+00 0.  1.
         -2   -1    0    0    0  501 -0.00000000000E+00 -0.00000000000E+00 -0.54081623121E+02  0.54081623121E+02  0.00000000000E+00 0. -1.
         25    2    1    2    0    0 -0.51976834415E+01  0.23750113505E+03  0.55599009527E+03  0.61741921745E+03  0.12509076297E+03 0.  0.
          5    1    3    3  502    0 -0.40664420705E+02  0.20510174173E+03  0.50810898842E+03  0.54946568235E+03  0.41800000000E+01 0. -1.
         -5    1    3    3    0  502  0.35466737264E+02  0.32399393313E+02  0.47881106856E+02  0.67953535103E+02  0.41800000000E+01 0. -1.
        -11    1    1    2    0    0 -0.61179746607E+01 -0.89761695509E+02  0.42645059211E+03  0.43583792757E+03  0.00000000000E+00 0.  1.
         11    1    1    2    0    0  0.11315658102E+02 -0.14773943954E+03  0.27526066181E+03  0.31260745041E+03  0.00000000000E+00 0. -1.
</event>
<event>
 7    1  0.2530765E-009  0.9472076E+02  0.7561462E-02  0.1291806E+00
         -2   -1    0    0    0  501 -0.00000000000E+00  0.00000000000E+00  0.87932528036E+01  0.87932528036E+01  0.00000000000E+00 0. -1.
          2   -1    0    0  501    0  0.00000000000E+00 -0.00000000000E+00 -0.33646674510E+04  0.33646674510E+04  0.00000000000E+00 0.  1.
         25    2    1    2    0    0  0.55493664512E+02 -0.89292299512E+01 -0.29676211280E+04  0.29707881160E+04  0.12509033960E+03 0.  0.
          5    1    3    3  502    0  0.24264207233E+02  0.26313975923E+02 -0.25858630707E+04  0.25861141641E+04  0.41800000000E+01 0. -1.
         -5    1    3    3    0  502  0.31229457279E+02 -0.35243205874E+02 -0.38175805729E+03  0.38467395190E+03  0.41800000000E+01 0. -1.
        -11    1    1    2    0    0  0.94148086588E+01 -0.29317410338E+02 -0.13400165759E+03  0.13749397590E+03  0.00000000000E+00 0.  1.
         11    1    1    2    0    0 -0.64908473170E+02  0.38246640289E+02 -0.25425141258E+03  0.26517861185E+03  0.00000000000E+00 0. -1.
</event>
<event>
 7    1  0.2530765E-009  0.8868896E+02  0.7561462E-02  0.1306058E+00
          1   -1    0    0  501    0  0.00000000000E+00  0.00000000000E+00  0.33072813920E+02  0.33072813920E+02  0.00000000000E+00 0. -1.
         -1   -1    0    0    0  501 -0.00000000000E+00 -0.00000000000E+00 -0.48818264604E+03  0.48818264604E+03  0.00000000000E+00 0.  1.
         25    2    1    2    0    0 -0.11267291645E+02 -0.34271857317E+02 -0.35804236586E+03  0.38097971134E+03  0.12509873157E+03 0.  0.
          5    1    3    3  502    0  0.18064874146E+01 -0.80398929339E+02 -0.25136695885E+03  0.26395088868E+03  0.41800000000E+01 0.  1.
         -5    1    3    3    0  502 -0.13073779059E+02  0.46127072022E+02 -0.10667540701E+03  0.11702882266E+03  0.41800000000E+01 0.  1.
        -11    1    1    2    0    0  0.21501611389E+02  0.31468697082E+02 -0.11405049257E+03  0.12025021016E+03  0.00000000000E+00 0.  1.
         11    1    1    2    0    0 -0.10234319744E+02  0.28031602349E+01  0.16983026308E+02  0.20025538457E+02  0.00000000000E+00 0. -1.
</event>
<event>
 7    1  0.2530765E-009  0.8444037E+02  0.7561462E-02  0.1316903E+00
          2   -1    0    0  501    0  0.00000000000E+00  0.00000000000E+00  0.51013726976E+03  0.51013726976E+03  0.00000000000E+00 0. -1.
         -2   -1    0    0    0  501 -0.00000000000E+00 -0.00000000000E+00 -0.34337418262E+02  0.34337418262E+02  0.00000000000E+00 0.  1.
         25    2    1    2    0    0  0.30395158205E+02 -0.41448418837E+02  0.36911954644E+03  0.39311452250E+03  0.12509177101E+03 0.  0.
          5    1    3    3  502    0  0.62618057908E+02 -0.14615226381E+02  0.89194178697E+02  0.11003499412E+03  0.41800000000E+01 0.  1.
         -5    1    3    3    0  502 -0.32222899703E+02 -0.26833192456E+02  0.27992536774E+03  0.28307952838E+03  0.41800000000E+01 0.  1.
        -11    1    1    2    0    0 -0.67306087922E+00  0.30685396376E+02 -0.85591132541E+01  0.31863850699E+02  0.00000000000E+00 0.  1.
         11    1    1    2    0    0 -0.29722097326E+02  0.10763022461E+02  0.11523941832E+03  0.11949631482E+03  0.00000000000E+00 0. -1.
</event>
<event>
 7    1  0.2530765E-009  0.1579120E+03  0.7561462E-02  0.1191074E+00
          1   -1    0    0  501    0  0.00000000000E+00  0.00000000000E+00  0.47003703070E+03  0.47003703070E+03  0.00000000000E+00 0. -1.
         -1   -1    0    0    0  501 -0.00000000000E+00 -0.00000000000E+00 -0.64046915379E+02  0.64046915379E+02  0.00000000000E+00 0.  1.
         25    2    1    2    0    0  0.12853185378E+03 -0.25955536344E+02  0.25615207210E+03  0.31377896135E+03  0.12509686345E+03 0.  0.
          5    1    3    3  502    0  0.47180201500E+02 -0.69838752244E+02  0.88462776835E+02  0.12225611647E+03  0.41800000000E+01 0.  1.
         -5    1    3    3    0  502  0.81351652278E+02  0.43883215901E+02  0.16768929526E+03  0.19152284488E+03  0.41800000000E+01 0.  1.
        -11    1    1    2    0    0 -0.14033946522E+02  0.19772303458E+02 -0.77142792480E+01  0.25444169142E+02  0.00000000000E+00 0.  1.
         11    1    1    2    0    0 -0.11449790726E+03  0.61832328861E+01  0.15755232247E+03  0.19486081559E+03  0.00000000000E+00 0. -1.
</event>
<event>
 7    1  0.2530765E-009  0.8288472E+02  0.7561462E-02  0.1321059E+00
          2   -1    0    0  501    0  0.00000000000E+00  0.00000000000E+00  0.30559581053E+02  0.30559581053E+02  0.00000000000E+00 0. -1.
         -2   -1    0    0    0  501 -0.00000000000E+00 -0.00000000000E+00 -0.40543871692E+03  0.40543871692E+03  0.00000000000E+00 0.  1.
         25    2    1    2    0    0  0.21302168410E+02  0.19317618791E+02 -0.22436986746E+03  0.25848819019E+03  0.12508938512E+03 0.  0.
          5    1    3    3  502    0  0.29553671041E+00 -0.23453373538E+02  0.48644217883E+01  0.24316312870E+02  0.41800000000E+01 0.  1.
         -5    1    3    3    0  502  0.21006631699E+02  0.42770992329E+02 -0.22923428925E+03  0.23417187732E+03  0.41800000000E+01 0.  1.
        -11    1    1    2    0    0 -0.61310123294E+01  0.36118875558E+02 -0.58472195448E+02  0.69001160311E+02  0.00000000000E+00 0. -1.
         11    1    1    2    0    0 -0.15171156080E+02 -0.55436494349E+02 -0.92037072952E+02  0.10850894747E+03  0.00000000000E+00 0.  1.
</event>
<event>
 7    1  0.2530765E-009  0.3870607E+03  0.7561462E-02  0.1048355E+00
          2   -1    0    0  501    0  0.00000000000E+00  0.00000000000E+00  0.15863701957E+03  0.15863701957E+03  0.00000000000E+00 0. -1.
         -2   -1    0    0    0  501 -0.00000000000E+00 -0.00000000000E+00 -0.10629352282E+04  0.10629352282E+04  0.00000000000E+00 0.  1.
         25    2    1    2    0    0 -0.36998079850E+03 -0.94865159952E+02 -0.30190254609E+03  0.50267091891E+03  0.12509082920E+03 0.  0.
          5    1    3    3  502    0 -0.23353220128E+03 -0.74685806785E+02 -0.11633098287E+03  0.27141412776E+03  0.41800000000E+01 0. -1.
         -5    1    3    3    0  502 -0.13644859722E+03 -0.20179353168E+02 -0.18557156323E+03  0.23125679116E+03  0.41800000000E+01 0. -1.
        -11    1    1    2    0    0  0.22118540971E+03  0.14173736465E+02 -0.37179440998E+03  0.43284519585E+03  0.00000000000E+00 0. -1.
         11    1    1    2    0    0  0.14879538879E+03  0.80691423487E+02 -0.23060125256E+03  0.28605613301E+03  0.00000000000E+00 0.  1.
</event>
<event>
 7    1  0.2530765E-009  0.2326812E+03  0.7561462E-02  0.1124767E+00
         -1   -1    0    0    0  501 -0.00000000000E+00  0.00000000000E+00  0.45364585039E+02  0.45364585039E+02  0.00000000000E+00 0.  1.
          1   -1    0    0  501    0  0.00000000000E+00 -0.00000000000E+00 -0.12508601567E+04  0.12508601567E+04  0.00000000000E+00 0. -1.
         25    2    1    2    0    0  0.20617147171E+03 -0.40340527214E+02 -0.68956102201E+03  0.73162523798E+03  0.12508817648E+03 0.  0.
          5    1    3    3  502    0  0.19302747773E+03 -0.68769740752E+02 -0.51604621912E+03  0.55525674879E+03  0.41800000000E+01 0. -1.
         -5    1    3    3    0  502  0.13143993980E+02  0.28429213538E+02 -0.17351480289E+03  0.17636848920E+03  0.41800000000E+01 0. -1.
        -11    1    1    2    0    0 -0.12723226174E+03  0.69111000032E+02 -0.34420006752E+03  0.37341406673E+03  0.00000000000E+00 0.  1.
         11    1    1    2    0    0 -0.78939209977E+02 -0.28770472818E+02 -0.17173448216E+03  0.19118543705E+03  0.00000000000E+00 0. -1.
</event>
<event>
 7    1  0.2530765E-009  0.1055689E+03  0.7561462E-02  0.1269003E+00
          4   -1    0    0  501    0  0.00000000000E+00  0.00000000000E+00  0.13023148511E+02  0.13023148511E+02  0.00000000000E+00 0. -1.
         -4   -1    0    0    0  501 -0.00000000000E+00 -0.00000000000E+00 -0.10854404461E+04  0.10854404461E+04  0.00000000000E+00 0.  1.
         25    2    1    2    0    0  0.26186480600E+01  0.24084241412E+02 -0.81194263569E+03  0.82187995093E+03  0.12509557180E+03 0.  0.
          5    1    3    3  502    0 -0.48681439848E+02 -0.22073946216E+02 -0.24893583742E+03  0.25464419342E+03  0.41800000000E+01 0.  1.
         -5    1    3    3    0  502  0.51300087908E+02  0.46158187629E+02 -0.56300679827E+03  0.56723575751E+03  0.41800000000E+01 0.  1.
        -11    1    1    2    0    0  0.25638919361E+01  0.31980357694E+02 -0.13959729981E+03  0.14323659775E+03  0.00000000000E+00 0.  1.
         11    1    1    2    0    0 -0.51825399961E+01 -0.56064599106E+02 -0.12087736208E+03  0.13334704593E+03  0.00000000000E+00 0. -1.
</event>
<event>
 7    1  0.2530765E-009  0.1060183E+03  0.7561462E-02  0.1268126E+00
         -2   -1    0    0    0  501 -0.00000000000E+00  0.00000000000E+00  0.45781033896E+02  0.45781033896E+02  0.00000000000E+00 0.  1.
          2   -1    0    0  501    0  0.00000000000E+00 -0.00000000000E+00 -0.64262890943E+03  0.64262890943E+03  0.00000000000E+00 0. -1.
         25    2    1    2    0    0 -0.51855088846E+02  0.27712974098E+02 -0.55818911221E+03  0.57504716129E+03  0.12508874266E+03 0.  0.
          5    1    3    3  502    0  0.92993125184E+01 -0.24614118679E+02 -0.27559204918E+02  0.38331634813E+02  0.41800000000E+01 0. -1.
         -5    1    3    3    0  502 -0.61154401364E+02  0.52327092777E+02 -0.53062990730E+03  0.53671552648E+03  0.41800000000E+01 0. -1.
        -11    1    1    2    0    0 -0.22740940559E+02  0.51006374516E+01 -0.17562428225E+02  0.29182285125E+02  0.00000000000E+00 0. -1.
         11    1    1    2    0    0  0.74596029405E+02 -0.32813611550E+02 -0.21096335095E+02  0.84180496912E+02  0.00000000000E+00 0.  1.
</event>
<event>
 7    1  0.2530765E-009  0.9651663E+02  0.7561462E-02  0.1287796E+00
         -2   -1    0    0    0  501 -0.00000000000E+00  0.00000000000E+00  0.78053177984E+01  0.78053177984E+01  0.00000000000E+00 0.  1.
          2   -1    0    0  501    0  0.00000000000E+00 -0.00000000000E+00 -0.33933734673E+04  0.33933734673E+04  0.00000000000E+00 0. -1.
         25    2    1    2    0    0 -0.10229139134E+01 -0.21974799503E+02 -0.30637560722E+04  0.30663877091E+04  0.12509346350E+03 0.  0.
          5    1    3    3  502    0  0.52230604690E+02 -0.20429961785E+02 -0.78803425825E+03  0.79003853322E+03  0.41800000000E+01 0.  1.
         -5    1    3    3    0  502 -0.53253518603E+02 -0.15448377179E+01 -0.22757218139E+04  0.22763491759E+04  0.41800000000E+01 0.  1.
        -11    1    1    2    0    0 -0.26143889478E+02 -0.20302038664E+02 -0.63220297983E+02  0.71361626999E+02  0.00000000000E+00 0.  1.
         11    1    1    2    0    0  0.27166803392E+02  0.42276838166E+02 -0.25859177935E+03  0.26342944900E+03  0.00000000000E+00 0. -1.
</event>
<event>
 7    1  0.2530765E-009  0.1548418E+03  0.7561462E-02  0.1194647E+00
          1   -1    0    0  501    0  0.00000000000E+00  0.00000000000E+00  0.39301251597E+03  0.39301251597E+03  0.00000000000E+00 0. -1.
         -1   -1    0    0    0  501 -0.00000000000E+00 -0.00000000000E+00 -0.75537066917E+02  0.75537066917E+02  0.00000000000E+00 0.  1.
         25    2    1    2    0    0  0.10706649031E+02  0.13101831140E+03  0.19681757019E+03  0.26770160056E+03  0.12508621328E+03 0.  0.
          5    1    3    3  502    0 -0.13064056436E+02 -0.13922261365E+02 -0.28970308096E+01  0.19757634464E+02  0.41800000000E+01 0. -1.
         -5    1    3    3    0  502  0.23770705467E+02  0.14494057276E+03  0.19971460100E+03  0.24794396610E+03  0.41800000000E+01 0. -1.
        -11    1    1    2    0    0 -0.23706004925E+02 -0.18857657588E+02  0.71591398089E+02  0.77736183335E+02  0.00000000000E+00 0. -1.
         11    1    1    2    0    0  0.12999355894E+02 -0.11216065381E+03  0.49066480776E+02  0.12311179900E+03  0.00000000000E+00 0.  1.
</event>
<event>
 7    1  0.2530765E-009  0.9862966E+02  0.7561462E-02  0.1283204E+00
          2   -1    0    0  501    0  0.00000000000E+00  0.00000000000E+00  0.28012337231E+03  0.28012337231E+03  0.00000000000E+00 0. -1.
         -2   -1    0    0    0  501 -0.00000000000E+00 -0.00000000000E+00 -0.44315748559E+02  0.44315748559E+02  0.00000000000E+00 0.  1.
         25    2    1    2    0    0 -0.14677791429E+01 -0.21354742460E+02  0.14991929288E+03  0.19642174530E+03  0.12509008053E+03 0.  0.
          5    1    3    3  502    0 -0.18239846700E+02  0.40818013098E+02  0.11409693614E+03  0.12261478474E+03  0.41800000000E+01 0. -1.
         -5    1    3    3    0  502  0.16772067557E+02 -0.62172755558E+02  0.35822356745E+02  0.73806960556E+02  0.41800000000E+01 0. -1.
        -11    1    1    2    0    0 -0.14911636652E+02 -0.30227359930E+02  0.10672945916E+02  0.35354801237E+02  0.00000000000E+00 0.  1.
         11    1    1    2    0    0  0.16379415794E+02  0.51582102390E+02  0.75215384948E+02  0.92662574331E+02  0.00000000000E+00 0. -1.
</event>
<event>
 7    1  0.2530765E-009  0.1210881E+03  0.7561462E-02  0.1241313E+00
         -2   -1    0    0    0  501 -0.00000000000E+00  0.00000000000E+00  0.54348634342E+02  0.54348634342E+02  0.00000000000E+00 0.  1.
          2   -1    0    0  501    0  0.00000000000E+00 -0.00000000000E+00 -0.62367220700E+03  0.62367220700E+03  0.00000000000E+00 0. -1.
         25    2    1    2    0    0  0.63870996635E+02  0.88788439359E+02 -0.48971743221E+03  0.51713987378E+03  0.12509034525E+03 0.  0.
          5    1    3    3  502    0  0.22884927952E+02  0.33033278659E+02 -0.40792349046E+03  0.40991946026E+03  0.41800000000E+01 0.  1.
         -5    1    3    3    0  502  0.40986068683E+02  0.55755160701E+02 -0.81793941745E+02  0.10722041353E+03  0.41800000000E+01 0.  1.
        -11    1    1    2    0    0 -0.32041077813E+02 -0.94788724553E+02 -0.35520572613E+02  0.10617553413E+03  0.00000000000E+00 0.  1.
         11    1    1    2    0    0 -0.31829918821E+02  0.60002851935E+01 -0.44085567838E+02  0.54705433424E+02  0.00000000000E+00 0. -1.
</event>
<event>
 7    1  0.2530765E-009  0.9562308E+02  0.7561462E-02  0.1289779E+00
          1   -1    0    0  501    0  0.00000000000E+00  0.00000000000E+00  0.34452044341E+02  0.34452044341E+02  0.00000000000E+00 0. -1.
         -1   -1    0    0    0  501 -0.00000000000E+00 -0.00000000000E+00 -0.38657507942E+03  0.38657507942E+03  0.00000000000E+00 0.  1.
         25    2    1    2    0    0  0.15806607622E+02  0.22596729010E+02 -0.23763786987E+03  0.26996202911E+03  0.12508908408E+03 0.  0.
          5    1    3    3  502    0 -0.42964441641E+02  0.32529229198E+01 -0.18056820768E+03  0.18568488031E+03  0.41800000000E+01 0. -1.
         -5    1    3    3    0  502  0.58771049263E+02  0.19343806091E+02 -0.57069662196E+02  0.84277148793E+02  0.41800000000E+01 0. -1.
        -11    1    1    2    0    0  0.65124973385E+01 -0.50100783648E+02 -0.10142834293E+03  0.11331464995E+03  0.00000000000E+00 0. -1.
         11    1    1    2    0    0 -0.22319104960E+02  0.27504054638E+02 -0.13056822282E+02  0.37750444711E+02  0.00000000000E+00 0.  1.
</event>
<event>
 7    1  0.2530765E-009  0.6344361E+02  0.7561462E-02  0.1383924E+00
         -2   -1    0    0    0  501 -0.00000000000E+00  0.00000000000E+00  0.27229993583E+02  0.27229993583E+02  0.00000000000E+00 0.  1.
          2   -1    0    0  501    0  0.00000000000E+00 -0.00000000000E+00 -0.44253454627E+03  0.44253454627E+03  0.00000000000E+00 0. -1.
         25    2    1    2    0    0  0.69614984603E+01  0.88823224108E+01 -0.28528001889E+03  0.31170403590E+03  0.12508940285E+03 0.  0.
          5    1    3    3  502    0 -0.16523126539E+02  0.21648268580E+02 -0.28323496385E+03  0.28457192129E+03  0.41800000000E+01 0.  1.
         -5    1    3    3    0  502  0.23484625000E+02 -0.12765946169E+02 -0.20450550476E+01  0.27132114608E+02  0.41800000000E+01 0.  1.
        -11    1    1    2    0    0  0.29635045007E+02 -0.17856635644E+02 -0.11015698867E+03  0.11546279696E+03  0.00000000000E+00 0. -1.
         11    1    1    2    0    0 -0.36596543468E+02  0.89743132331E+01 -0.19867545127E+02  0.42597706994E+02  0.00000000000E+00 0.  1.
</event>
<event>
 7    1  0.2530765E-009  0.1810928E+03  0.7561462E-02  0.1166750E+00
         -1   -1    0    0    0  501 -0.00000000000E+00  0.00000000000E+00  0.73021071665E+03  0.73021071665E+03  0.00000000000E+00 0.  1.
          1   -1    0    0  501    0  0.00000000000E+00 -0.00000000000E+00 -0.46276769462E+02  0.46276769462E+02  0.00000000000E+00 0. -1.
         25    2    1    2    0    0 -0.14758621158E+03  0.48908996041E+01  0.36021698029E+03  0.40891226289E+03  0.12508938847E+03 0.  0.
          5    1    3    3  502    0  0.10497352301E+02 -0.28552884556E+02  0.42374649735E+02  0.52331108931E+02  0.41800000000E+01 0. -1.
         -5    1    3    3    0  502 -0.15808356388E+03  0.33443784160E+02  0.31784233055E+03  0.35658115396E+03  0.41800000000E+01 0. -1.
        -11    1    1    2    0    0  0.47447113388E+02 -0.41684464117E+02  0.16161095544E+03  0.17351346932E+03  0.00000000000E+00 0. -1.
         11    1    1    2    0    0  0.10013909819E+03  0.36793564512E+02  0.16210601146E+03  0.19406175390E+03  0.00000000000E+00 0.  1.
</event>
<event>
 7    1  0.2530765E-009  0.2588251E+03  0.7561462E-02  0.1107851E+00
         -1   -1    0    0    0  501 -0.00000000000E+00  0.00000000000E+00  0.12625948320E+04  0.12625948320E+04  0.00000000000E+00 0.  1.
          1   -1    0    0  501    0  0.00000000000E+00 -0.00000000000E+00 -0.63395190201E+02  0.63395190201E+02  0.00000000000E+00 0. -1.
         25    2    1    2    0    0 -0.23369395616E+03 -0.85487288673E+02  0.42998076078E+03  0.51230013014E+03  0.12508807709E+03 0.  0.
          5    1    3    3  502    0 -0.11941070957E+03 -0.15380018838E+02  0.30903969697E+03  0.33169032130E+03  0.41800000000E+01 0.  1.
         -5    1    3    3    0  502 -0.11428324658E+03 -0.70107269835E+02  0.12094106381E+03  0.18060980884E+03  0.41800000000E+01 0.  1.
        -11    1    1    2    0    0  0.16695697268E+03  0.17661482748E+02  0.43800544675E+03  0.46907923647E+03  0.00000000000E+00 0. -1.
         11    1    1    2    0    0  0.66736983477E+02  0.67825805926E+02  0.33121343427E+03  0.34461065560E+03  0.00000000000E+00 0.  1.
</event>
<event>
 7    1  0.2530765E-009  0.1057307E+03  0.7561462E-02  0.1268687E+00
          1   -1    0    0  501    0  0.00000000000E+00  0.00000000000E+00  0.53844714041E+03  0.53844714041E+03  0.00000000000E+00 0. -1.
         -1   -1    0    0    0  501 -0.00000000000E+00 -0.00000000000E+00 -0.38293893921E+02  0.38293893921E+02  0.00000000000E+00 0.  1.
         25    2    1    2    0    0 -0.59338090235E+02  0.35216282030E+02  0.26759792572E+03  0.30334385788E+03  0.12509057035E+03 0.  0.
          5    1    3    3  502    0 -0.98346372352E+02  0.26933442582E+02  0.17793231548E+03  0.20512142885E+03  0.41800000000E+01 0.  1.
         -5    1    3    3    0  502  0.39008282116E+02  0.82828394474E+01  0.89665610242E+02  0.98222429023E+02  0.41800000000E+01 0.  1.
        -11    1    1    2    0    0  0.40562689497E+02 -0.27535793204E+02  0.24482773885E+03  0.24968815229E+03  0.00000000000E+00 0. -1.
         11    1    1    2    0    0  0.18775400739E+02 -0.76804888253E+01 -0.12272418074E+02  0.23709024165E+02  0.00000000000E+00 0.  1.
</event>
<event>
 7    1  0.2530765E-009  0.1443636E+03  0.7561462E-02  0.1207575E+00
          2   -1    0    0  501    0  0.00000000000E+00  0.00000000000E+00  0.71964649830E+03  0.71964649830E+03  0.00000000000E+00 0. -1.
         -2   -1    0    0    0  501 -0.00000000000E+00 -0.00000000000E+00 -0.42515336876E+02  0.42515336876E+02  0.00000000000E+00 0.  1.
         25    2    1    2    0    0  0.11380150661E+01  0.10572828773E+03  0.17382739314E+03  0.23883626130E+03  0.12508809377E+03 0.  0.
          5    1    3    3  502    0 -0.49152775519E+02  0.58710465940E+02  0.14510522551E+03  0.16412164093E+03  0.41800000000E+01 0. -1.
         -5    1    3    3    0  502  0.50290790586E+02  0.47017821791E+02  0.28722167628E+02  0.74714620369E+02  0.41800000000E+01 0. -1.
        -11    1    1    2    0    0  0.20945270615E+02 -0.11659276937E+03  0.42881966523E+03  0.44488075202E+03  0.00000000000E+00 0. -1.
         11    1    1    2    0    0 -0.22083285681E+02  0.10864481635E+02  0.74484103056E+02  0.78444821854E+02  0.00000000000E+00 0.  1.
</event>
<event>
 7    1  0.2530765E-009  0.8111552E+02  0.7561462E-02  0.1325915E+00
         -1   -1    0    0    0  501 -0.00000000000E+00  0.00000000000E+00  0.23719614854E+02  0.23719614854E+02  0.00000000000E+00 0.  1.
          1   -1    0    0  501    0  0.00000000000E+00 -0.00000000000E+00 -0.77529160116E+03  0.77529160116E+03  0.00000000000E+00 0. -1.
         25    2    1    2    0    0  0.19419974087E+02 -0.13257927640E+02 -0.64375692362E+03  0.65621898506E+03  0.12508985410E+03 0.  0.
          5    1    3    3  502    0  0.36760120975E+02  0.26171505127E+02 -0.89923856590E+02  0.10069769888E+03  0.41800000000E+01 0. -1.
         -5    1    3    3    0  502 -0.17340146888E+02 -0.39429432767E+02 -0.55383306703E+03  0.55552128618E+03  0.41800000000E+01 0. -1.
        -11    1    1    2    0    0 -0.16728807802E+02  0.41771319924E+02 -0.10472913361E+03  0.11398634833E+03  0.00000000000E+00 0. -1.
         11    1    1    2    0    0 -0.26911662849E+01 -0.28513392284E+02 -0.30859290693E+01  0.28805882624E+02  0.00000000000E+00 0.  1.
</event>
<event>
 7    1  0.2530765E-009  0.6185575E+02  0.7561462E-02  0.1390205E+00
          2   -1    0    0  501    0  0.00000000000E+00  0.00000000000E+00  0.12688341533E+04  0.12688341533E+04  0.00000000000E+00 0. -1.
         -2   -1    0    0    0  501 -0.00000000000E+00 -0.00000000000E+00 -0.13214519455E+02  0.13214519455E+02  0.00000000000E+00 0.  1.
         25    2    1    2    0    0  0.36230217603E+01  0.20848586360E+02  0.10313652766E+04  0.10391388775E+04  0.12508989974E+03 0.  0.
          5    1    3    3  502    0  0.13965566377E+02 -0.88973377766E+01  0.96897937766E+03  0.96912987076E+03  0.41800000000E+01 0. -1.
         -5    1    3    3    0  502 -0.10342544617E+02  0.29745924137E+02  0.62385898945E+02  0.70009006699E+02  0.41800000000E+01 0. -1.
        -11    1    1    2    0    0  0.12509670721E+02  0.24075332664E+02  0.16305456597E+03  0.16529641554E+03  0.00000000000E+00 0. -1.
         11    1    1    2    0    0 -0.16132692481E+02 -0.44923919024E+02  0.61199791274E+02  0.77613379769E+02  0.00000000000E+00 0.  1.
</event>
<event>
 7    1  0.2907118E-009  0.1105662E+03  0.7561462E-02  0.1259525E+00
          1   -1    0    0  501    0  0.00000000000E+00  0.00000000000E+00  0.97740674582E+03  0.97740674582E+03  0.00000000000E+00 0. -1.
         -1   -1    0    0    0  501 -0.00000000000E+00 -0.00000000000E+00 -0.19383421430E+02  0.19383421430E+02  0.00000000000E+00 0.  1.
         25    2    1    2    0    0 -0.11766999965E+02 -0.83939276585E+02  0.53010015507E+03  0.55121493384E+03  0.12508982550E+03 0.  0.
          5    1    3    3  502    0 -0.42912396846E+02  0.36927870533E+01  0.29823843477E+03  0.30136148867E+03  0.41800000000E+01 0.  1.
         -5    1    3    3    0  502  0.31145396881E+02 -0.87632063638E+02  0.23186172030E+03  0.24985344517E+03  0.41800000000E+01 0.  1.
        -11    1    1    2    0    0  0.10430150971E+02  0.72678851157E+02  0.42798309304E+03  0.43423557130E+03  0.00000000000E+00 0. -1.
         11    1    1    2    0    0  0.13368489945E+01  0.11260425428E+02 -0.59923710703E-01  0.11339662116E+02  0.00000000000E+00 0.  1.
</event>
<event>
 7    1  0.2530765E-009  0.1602620E+03  0.7561462E-02  0.1188401E+00
         -1   -1    0    0    0  501 -0.00000000000E+00  0.00000000000E+00  0.46459060563E+02  0.46459060563E+02  0.00000000000E+00 0.  1.
          1   -1    0    0  501    0  0.00000000000E+00 -0.00000000000E+00 -0.74970829288E+03  0.74970829288E+03  0.00000000000E+00 0. -1.
         25    2    1    2    0    0  0.12711389656E+03 -0.52795754260E+02 -0.23462847396E+03  0.29940494444E+03  0.12508983010E+03 0.  0.
          5    1    3    3  502    0  0.89861282709E+02 -0.79107871113E+02 -0.22140431114E+03  0.25173487401E+03  0.41800000000E+01 0.  1.
         -5    1    3    3    0  502  0.37252613856E+02  0.26312116853E+02 -0.13224162821E+02  0.47670070428E+02  0.41800000000E+01 0.  1.
        -11    1    1    2    0    0 -0.34807730640E+02  0.52056989725E+02 -0.11126570489E+03  0.12767758368E+03  0.00000000000E+00 0.  1.
         11    1    1    2    0    0 -0.92306165924E+02  0.73876453556E+00 -0.35735505347E+03  0.36908482532E+03  0.00000000000E+00 0. -1.
</event>
<event>
 7    1  0.2530765E-009  0.1432227E+03  0.7561462E-02  0.1209057E+00
         -1   -1    0    0    0  501 -0.00000000000E+00  0.00000000000E+00  0.39612839281E+02  0.39612839281E+02  0.00000000000E+00 0.  1.
          1   -1    0    0  501    0  0.00000000000E+00 -0.00000000000E+00 -0.72190620429E+03  0.72190620429E+03  0.00000000000E+00 0. -1.
         25    2    1    2    0    0  0.11081297791E+03  0.65806483659E+02 -0.34024946466E+03  0.38474307552E+03  0.12509007391E+03 0.  0.
          5    1    3    3  502    0  0.80367152269E+02  0.50466252873E+02 -0.85854304401E+02  0.12803966505E+03  0.41800000000E+01 0.  1.
         -5    1    3    3    0  502  0.30445825645E+02  0.15340230786E+02 -0.25439516026E+03  0.25670341047E+03  0.41800000000E+01 0.  1.
        -11    1    1    2    0    0 -0.11602472935E+03 -0.28546611514E+02 -0.24195795115E+03  0.26985236144E+03  0.00000000000E+00 0.  1.
         11    1    1    2    0    0  0.52117514325E+01 -0.37259872145E+02 -0.10008594920E+03  0.10692360661E+03  0.00000000000E+00 0. -1.
</event>
<event>
 7    1  0.2530765E-009  0.1076904E+03  0.7561462E-02  0.1264908E+00
          1   -1    0    0  501    0  0.00000000000E+00  0.00000000000E+00  0.52105192533E+02  0.52105192533E+02  0.00000000000E+00 0. -1.
         -1   -1    0    0    0  501 -0.00000000000E+00 -0.00000000000E+00 -0.26972093912E+03  0.26972093912E+03  0.00000000000E+00 0.  1.
         25    2    1    2    0    0  0.11783644662E+02  0.50883411883E+02 -0.10325259989E+03  0.17039954829E+03  0.12508769238E+03 0.  0.
          5    1    3    3  502    0 -0.50269702295E+02  0.26017526788E+01 -0.16250537926E+02  0.53060008186E+02  0.41800000000E+01 0. -1.
         -5    1    3    3    0  502  0.62053346957E+02  0.48281659204E+02 -0.87002061968E+02  0.11733954010E+03  0.41800000000E+01 0. -1.
        -11    1    1    2    0    0  0.27017248608E+02 -0.34987560386E+02 -0.95926180907E+02  0.10562146225E+03  0.00000000000E+00 0.  1.
         11    1    1    2    0    0 -0.38800893270E+02 -0.15895851498E+02 -0.18436965788E+02  0.45805121120E+02  0.00000000000E+00 0. -1.
</event>
<event>
 7    1  0.2530765E-009  0.1251617E+03  0.7561462E-02  0.1234817E+00
         -2   -1    0    0    0  501 -0.00000000000E+00  0.00000000000E+00  0.93094778280E+02  0.93094778280E+02  0.00000000000E+00 0.  1.
          2   -1    0    0  501    0  0.00000000000E+00 -0.00000000000E+00 -0.32136264497E+03  0.32136264497E+03  0.00000000000E+00 0. -1.
         25    2    1    2    0    0 -0.75949724810E+02  0.78731084942E+02 -0.27900838137E+02  0.16850241488E+03  0.12509061762E+03 0.  0.
          5    1    3    3  502    0 -0.35250248443E+02  0.27985769980E+02  0.49683753666E+02  0.67169420982E+02  0.41800000000E+01 0. -1.
         -5    1    3    3    0  502 -0.40699476367E+02  0.50745314963E+02 -0.77584591803E+02  0.10133299390E+03  0.41800000000E+01 0. -1.
        -11    1    1    2    0    0  0.36085414476E+01  0.18442505111E+02 -0.46266595420E+02  0.49937415011E+02  0.00000000000E+00 0. -1.
         11    1    1    2    0    0  0.72341183362E+02 -0.97173590054E+02 -0.15410043313E+03  0.19601759336E+03  0.00000000000E+00 0.  1.
</event>
<event>
 7    1  0.2530765E-009  0.1006432E+03  0.7561462E-02  0.1278949E+00
          2   -1    0    0  501    0  0.00000000000E+00  0.00000000000E+00  0.38679279413E+02  0.38679279413E+02  0.00000000000E+00 0. -1.
         -2   -1    0    0    0  501 -0.00000000000E+00 -0.00000000000E+00 -0.35567866906E+03  0.35567866906E+03  0.00000000000E+00 0.  1.
         25    2    1    2    0    0 -0.39486018774E+01 -0.34846185969E+02 -0.13343378282E+03  0.18623149790E+03  0.12509096002E+03 0.  0.
          5    1    3    3  502    0 -0.41946796692E+02  0.30642457155E+02 -0.38842143152E+02  0.64997526245E+02  0.41800000000E+01 0.  1.
         -5    1    3    3    0  502  0.37998194815E+02 -0.65488643124E+02 -0.94591639668E+02  0.12123397165E+03  0.41800000000E+01 0.  1.
        -11    1    1    2    0    0  0.22652607712E+02  0.46205027103E+02 -0.17835713908E+03  0.18563220148E+03  0.00000000000E+00 0.  1.
         11    1    1    2    0    0 -0.18704005835E+02 -0.11358841134E+02 -0.52084677477E+01  0.22494249097E+02  0.00000000000E+00 0. -1.
</event>
<event>
 7    1  0.2530765E-009  0.8660120E+02  0.7561462E-02  0.1311298E+00
         -1   -1    0    0    0  501 -0.00000000000E+00  0.00000000000E+00  0.20253553453E+03  0.20253553453E+03  0.00000000000E+00 0.  1.
          1   -1    0    0  501    0  0.00000000000E+00 -0.00000000000E+00 -0.79756727676E+02  0.79756727676E+02  0.00000000000E+00 0. -1.
         25    2    1    2    0    0  0.87414249641E+01  0.64167918817E+02  0.52908389043E+02  0.15046958230E+03  0.12509141957E+03 0.  0.
          5    1    3    3  502    0  0.47038633708E+02  0.43245904837E+02  0.77239682106E+02  0.10033086384E+03  0.41800000000E+01 0. -1.
         -5    1    3    3    0  502 -0.38297208744E+02  0.20922013980E+02 -0.24331293064E+02  0.50138718459E+02  0.41800000000E+01 0. -1.
        -11    1    1    2    0    0 -0.90964018545E+01 -0.35105430543E+02  0.89622478810E+02  0.96681562298E+02  0.00000000000E+00 0.  1.
         11    1    1    2    0    0  0.35497689043E+00 -0.29062488274E+02 -0.19752061000E+02  0.35141117611E+02  0.00000000000E+00 0. -1.
</event>
<event>
 7    1  0.2530765E-009  0.9808698E+02  0.7561462E-02  0.1284371E+00
         -2   -1    0    0    0  501 -0.00000000000E+00  0.00000000000E+00  0.19266219085E+03  0.19266219085E+03  0.00000000000E+00 0.  1.
          2   -1    0    0  501    0  0.00000000000E+00 -0.00000000000E+00 -0.26257028842E+03  0.26257028842E+03  0.00000000000E+00 0. -1.
         25    2    1    2    0    0  0.50083963692E+02  0.32047853176E+02  0.15323859208E+03  0.20655522796E+03  0.12509007866E+03 0.  0.
          5    1    3    3  502    0 -0.29289384434E+02  0.12625358681E+02  0.10877672193E+03  0.11343330796E+03  0.41800000000E+01 0.  1.
         -5    1    3    3    0  502  0.79373348126E+02  0.19422494495E+02  0.44461870156E+02  0.93121919991E+02  0.41800000000E+01 0.  1.
        -11    1    1    2    0    0 -0.58528015461E+02 -0.39754270287E+02 -0.22606530145E+03  0.23687855775E+03  0.00000000000E+00 0. -1.
         11    1    1    2    0    0  0.84440517691E+01  0.77064171113E+01  0.29186117978E+01  0.11798693563E+02  0.00000000000E+00 0.  1.
</event>
<event>
 7    1  0.2530765E-009  0.1203307E+03  0.7561462E-02  0.1242553E+00
          1   -1    0    0  501    0  0.00000000000E+00  0.00000000000E+00  0.26385862945E+03  0.26385862945E+03  0.00000000000E+00 0. -1.
         -1   -1    0    0    0  501 -0.00000000000E+00 -0.00000000000E+00 -0.61347015295E+02  0.61347015295E+02  0.00000000000E+00 0.  1.
         25    2    1    2    0    0 -0.26818129102E+02  0.50603517505E+02  0.10227901499E+03  0.17143035557E+03  0.12508973528E+03 0.  0.
          5    1    3    3  502    0  0.42991493052E+02  0.26726769570E+02  0.79058542231E+02  0.93969751443E+02  0.41800000000E+01 0.  1.
         -5    1    3    3    0  502 -0.69809622155E+02  0.23876747935E+02  0.23220472757E+02  0.77460604131E+02  0.41800000000E+01 0.  1.
        -11    1    1    2    0    0  0.56633709263E+02 -0.62070147275E+02  0.79632947713E+02  0.11576478985E+03  0.00000000000E+00 0.  1.
         11    1    1    2    0    0 -0.29815580161E+02  0.11466629770E+02  0.20599651454E+02  0.38010499321E+02  0.00000000000E+00 0. -1.
</event>
<event>
 7    1  0.2530765E-009  0.1174356E+03  0.7561462E-02  0.1247389E+00
          1   -1    0    0  501    0  0.00000000000E+00  0.00000000000E+00  0.43444142642E+03  0.43444142642E+03  0.00000000000E+00 0. -1.
         -1   -1    0    0    0  501 -0.00000000000E+00 -0.00000000000E+00 -0.47816216547E+02  0.47816216547E+02  0.00000000000E+00 0.  1.
         25    2    1    2    0    0 -0.32020866103E+02  0.64979573920E+02  0.31089437153E+03  0.34285824749E+03  0.12509511075E+03 0.  0.
          5    1    3    3  502    0 -0.64630327488E+02  0.33066061358E+02  0.27557219496E+03  0.28500517659E+03  0.41800000000E+01 0.  1.
         -5    1    3    3    0  502  0.32609461385E+02  0.31913512562E+02  0.35322176563E+02  0.57853070904E+02  0.41800000000E+01 0.  1.
        -11    1    1    2    0    0  0.53481542229E+02 -0.75429068547E+02  0.53760798079E+02  0.10695813738E+03  0.00000000000E+00 0.  1.
         11    1    1    2    0    0 -0.21460676126E+02  0.10449494627E+02  0.21970040271E+02  0.32441258102E+02  0.00000000000E+00 0. -1.
</event>
<event>
 7    1  0.2530765E-009  0.1740545E+03  0.7561462E-02  0.1173684E+00
          3   -1    0    0  501    0  0.00000000000E+00  0.00000000000E+00  0.18451423837E+03  0.18451423837E+03  0.00000000000E+00 0. -1.
         -3   -1    0    0    0  501 -0.00000000000E+00 -0.00000000000E+00 -0.18018535896E+03  0.18018535896E+03  0.00000000000E+00 0.  1.
         25    2    1    2    0    0 -0.10027421187E+03 -0.10827722977E+03 -0.87882567825E+01  0.19365827105E+03  0.12508963361E+03 0.  0.
          5    1    3    3  502    0 -0.12535179133E+03 -0.99078400911E+02  0.10910641867E+02  0.16020647809E+03  0.41800000000E+01 0. -1.
         -5    1    3    3    0  502  0.25077579465E+02 -0.91988288622E+01 -0.19698898650E+02  0.33451792960E+02  0.41800000000E+01 0. -1.
        -11    1    1    2    0    0  0.11249593839E+02  0.57828925344E+02 -0.21957438400E+02  0.62871830489E+02  0.00000000000E+00 0.  1.
         11    1    1    2    0    0  0.89024618029E+02  0.50448304429E+02  0.35074574593E+02  0.10816949578E+03  0.00000000000E+00 0. -1.
</event>
<event>
 7    1  0.2530765E-009  0.9283696E+02  0.7561462E-02  0.1296123E+00
          2   -1    0    0  501    0  0.00000000000E+00  0.00000000000E+00  0.26889110928E+03  0.26889110928E+03  0.00000000000E+00 0.  1.
         -2   -1    0    0    0  501 -0.00000000000E+00 -0.00000000000E+00 -0.51230240664E+02  0.51230240664E+02  0.00000000000E+00 0. -1.
         25    2    1    2    0    0  0.45207478665E+02 -0.18880074156E+02  0.15383925378E+03  0.20424090165E+03  0.12509059348E+03 0.  0.
          5    1    3    3  502    0  0.57698247992E+02 -0.64253912664E+02  0.89768492098E+02  0.12463349344E+03  0.41800000000E+01 0. -1.
         -5    1    3    3    0  502 -0.12490769327E+02  0.45373838508E+02  0.64070761678E+02  0.79607408206E+02  0.41800000000E+01 0. -1.
        -11    1    1    2    0    0 -0.94063543385E+01  0.12434285387E+02 -0.19498483051E+02  0.24965612276E+02  0.00000000000E+00 0. -1.
         11    1    1    2    0    0 -0.35801124326E+02  0.64457887686E+01  0.83320097894E+02  0.90914836022E+02  0.00000000000E+00 0.  1.
</event>
<event>
 7    1  0.2530765E-009  0.1952268E+03  0.7561462E-02  0.1153830E+00
         -1   -1    0    0    0  501 -0.00000000000E+00  0.00000000000E+00  0.10816479254E+03  0.10816479254E+03  0.00000000000E+00 0.  1.
          1   -1    0    0  501    0  0.00000000000E+00 -0.00000000000E+00 -0.43621853909E+03  0.43621853909E+03  0.00000000000E+00 0. -1.
         25    2    1    2    0    0  0.95642837384E+02  0.15986200613E+03 -0.14563100068E+03  0.26750540930E+03  0.12508933727E+03 0.  0.
          5    1    3    3  502    0  0.35580373481E+02  0.47518633992E+02 -0.12492423176E+03  0.13837456282E+03  0.41800000000E+01 0.  1.
         -5    1    3    3    0  502  0.60062463902E+02  0.11234337214E+03 -0.20706768916E+02  0.12913084648E+03  0.41800000000E+01 0.  1.
        -11    1    1    2    0    0 -0.16123892353E+02 -0.10651378295E+03 -0.12584198594E+03  0.16565437298E+03  0.00000000000E+00 0.  1.
         11    1    1    2    0    0 -0.79518945031E+02 -0.53348223186E+02 -0.56580759930E+02  0.11122354935E+03  0.00000000000E+00 0. -1.
</event>
<event>
 7    1  0.2530765E-009  0.1271811E+03  0.7561462E-02  0.1231699E+00
         -1   -1    0    0    0  501 -0.00000000000E+00  0.00000000000E+00  0.27090971162E+02  0.27090971162E+02  0.00000000000E+00 0.  1.
          1   -1    0    0  501    0  0.00000000000E+00 -0.00000000000E+00 -0.11072988686E+04  0.11072988686E+04  0.00000000000E+00 0. -1.
         25    2    1    2    0    0 -0.53809793169E+01 -0.63415136328E+02 -0.93583033237E+03  0.94629594079E+03  0.12508861706E+03 0.  0.
          5    1    3    3  502    0 -0.57952826845E+02 -0.35486966455E+00 -0.39834323126E+03  0.40255863965E+03  0.41800000000E+01 0. -1.
         -5    1    3    3    0  502  0.52571847528E+02 -0.63060266663E+02 -0.53748710112E+03  0.54373730114E+03  0.41800000000E+01 0. -1.
        -11    1    1    2    0    0  0.42212134503E+02  0.64637416276E+02 -0.66322359586E+02  0.10177679138E+03  0.00000000000E+00 0.  1.
         11    1    1    2    0    0 -0.36831155186E+02 -0.12222799477E+01 -0.78055205492E+02  0.86317107603E+02  0.00000000000E+00 0. -1.
</event>
<event>
 7    1  0.2530765E-009  0.1003256E+03  0.7561462E-02  0.1279613E+00
         -2   -1    0    0    0  501 -0.00000000000E+00  0.00000000000E+00  0.20619815742E+02  0.20619815742E+02  0.00000000000E+00 0.  1.
          2   -1    0    0  501    0  0.00000000000E+00 -0.00000000000E+00 -0.70430223729E+03  0.70430223729E+03  0.00000000000E+00 0. -1.
         25    2    1    2    0    0 -0.27483244289E+02  0.37302221982E+02 -0.31050492709E+03  0.33794505816E+03  0.12508704211E+03 0.  0.
          5    1    3    3  502    0  0.19251505086E+02  0.55405684973E+02 -0.26038577081E+03  0.26694312581E+03  0.41800000000E+01 0. -1.
         -5    1    3    3    0  502 -0.46734749375E+02 -0.18103462991E+02 -0.50119156286E+02  0.71001932356E+02  0.41800000000E+01 0. -1.
        -11    1    1    2    0    0  0.41980888356E+02  0.90868553127E+01 -0.90794801429E+02  0.10044233118E+03  0.00000000000E+00 0.  1.
         11    1    1    2    0    0 -0.14497644066E+02 -0.46389077295E+02 -0.28238269303E+03  0.28653466369E+03  0.00000000000E+00 0. -1.
</event>
<event>
 7    1  0.2530765E-009  0.1892075E+03  0.7561462E-02  0.1159178E+00
         -1   -1    0    0    0  501 -0.00000000000E+00  0.00000000000E+00  0.83573284904E+02  0.83573284904E+02  0.00000000000E+00 0.  1.
          1   -1    0    0  501    0  0.00000000000E+00 -0.00000000000E+00 -0.47032322596E+03  0.47032322596E+03  0.00000000000E+00 0. -1.
         25    2    1    2    0    0  0.10780216228E+03 -0.12395392333E+03 -0.22455047185E+03  0.30505363957E+03  0.12509567261E+03 0.  0.
          5    1    3    3  502    0  0.13226042092E+03 -0.98005813588E+02 -0.15195933563E+03  0.22406934311E+03  0.41800000000E+01 0. -1.
         -5    1    3    3    0  502 -0.24458258640E+02 -0.25948109745E+02 -0.72591136216E+02  0.80984296454E+02  0.41800000000E+01 0. -1.
        -11    1    1    2    0    0 -0.41249670235E+02  0.98148889932E+02 -0.13620396577E+03  0.17287643038E+03  0.00000000000E+00 0. -1.
         11    1    1    2    0    0 -0.66552492043E+02  0.25805033401E+02 -0.25995503434E+02  0.75966440912E+02  0.00000000000E+00 0.  1.
</event>
<event>
 7    1  0.2530765E-009  0.1204981E+03  0.7561462E-02  0.1242278E+00
          2   -1    0    0  501    0  0.00000000000E+00  0.00000000000E+00  0.66944264642E+02  0.66944264642E+02  0.00000000000E+00 0. -1.
         -2   -1    0    0    0  501 -0.00000000000E+00 -0.00000000000E+00 -0.23215177847E+03  0.23215177847E+03  0.00000000000E+00 0.  1.
         25    2    1    2    0    0 -0.28369899888E+02 -0.53402883299E+02 -0.76795979606E+02  0.15874886215E+03  0.12508740778E+03 0.  0.
          5    1    3    3  502    0  0.10382636299E+01 -0.87036474979E+02 -0.25929804717E+02  0.90918937196E+02  0.41800000000E+01 0. -1.
         -5    1    3    3    0  502 -0.29408163518E+02  0.33633591680E+02 -0.50866174889E+02  0.67829924950E+02  0.41800000000E+01 0. -1.
        -11    1    1    2    0    0  0.59297316443E+02  0.17994646262E+02 -0.49009028355E+02  0.79005467480E+02  0.00000000000E+00 0. -1.
         11    1    1    2    0    0 -0.30927416555E+02  0.35408237037E+02 -0.39402505866E+02  0.61341713486E+02  0.00000000000E+00 0.  1.
</event>
<event>
 7    1  0.2530765E-009  0.1057115E+03  0.7561462E-02  0.1268724E+00
         -2   -1    0    0    0  501 -0.00000000000E+00  0.00000000000E+00  0.18155875271E+03  0.18155875271E+03  0.00000000000E+00 0.  1.
          2   -1    0    0  501    0  0.00000000000E+00 -0.00000000000E+00 -0.91647029110E+02  0.91647029110E+02  0.00000000000E+00 0. -1.
         25    2    1    2    0    0  0.90911663821E+01  0.51119525382E+02  0.91500978967E+02  0.16345055619E+03  0.12509116670E+03 0.  0.
          5    1    3    3  502    0 -0.57114064077E+02  0.12763617591E+02  0.43363674129E+02  0.72957569062E+02  0.41800000000E+01 0. -1.
         -5    1    3    3    0  502  0.66205230459E+02  0.38355907791E+02  0.48137304838E+02  0.90492987130E+02  0.41800000000E+01 0. -1.
        -11    1    1    2    0    0 -0.32733522348E+02 -0.28461678063E+02  0.38495257329E+02  0.57995132902E+02  0.00000000000E+00 0.  1.
         11    1    1    2    0    0  0.23642355966E+02 -0.22657847319E+02 -0.40084512698E+02  0.51760092725E+02  0.00000000000E+00 0. -1.
</event>
<event>
 7    1  0.2530765E-009  0.1164997E+03  0.7561462E-02  0.1248986E+00
         -1   -1    0    0    0  501 -0.00000000000E+00  0.00000000000E+00  0.10796848186E+02  0.10796848186E+02  0.00000000000E+00 0.  1.
          1   -1    0    0  501    0  0.00000000000E+00 -0.00000000000E+00 -0.14981849038E+04  0.14981849038E+04  0.00000000000E+00 0. -1.
         25    2    1    2    0    0  0.31599793744E+02 -0.55114347235E+02 -0.96025691484E+03  0.97045210936E+03  0.12509123003E+03 0.  0.
          5    1    3    3  502    0 -0.26976212817E+02 -0.58146401834E+02 -0.26343430824E+03  0.27115277476E+03  0.41800000000E+01 0. -1.
         -5    1    3    3    0  502  0.58576006561E+02  0.30320545985E+01 -0.69682260660E+03  0.69929933460E+03  0.41800000000E+01 0. -1.
        -11    1    1    2    0    0 -0.59339772129E+02  0.56835563155E+02 -0.40913982885E+03  0.41730910528E+03  0.00000000000E+00 0.  1.
         11    1    1    2    0    0  0.27739978385E+02 -0.17212159191E+01 -0.11799131187E+03  0.12122053730E+03  0.00000000000E+00 0. -1.
</event>
<event>
 7    1  0.2530765E-009  0.1524879E+03  0.7561462E-02  0.1197449E+00
         -2   -1    0    0    0  501 -0.00000000000E+00  0.00000000000E+00  0.70537678434E+02  0.70537678434E+02  0.00000000000E+00 0.  1.
          2   -1    0    0  501    0  0.00000000000E+00 -0.00000000000E+00 -0.15161399555E+04  0.15161399555E+04  0.00000000000E+00 0. -1.
         25    2    1    2    0    0  0.89312106463E+02  0.76376756404E+02 -0.14263261660E+04  0.14366154404E+04  0.12509008939E+03 0.  0.
          5    1    3    3  502    0  0.85317303217E+02 -0.37041628716E+01 -0.54833470569E+03  0.55496052555E+03  0.41800000000E+01 0.  1.
         -5    1    3    3    0  502  0.39948032458E+01  0.80080919275E+02 -0.87799146032E+03  0.88165491485E+03  0.41800000000E+01 0.  1.
        -11    1    1    2    0    0 -0.93358182204E+01 -0.55840749738E+02 -0.34214227291E+02  0.66151040674E+02  0.00000000000E+00 0. -1.
         11    1    1    2    0    0 -0.79976288243E+02 -0.20536006666E+02  0.14938116272E+02  0.83911152826E+02  0.00000000000E+00 0.  1.
</event>
<event>
 7    1  0.2530765E-009  0.1262013E+03  0.7561462E-02  0.1233204E+00
          2   -1    0    0  501    0  0.00000000000E+00  0.00000000000E+00  0.80438028317E+03  0.80438028317E+03  0.00000000000E+00 0.  1.
         -2   -1    0    0    0  501 -0.00000000000E+00 -0.00000000000E+00 -0.25295458453E+02  0.25295458453E+02  0.00000000000E+00 0. -1.
         25    2    1    2    0    0  0.63194707483E+02  0.65130199094E+02  0.47906389066E+03  0.50337550763E+03  0.12509666848E+03 0.  0.
          5    1    3    3  502    0 -0.16448788790E+02  0.53337247540E+02  0.32200391390E+03  0.32683239986E+03  0.41800000000E+01 0. -1.
         -5    1    3    3    0  502  0.79643496273E+02  0.11792951554E+02  0.15705997675E+03  0.17654310777E+03  0.41800000000E+01 0. -1.
        -11    1    1    2    0    0 -0.43703591778E+02  0.40933257156E+01  0.51929420677E+02  0.67995764438E+02  0.00000000000E+00 0. -1.
         11    1    1    2    0    0 -0.19491115705E+02 -0.69223524809E+02  0.24809151338E+03  0.25830446955E+03  0.00000000000E+00 0.  1.
</event>
<event>
 7    1  0.2530765E-009  0.1256684E+03  0.7561462E-02  0.1234028E+00
         -2   -1    0    0    0  501 -0.00000000000E+00  0.00000000000E+00  0.11881948909E+02  0.11881948909E+02  0.00000000000E+00 0.  1.
          2   -1    0    0  501    0  0.00000000000E+00 -0.00000000000E+00 -0.14833839230E+04  0.14833839230E+04  0.00000000000E+00 0. -1.
         25    2    1    2    0    0  0.68688882771E+02  0.16255531200E+02 -0.96395263430E+03  0.97459474278E+03  0.12509127297E+03 0.  0.
          5    1    3    3  502    0 -0.21289306752E+00  0.58249850037E+02 -0.52780117935E+03  0.53102226665E+03  0.41800000000E+01 0. -1.
         -5    1    3    3    0  502  0.68901775838E+02 -0.41994318837E+02 -0.43615145494E+03  0.44357247613E+03  0.41800000000E+01 0. -1.
        -11    1    1    2    0    0 -0.50759794479E+02  0.32444247040E+02 -0.20368076101E+03  0.21240300918E+03  0.00000000000E+00 0.  1.
         11    1    1    2    0    0 -0.17929088292E+02 -0.48699778240E+02 -0.30386857881E+03  0.30826811998E+03  0.00000000000E+00 0. -1.
</event>
<event>
 7    1  0.2530765E-009  0.1038683E+03  0.7561462E-02  0.1272365E+00
          2   -1    0    0  501    0  0.00000000000E+00  0.00000000000E+00  0.62556715318E+02  0.62556715318E+02  0.00000000000E+00 0. -1.
         -2   -1    0    0    0  501 -0.00000000000E+00 -0.00000000000E+00 -0.27675033381E+03  0.27675033381E+03  0.00000000000E+00 0.  1.
         25    2    1    2    0    0  0.52794253534E+02 -0.37889110690E+02 -0.17678697137E+03  0.22610622096E+03  0.12509025540E+03 0.  0.
          5    1    3    3  502    0  0.28856563431E+02  0.44247586164E+02 -0.88099202214E+02  0.10280803454E+03  0.41800000000E+01 0.  1.
         -5    1    3    3    0  502  0.23937690103E+02 -0.82136696853E+02 -0.88687769160E+02  0.12329818643E+03  0.41800000000E+01 0.  1.
        -11    1    1    2    0    0 -0.36011185374E+02  0.11475390637E+02  0.23654497345E+02  0.44587277412E+02  0.00000000000E+00 0. -1.
         11    1    1    2    0    0 -0.16783068160E+02  0.26413720052E+02 -0.61061144467E+02  0.68613550757E+02  0.00000000000E+00 0.  1.
</event>
<event>
 7    1  0.2530765E-009  0.1029174E+03  0.7561462E-02  0.1274278E+00
          4   -1    0    0  501    0  0.00000000000E+00  0.00000000000E+00  0.96672890654E+02  0.96672890654E+02  0.00000000000E+00 0. -1.
         -4   -1    0    0    0  501 -0.00000000000E+00 -0.00000000000E+00 -0.12021427922E+03  0.12021427922E+03  0.00000000000E+00 0.  1.
         25    2    1    2    0    0  0.45875635507E+02 -0.25387061686E+02 -0.30559911137E+01  0.13567195997E+03  0.12509382402E+03 0.  0.
          5    1    3    3  502    0  0.18642005427E+02 -0.72742983895E+02 -0.20885177202E+02  0.78055935707E+02  0.41800000000E+01 0.  1.
         -5    1    3    3    0  502  0.27233630080E+02  0.47355922209E+02  0.17829186088E+02  0.57616024266E+02  0.41800000000E+01 0.  1.
        -11    1    1    2    0    0 -0.20360486333E+02 -0.16891840644E+02 -0.17548703898E+02  0.31746506778E+02  0.00000000000E+00 0.  1.
         11    1    1    2    0    0 -0.25515149174E+02  0.42278902330E+02 -0.29366935510E+01  0.49468703122E+02  0.00000000000E+00 0. -1.
</event>
<event>
 7    1  0.2530765E-009  0.1086829E+03  0.7561462E-02  0.1263029E+00
          2   -1    0    0  501    0  0.00000000000E+00  0.00000000000E+00  0.21492459533E+03  0.21492459533E+03  0.00000000000E+00 0. -1.
         -2   -1    0    0    0  501 -0.00000000000E+00 -0.00000000000E+00 -0.62530011921E+02  0.62530011921E+02  0.00000000000E+00 0.  1.
         25    2    1    2    0    0  0.24218503119E+02 -0.32534394685E+02  0.10533569966E+03  0.16848850324E+03  0.12509094041E+03 0.  0.
          5    1    3    3  502    0 -0.47194125444E+02 -0.23975851581E+02  0.19840499684E+02  0.56685489882E+02  0.41800000000E+01 0. -1.
         -5    1    3    3    0  502  0.71412628563E+02 -0.85585431041E+01  0.85495199975E+02  0.11180301336E+03  0.41800000000E+01 0. -1.
        -11    1    1    2    0    0  0.10615800028E+02 -0.23758167130E+02  0.31693249646E+02  0.41007411388E+02  0.00000000000E+00 0. -1.
         11    1    1    2    0    0 -0.34834303147E+02  0.56292561815E+02  0.15365634109E+02  0.67958692623E+02  0.00000000000E+00 0.  1.
</event>
<event>
 7    1  0.2530765E-009  0.9648163E+02  0.7561462E-02  0.1287874E+00
          2   -1    0    0  501    0  0.00000000000E+00  0.00000000000E+00  0.24349157092E+03  0.24349157092E+03  0.00000000000E+00 0. -1.
         -2   -1    0    0    0  501 -0.00000000000E+00 -0.00000000000E+00 -0.64740844699E+02  0.64740844699E+02  0.00000000000E+00 0.  1.
         25    2    1    2    0    0 -0.27158149361E+02  0.32524791332E+02  0.15456089720E+03  0.20329592243E+03  0.12507891111E+03 0.  0.
          5    1    3    3  502    0 -0.75899381169E+02  0.28627802039E+02  0.11188473487E+03  0.13826038264E+03  0.41800000000E+01 0. -1.
         -5    1    3    3    0  502  0.48741231808E+02  0.38969892930E+01  0.42676162334E+02  0.65035539786E+02  0.41800000000E+01 0. -1.
        -11    1    1    2    0    0  0.33557958988E+02 -0.40396410216E+02 -0.22517164697E+02  0.57140434683E+02  0.00000000000E+00 0.  1.
         11    1    1    2    0    0 -0.63998096267E+01  0.78716188836E+01  0.46706993720E+02  0.47796058514E+02  0.00000000000E+00 0. -1.
</event>
<event>
 7    1  0.2530765E-009  0.1206203E+03  0.7561462E-02  0.1242077E+00
          1   -1    0    0  501    0  0.00000000000E+00  0.00000000000E+00  0.61717093583E+02  0.61717093583E+02  0.00000000000E+00 0. -1.
         -1   -1    0    0    0  501 -0.00000000000E+00 -0.00000000000E+00 -0.37617758359E+03  0.37617758359E+03  0.00000000000E+00 0.  1.
         25    2    1    2    0    0  0.37569883822E+02  0.53109951198E+02 -0.29364583664E+03  0.32574206114E+03  0.12509136635E+03 0.  0.
          5    1    3    3  502    0  0.43290349153E+02  0.90725193321E+02 -0.23593425090E+03  0.25649085399E+03  0.41800000000E+01 0. -1.
         -5    1    3    3    0  502 -0.57204653317E+01 -0.37615242123E+02 -0.57711585742E+02  0.69251207155E+02  0.41800000000E+01 0. -1.
        -11    1    1    2    0    0 -0.57194354405E+02 -0.14441160865E+02 -0.32354762407E+02  0.67279803458E+02  0.00000000000E+00 0.  1.
         11    1    1    2    0    0  0.19624470583E+02 -0.38668790333E+02  0.11540109039E+02  0.44872812572E+02  0.00000000000E+00 0. -1.
</event>
<event>
 7    1  0.2530765E-009  0.1184660E+03  0.7561462E-02  0.1245649E+00
         -2   -1    0    0    0  501 -0.00000000000E+00  0.00000000000E+00  0.11535501384E+03  0.11535501384E+03  0.00000000000E+00 0.  1.
          2   -1    0    0  501    0  0.00000000000E+00 -0.00000000000E+00 -0.13010225906E+03  0.13010225906E+03  0.00000000000E+00 0. -1.
         25    2    1    2    0    0  0.19763542416E+01 -0.56269215460E+02  0.15637890291E+01  0.13718757247E+03  0.12509138267E+03 0.  0.
          5    1    3    3  502    0  0.60601510365E+02 -0.35721044927E+02  0.18118577920E+02  0.72761881332E+02  0.41800000000E+01 0. -1.
         -5    1    3    3    0  502 -0.58625156123E+02 -0.20548170534E+02 -0.16554788891E+02  0.64425691133E+02  0.41800000000E+01 0. -1.
        -11    1    1    2    0    0 -0.31746926421E+02 -0.85437025891E+01 -0.16853136396E+02  0.36944423090E+02  0.00000000000E+00 0. -1.
         11    1    1    2    0    0  0.29770572179E+02  0.64812918050E+02  0.54210214149E+00  0.71325277347E+02  0.00000000000E+00 0.  1.
</event>
<event>
 7    1  0.2530765E-009  0.1013572E+03  0.7561462E-02  0.1277468E+00
          2   -1    0    0  501    0  0.00000000000E+00  0.00000000000E+00  0.25049002962E+02  0.25049002962E+02  0.00000000000E+00 0. -1.
         -2   -1    0    0    0  501 -0.00000000000E+00 -0.00000000000E+00 -0.52724107462E+03  0.52724107462E+03  0.00000000000E+00 0.  1.
         25    2    1    2    0    0 -0.23289709342E+02 -0.31952227988E+02 -0.32471092979E+03  0.35021153775E+03  0.12509027867E+03 0.  0.
          5    1    3    3  502    0  0.33497532869E+02  0.11744944283E+02 -0.29331726604E+02  0.46236900957E+02  0.41800000000E+01 0. -1.
         -5    1    3    3    0  502 -0.56787242211E+02 -0.43697172272E+02 -0.29537920318E+03  0.30397463680E+03  0.41800000000E+01 0. -1.
        -11    1    1    2    0    0 -0.32387146198E+02  0.32296804705E+01 -0.77944153921E+02  0.84466852701E+02  0.00000000000E+00 0.  1.
         11    1    1    2    0    0  0.55676855540E+02  0.28722547518E+02 -0.99536987952E+02  0.11761168713E+03  0.00000000000E+00 0. -1.
</event>
<event>
 7    1  0.2530765E-009  0.1062184E+03  0.7561462E-02  0.1267737E+00
         -1   -1    0    0    0  501 -0.00000000000E+00  0.00000000000E+00  0.84489138737E+02  0.84489138737E+02  0.00000000000E+00 0.  1.
          1   -1    0    0  501    0  0.00000000000E+00 -0.00000000000E+00 -0.17943654841E+03  0.17943654841E+03  0.00000000000E+00 0. -1.
         25    2    1    2    0    0  0.43236973966E+02  0.27541990714E+02 -0.24317135127E+02  0.13735434382E+03  0.12508755148E+03 0.  0.
          5    1    3    3  502    0 -0.40389905732E+02  0.21912759727E+02  0.90922812699E+01  0.47028241542E+02  0.41800000000E+01 0. -1.
         -5    1    3    3    0  502  0.83626879698E+02  0.56292309872E+01 -0.33409416397E+02  0.90326102282E+02  0.41800000000E+01 0. -1.
        -11    1    1    2    0    0  0.13632995853E+02  0.75164141186E+01 -0.56075608604E+02  0.58196468427E+02  0.00000000000E+00 0. -1.
         11    1    1    2    0    0 -0.56869969819E+02 -0.35058404833E+02 -0.14554665946E+02  0.68374874899E+02  0.00000000000E+00 0.  1.
</event>
<event>
 7    1  0.2530765E-009  0.8741060E+02  0.7561462E-02  0.1309246E+00
          2   -1    0    0  501    0  0.00000000000E+00  0.00000000000E+00  0.60320635167E+03  0.60320635167E+03  0.00000000000E+00 0. -1.
         -2   -1    0    0    0  501 -0.00000000000E+00 -0.00000000000E+00 -0.38657208695E+02  0.38657208695E+02  0.00000000000E+00 0.  1.
         25    2    1    2    0    0  0.12926026387E+02  0.68349878268E+02  0.47262869334E+03  0.49382615711E+03  0.12509038197E+03 0.  0.
          5    1    3    3  502    0  0.33613173515E+01  0.82960775406E+02  0.46794033572E+03  0.47526773392E+03  0.41800000000E+01 0.  1.
         -5    1    3    3    0  502  0.95647090350E+01 -0.14610897138E+02  0.46883576163E+01  0.18558423189E+02  0.41800000000E+01 0.  1.
        -11    1    1    2    0    0  0.15146388785E+01 -0.51571578390E+02 -0.19118088629E+01  0.51629224686E+02  0.00000000000E+00 0.  1.
         11    1    1    2    0    0 -0.14440665265E+02 -0.16778299877E+02  0.93832258503E+02  0.96408178574E+02  0.00000000000E+00 0. -1.
</event>
<event>
 7    1  0.2530765E-009  0.1200710E+03  0.7561462E-02  0.1242980E+00
         -1   -1    0    0    0  501 -0.00000000000E+00  0.00000000000E+00  0.64232058031E+02  0.64232058031E+02  0.00000000000E+00 0.  1.
          1   -1    0    0  501    0  0.00000000000E+00 -0.00000000000E+00 -0.22802680334E+03  0.22802680334E+03  0.00000000000E+00 0. -1.
         25    2    1    2    0    0 -0.53129475222E+02 -0.12620275262E+02 -0.10238466416E+03  0.17062330009E+03  0.12509068149E+03 0.  0.
          5    1    3    3  502    0 -0.51354488816E+02 -0.64790057913E+02 -0.74127751654E+02  0.11111899519E+03  0.41800000000E+01 0.  1.
         -5    1    3    3    0  502 -0.17749864068E+01  0.52169782651E+02 -0.28256912503E+02  0.59504304909E+02  0.41800000000E+01 0.  1.
        -11    1    1    2    0    0  0.14990952428E+02  0.49634041385E+02 -0.30428758583E+02  0.60118017830E+02  0.00000000000E+00 0.  1.
         11    1    1    2    0    0  0.38138522794E+02 -0.37013766122E+02 -0.30981322570E+02  0.61517543447E+02  0.00000000000E+00 0. -1.
</event>
<event>
 7    1  0.2530765E-009  0.8584820E+02  0.7561462E-02  0.1313229E+00
         -2   -1    0    0    0  501 -0.00000000000E+00  0.00000000000E+00  0.20909642424E+02  0.20909642424E+02  0.00000000000E+00 0.  1.
          2   -1    0    0  501    0  0.00000000000E+00 -0.00000000000E+00 -0.66683145677E+03  0.66683145677E+03  0.00000000000E+00 0. -1.
         25    2    1    2    0    0 -0.27159994575E+02 -0.37561355244E+02 -0.40627818979E+03  0.42762063337E+03  0.12509563492E+03 0.  0.
          5    1    3    3  502    0  0.36630940430E+02 -0.13086977995E+02 -0.43769095093E+02  0.58705203135E+02  0.41800000000E+01 0.  1.
         -5    1    3    3    0  502 -0.63790935005E+02 -0.24474377249E+02 -0.36250909469E+03  0.36891543024E+03  0.41800000000E+01 0.  1.
        -11    1    1    2    0    0  0.37092964913E+02  0.16028471514E+02 -0.23157181690E+03  0.23507085384E+03  0.00000000000E+00 0. -1.
         11    1    1    2    0    0 -0.99329703385E+01  0.21532883730E+02 -0.80718076627E+01  0.25049611981E+02  0.00000000000E+00 0.  1.
</event>
<event>
 7    1  0.2530765E-009  0.1441572E+03  0.7561462E-02  0.1207842E+00
         -1   -1    0    0    0  501 -0.00000000000E+00  0.00000000000E+00  0.24181518886E+02  0.24181518886E+02  0.00000000000E+00 0.  1.
          1   -1    0    0  501    0  0.00000000000E+00 -0.00000000000E+00 -0.87400776407E+03  0.87400776407E+03  0.00000000000E+00 0. -1.
         25    2    1    2    0    0 -0.93410749596E+02 -0.21060509312E+02 -0.42167824964E+03  0.45014314895E+03  0.12508874903E+03 0.  0.
          5    1    3    3  502    0 -0.12451568479E+03 -0.15010894834E+02 -0.34181631093E+03  0.36412270671E+03  0.41800000000E+01 0. -1.
         -5    1    3    3    0  502  0.31104935197E+02 -0.60496144778E+01 -0.79861938713E+02  0.86020442244E+02  0.41800000000E+01 0. -1.
        -11    1    1    2    0    0  0.86859656796E+00 -0.26707655850E+02 -0.65512349106E+02  0.70752535123E+02  0.00000000000E+00 0.  1.
         11    1    1    2    0    0  0.92542153028E+02  0.47768165162E+02 -0.36263564644E+03  0.37729359888E+03  0.00000000000E+00 0. -1.
</event>
<event>
 7    1  0.2530765E-009  0.1194534E+03  0.7561462E-02  0.1244001E+00
          1   -1    0    0  501    0  0.00000000000E+00  0.00000000000E+00  0.64164999528E+03  0.64164999528E+03  0.00000000000E+00 0. -1.
         -1   -1    0    0    0  501 -0.00000000000E+00 -0.00000000000E+00 -0.30512672921E+02  0.30512672921E+02  0.00000000000E+00 0.  1.
         25    2    1    2    0    0  0.55000993247E+01 -0.78446970724E+02  0.41425569287E+03  0.43981558132E+03  0.12508312511E+03 0.  0.
          5    1    3    3  502    0  0.53156978424E+02 -0.83817093958E+01  0.24012454230E+03  0.24611620349E+03  0.41800000000E+01 0.  1.
         -5    1    3    3    0  502 -0.47656879100E+02 -0.70065261329E+02  0.17413115058E+03  0.19369937783E+03  0.41800000000E+01 0.  1.
        -11    1    1    2    0    0  0.11103303571E+02  0.82300782957E+02  0.19855274545E+03  0.21522057279E+03  0.00000000000E+00 0. -1.
         11    1    1    2    0    0 -0.16603402895E+02 -0.38538122324E+01 -0.16711159623E+01  0.17126514093E+02  0.00000000000E+00 0.  1.
</event>
<event>
 7    1  0.2530765E-009  0.1747894E+03  0.7561462E-02  0.1172943E+00
          1   -1    0    0  501    0  0.00000000000E+00  0.00000000000E+00  0.26658117386E+03  0.26658117386E+03  0.00000000000E+00 0. -1.
         -1   -1    0    0    0  501 -0.00000000000E+00 -0.00000000000E+00 -0.12988917729E+03  0.12988917729E+03  0.00000000000E+00 0.  1.
         25    2    1    2    0    0 -0.14024940967E+03  0.10225521677E+02  0.17017910111E+02  0.18898011147E+03  0.12509762212E+03 0.  0.
          5    1    3    3  502    0 -0.49628956867E+02  0.64772014950E+02 -0.37817496978E+00  0.81707176532E+02  0.41800000000E+01 0. -1.
         -5    1    3    3    0  502 -0.90620452798E+02 -0.54546493273E+02  0.17396085080E+02  0.10727293494E+03  0.41800000000E+01 0. -1.
        -11    1    1    2    0    0  0.89256308905E+02  0.33009571097E+02  0.99442264836E+02  0.13764114392E+03  0.00000000000E+00 0. -1.
         11    1    1    2    0    0  0.50993100760E+02 -0.43235092774E+02  0.20231821621E+02  0.69849095759E+02  0.00000000000E+00 0.  1.
</event>
<event>
 7    1  0.2530765E-009  0.8643865E+02  0.7561462E-02  0.1311713E+00
         -4   -1    0    0    0  501 -0.00000000000E+00  0.00000000000E+00  0.23011671260E+02  0.23011671260E+02  0.00000000000E+00 0. -1.
          4   -1    0    0  501    0  0.00000000000E+00 -0.00000000000E+00 -0.65671608535E+03  0.65671608535E+03  0.00000000000E+00 0.  1.
         25    2    1    2    0    0 -0.24874285521E+02 -0.45091319205E+02 -0.28546724183E+03  0.31589710762E+03  0.12508988487E+03 0.  0.
          5    1    3    3  502    0  0.32886300908E+01 -0.39493327802E+02 -0.28406517836E+03  0.28684671166E+03  0.41800000000E+01 0.  1.
         -5    1    3    3    0  502 -0.28162915611E+02 -0.55979914030E+01 -0.14020634638E+01  0.29050395960E+02  0.41800000000E+01 0.  1.
        -11    1    1    2    0    0 -0.71128582444E+01  0.65619084881E+02 -0.24789480357E+03  0.25653126650E+03  0.00000000000E+00 0. -1.
         11    1    1    2    0    0  0.31987143765E+02 -0.20527765675E+02 -0.10034236869E+03  0.10729938250E+03  0.00000000000E+00 0.  1.
</event>
<event>
 7    1  0.2530765E-009  0.1343519E+03  0.7561462E-02  0.1221138E+00
         -1   -1    0    0    0  501 -0.00000000000E+00  0.00000000000E+00  0.60466446090E+02  0.60466446090E+02  0.00000000000E+00 0.  1.
          1   -1    0    0  501    0  0.00000000000E+00 -0.00000000000E+00 -0.38229099070E+03  0.38229099070E+03  0.00000000000E+00 0. -1.
         25    2    1    2    0    0 -0.27427047172E+02  0.99857937767E+02 -0.20573914422E+03  0.26211158458E+03  0.12510010655E+03 0.  0.
          5    1    3    3  502    0 -0.53639578546E+02  0.48121527968E+02 -0.32106994786E+02  0.79001375651E+02  0.41800000000E+01 0. -1.
         -5    1    3    3    0  502  0.26212531375E+02  0.51736409799E+02 -0.17363214943E+03  0.18311020893E+03  0.41800000000E+01 0. -1.
        -11    1    1    2    0    0 -0.13403588655E+02 -0.96475518571E+02 -0.79806734388E+02  0.12592178813E+03  0.00000000000E+00 0.  1.
         11    1    1    2    0    0  0.40830635827E+02 -0.33824191955E+01 -0.36278666004E+02  0.54724064073E+02  0.00000000000E+00 0. -1.
</event>
<event>
 7    1  0.2530765E-009  0.9442787E+02  0.7561462E-02  0.1292470E+00
          1   -1    0    0  501    0  0.00000000000E+00  0.00000000000E+00  0.29428176841E+02  0.29428176841E+02  0.00000000000E+00 0. -1.
         -1   -1    0    0    0  501 -0.00000000000E+00 -0.00000000000E+00 -0.57223830722E+03  0.57223830722E+03  0.00000000000E+00 0.  1.
         25    2    1    2    0    0 -0.50499193793E+02  0.27541259933E+02 -0.40049971750E+03  0.42350031560E+03  0.12507519346E+03 0.  0.
          5    1    3    3  502    0  0.31579627042E+02  0.32473863139E+02 -0.74720868469E+02  0.87478598617E+02  0.41800000000E+01 0. -1.
         -5    1    3    3    0  502 -0.82078820834E+02 -0.49326032056E+01 -0.32577884904E+03  0.33602171698E+03  0.41800000000E+01 0. -1.
        -11    1    1    2    0    0  0.16099714216E+02 -0.20248772820E+02 -0.14060062689E+03  0.14296065850E+03  0.00000000000E+00 0.  1.
         11    1    1    2    0    0  0.34399479577E+02 -0.72924871127E+01 -0.17097859880E+01  0.35205509960E+02  0.00000000000E+00 0. -1.
</event>
<event>
 7    1  0.2530765E-009  0.1628482E+03  0.7561462E-02  0.1185518E+00
          2   -1    0    0  501    0  0.00000000000E+00  0.00000000000E+00  0.68000156622E+03  0.68000156622E+03  0.00000000000E+00 0. -1.
         -2   -1    0    0    0  501 -0.00000000000E+00 -0.00000000000E+00 -0.52691858428E+02  0.52691858428E+02  0.00000000000E+00 0.  1.
         25    2    1    2    0    0  0.15358051405E+03 -0.83075064006E+01  0.36620932353E+03  0.41642818815E+03  0.12508868169E+03 0.  0.
          5    1    3    3  502    0  0.50168092707E+02 -0.38718787553E+02  0.24969504588E+03  0.25764524131E+03  0.41800000000E+01 0.  1.
         -5    1    3    3    0  502  0.10341242134E+03  0.30411281152E+02  0.11651427766E+03  0.15878294684E+03  0.41800000000E+01 0.  1.
        -11    1    1    2    0    0 -0.28260913926E+02  0.64191201277E+01  0.27411349691E+01  0.29110104433E+02  0.00000000000E+00 0.  1.
         11    1    1    2    0    0 -0.12531960012E+03  0.18883862729E+01  0.25835924929E+03  0.28715513206E+03  0.00000000000E+00 0. -1.
</event>
<event>
 7    1  0.2530765E-009  0.2015669E+03  0.7561462E-02  0.1148424E+00
         -1   -1    0    0    0  501 -0.00000000000E+00  0.00000000000E+00  0.34575496623E+03  0.34575496623E+03  0.00000000000E+00 0.  1.
          1   -1    0    0  501    0  0.00000000000E+00 -0.00000000000E+00 -0.15476032621E+03  0.15476032621E+03  0.00000000000E+00 0. -1.
         25    2    1    2    0    0 -0.17585489183E+03 -0.33696187504E+02  0.20404464681E+03  0.29890175145E+03  0.12509061953E+03 0.  0.
          5    1    3    3  502    0 -0.52508674831E+02  0.47192582240E+02  0.71085648059E+02  0.10027433625E+03  0.41800000000E+01 0.  1.
         -5    1    3    3    0  502 -0.12334621700E+03 -0.80888769743E+02  0.13295899875E+03  0.19862741520E+03  0.41800000000E+01 0.  1.
        -11    1    1    2    0    0  0.10706920762E+03 -0.25439379100E+01 -0.46771839339E+02  0.11686698335E+03  0.00000000000E+00 0. -1.
         11    1    1    2    0    0  0.68785684207E+02  0.36240125414E+02  0.33721832552E+02  0.84746557644E+02  0.00000000000E+00 0.  1.
</event>
<event>
 7    1  0.2530765E-009  0.2095969E+03  0.7561462E-02  0.1141886E+00
         -2   -1    0    0    0  501 -0.00000000000E+00  0.00000000000E+00  0.23402864973E+03  0.23402864973E+03  0.00000000000E+00 0.  1.
          2   -1    0    0  501    0  0.00000000000E+00 -0.00000000000E+00 -0.21715886133E+03  0.21715886133E+03  0.00000000000E+00 0. -1.
         25    2    1    2    0    0 -0.15108954512E+03  0.11870414264E+03  0.52211678128E+02  0.23514176112E+03  0.12508742689E+03 0.  0.
          5    1    3    3  502    0 -0.17130709080E+03  0.11389751530E+03  0.37016829995E+02  0.20906095152E+03  0.41800000000E+01 0.  1.
         -5    1    3    3    0  502  0.20217545678E+02  0.48066273485E+01  0.15194848134E+02  0.26080809603E+02  0.41800000000E+01 0.  1.
        -11    1    1    2    0    0  0.13871015225E+03 -0.11102327369E+03  0.16075557111E+00  0.17767019863E+03  0.00000000000E+00 0.  1.
         11    1    1    2    0    0  0.12379392862E+02 -0.76808689548E+01 -0.35502645293E+02  0.38375551310E+02  0.00000000000E+00 0. -1.
</event>
<event>
 7    1  0.2530765E-009  0.2781460E+03  0.7561462E-02  0.1096706E+00
          1   -1    0    0  501    0  0.00000000000E+00  0.00000000000E+00  0.71662917116E+03  0.71662917116E+03  0.00000000000E+00 0. -1.
         -1   -1    0    0    0  501 -0.00000000000E+00 -0.00000000000E+00 -0.11647252730E+03  0.11647252730E+03  0.00000000000E+00 0.  1.
         25    2    1    2    0    0  0.26025409070E+03 -0.41135625531E+02  0.23173467699E+03  0.37252211296E+03  0.12508969867E+03 0.  0.
          5    1    3    3  502    0  0.10874571316E+03 -0.68108942383E+02  0.59455247130E+02  0.14148094209E+03  0.41800000000E+01 0. -1.
         -5    1    3    3    0  502  0.15150837754E+03  0.26973316852E+02  0.17227942986E+03  0.23104117088E+03  0.41800000000E+01 0. -1.
        -11    1    1    2    0    0 -0.14678048758E+03  0.60660779395E+02  0.18291214531E+03  0.24224181017E+03  0.00000000000E+00 0.  1.
         11    1    1    2    0    0 -0.11347360311E+03 -0.19525153864E+02  0.18550982156E+03  0.21833777532E+03  0.00000000000E+00 0. -1.
</event>
<event>
 7    1  0.2530765E-009  0.9688658E+02  0.7561462E-02  0.1286983E+00
         -1   -1    0    0    0  501 -0.00000000000E+00  0.00000000000E+00  0.18457901778E+02  0.18457901778E+02  0.00000000000E+00 0.  1.
          1   -1    0    0  501    0  0.00000000000E+00 -0.00000000000E+00 -0.61071183050E+03  0.61071183050E+03  0.00000000000E+00 0. -1.
         25    2    1    2    0    0  0.15842971089E+02  0.93362227351E+01 -0.30983187898E+03  0.33463593231E+03  0.12508896503E+03 0.  0.
          5    1    3    3  502    0 -0.87972420540E+00  0.63300262327E+02 -0.11058375693E+03  0.12749092839E+03  0.41800000000E+01 0. -1.
         -5    1    3    3    0  502  0.16722695295E+02 -0.53964039592E+02 -0.19924812205E+03  0.20714500392E+03  0.41800000000E+01 0. -1.
        -11    1    1    2    0    0 -0.44456605371E+02 -0.63998150082E+01 -0.23351469196E+03  0.23779499313E+03  0.00000000000E+00 0. -1.
         11    1    1    2    0    0  0.28613634281E+02 -0.29364077270E+01 -0.48907357782E+02  0.56738806847E+02  0.00000000000E+00 0.  1.
</event>
<event>
 7    1  0.2530765E-009  0.1238208E+03  0.7561462E-02  0.1236924E+00
         -1   -1    0    0    0  501 -0.00000000000E+00  0.00000000000E+00  0.55585046944E+02  0.55585046944E+02  0.00000000000E+00 0.  1.
          1   -1    0    0  501    0  0.00000000000E+00 -0.00000000000E+00 -0.51610204064E+03  0.51610204064E+03  0.00000000000E+00 0. -1.
         25    2    1    2    0    0  0.58160319933E+02 -0.33416774742E+02 -0.43350963936E+03  0.45615489549E+03  0.12508947843E+03 0.  0.
          5    1    3    3  502    0 -0.15078214211E+02 -0.59168931210E+02 -0.14577601325E+03  0.15810260404E+03  0.41800000000E+01 0.  1.
         -5    1    3    3    0  502  0.73238534143E+02  0.25752156468E+02 -0.28773362611E+03  0.29805229145E+03  0.41800000000E+01 0.  1.
        -11    1    1    2    0    0 -0.77981293180E+02  0.10973930464E+02 -0.60452030564E+01  0.78981350431E+02  0.00000000000E+00 0.  1.
         11    1    1    2    0    0  0.19820973248E+02  0.22442844278E+02 -0.20962151276E+02  0.36550841658E+02  0.00000000000E+00 0. -1.
</event>
<event>
 7    1  0.2530765E-009  0.6522535E+02  0.7561462E-02  0.1377126E+00
         -1   -1    0    0    0  501 -0.00000000000E+00  0.00000000000E+00  0.26881508891E+03  0.26881508891E+03  0.00000000000E+00 0.  1.
          1   -1    0    0  501    0  0.00000000000E+00 -0.00000000000E+00 -0.45314433003E+02  0.45314433003E+02  0.00000000000E+00 0. -1.
         25    2    1    2    0    0 -0.10099936533E+02  0.29873002948E+01  0.10195330092E+03  0.16171971828E+03  0.12509140271E+03 0.  0.
          5    1    3    3  502    0 -0.36456457780E+02  0.10707623042E+02 -0.15334604075E+02  0.41186757425E+02  0.41800000000E+01 0. -1.
         -5    1    3    3    0  502  0.26356521247E+02 -0.77203227473E+01  0.11728790500E+03  0.12053296086E+03  0.41800000000E+01 0. -1.
        -11    1    1    2    0    0 -0.27137381895E+02 -0.14221562844E+01  0.11012539938E+03  0.11342867191E+03  0.00000000000E+00 0.  1.
         11    1    1    2    0    0  0.37237318428E+02 -0.15651440105E+01  0.11421955609E+02  0.38981131710E+02  0.00000000000E+00 0. -1.
</event>
<event>
 7    1  0.2530765E-009  0.9228690E+02  0.7561462E-02  0.1297406E+00
          2   -1    0    0  501    0  0.00000000000E+00  0.00000000000E+00  0.75329793724E+03  0.75329793724E+03  0.00000000000E+00 0. -1.
         -2   -1    0    0    0  501 -0.00000000000E+00 -0.00000000000E+00 -0.17538046956E+02  0.17538046956E+02  0.00000000000E+00 0.  1.
         25    2    1    2    0    0 -0.16647255261E+02 -0.33496019833E+02  0.56298287842E+03  0.57792356083E+03  0.12508719483E+03 0.  0.
          5    1    3    3  502    0  0.29244442876E+02  0.26383988374E+02  0.82263441665E+02  0.91302237192E+02  0.41800000000E+01 0.  1.
         -5    1    3    3    0  502 -0.45891698137E+02 -0.59880008206E+02  0.48071943676E+03  0.48662132363E+03  0.41800000000E+01 0.  1.
        -11    1    1    2    0    0  0.10309594842E+02 -0.16257622234E+02  0.11413521037E+03  0.11574732944E+03  0.00000000000E+00 0. -1.
         11    1    1    2    0    0  0.63376604185E+01  0.49753642067E+02  0.58641801491E+02  0.77165093926E+02  0.00000000000E+00 0.  1.
</event>
<event>
 7    1  0.2530765E-009  0.1312974E+03  0.7561462E-02  0.1225543E+00
         -2   -1    0    0    0  501 -0.00000000000E+00  0.00000000000E+00  0.12763690681E+03  0.12763690681E+03  0.00000000000E+00 0.  1.
          2   -1    0    0  501    0  0.00000000000E+00 -0.00000000000E+00 -0.16056621487E+03  0.16056621487E+03  0.00000000000E+00 0. -1.
         25    2    1    2    0    0  0.22483875978E+02  0.77934108297E+02 -0.69488601901E+02  0.16449382687E+03  0.12510117253E+03 0.  0.
          5    1    3    3  502    0 -0.22832596904E+02  0.96798895146E+02 -0.51255017262E+02  0.11196384585E+03  0.41800000000E+01 0.  1.
         -5    1    3    3    0  502  0.45316472882E+02 -0.18864786849E+02 -0.18233584638E+02  0.52529981021E+02  0.41800000000E+01 0.  1.
        -11    1    1    2    0    0 -0.44132178025E+02 -0.80684521904E+02  0.42176548559E+02  0.10117560210E+03  0.00000000000E+00 0.  1.
         11    1    1    2    0    0  0.21648302047E+02  0.27504136071E+01 -0.56172547228E+01  0.22533692710E+02  0.00000000000E+00 0. -1.
</event>
<event>
 7    1  0.2530765E-009  0.1424091E+03  0.7561462E-02  0.1210124E+00
         -1   -1    0    0    0  501 -0.00000000000E+00  0.00000000000E+00  0.59673787271E+03  0.59673787271E+03  0.00000000000E+00 0.  1.
          1   -1    0    0  501    0  0.00000000000E+00 -0.00000000000E+00 -0.40094161864E+02  0.40094161864E+02  0.00000000000E+00 0. -1.
         25    2    1    2    0    0  0.12769789057E+01 -0.10933186279E+03  0.27427212841E+03  0.32066793549E+03  0.12509051734E+03 0.  0.
          5    1    3    3  502    0 -0.21611222531E+02  0.16827884523E+02  0.15272318444E+02  0.31637616020E+02  0.41800000000E+01 0. -1.
         -5    1    3    3    0  502  0.22888201437E+02 -0.12615974731E+03  0.25899980997E+03  0.28903031947E+03  0.41800000000E+01 0. -1.
        -11    1    1    2    0    0  0.33415847343E+02  0.51933907716E+02  0.20333667944E+03  0.21250777593E+03  0.00000000000E+00 0.  1.
         11    1    1    2    0    0 -0.34692826249E+02  0.57397955074E+02  0.79034902994E+02  0.10365632316E+03  0.00000000000E+00 0. -1.
</event>
<event>
 7    1  0.2530765E-009  0.9499466E+02  0.7561462E-02  0.1291188E+00
          1   -1    0    0  501    0  0.00000000000E+00  0.00000000000E+00  0.77531390330E+02  0.77531390330E+02  0.00000000000E+00 0. -1.
         -1   -1    0    0    0  501 -0.00000000000E+00 -0.00000000000E+00 -0.15607001371E+03  0.15607001371E+03  0.00000000000E+00 0.  1.
         25    2    1    2    0    0 -0.39194499800E+01  0.92275099630E+01 -0.24525209012E+02  0.12786486169E+03  0.12508967963E+03 0.  0.
          5    1    3    3  502    0  0.45513610081E+02  0.38272730485E+02  0.10525108841E+02  0.60535451741E+02  0.41800000000E+01 0.  1.
         -5    1    3    3    0  502 -0.49433060061E+02 -0.29045220522E+02 -0.35050317854E+02  0.67329409947E+02  0.41800000000E+01 0.  1.
        -11    1    1    2    0    0 -0.34191438339E+02 -0.44785860026E+01 -0.57632127598E+02  0.67160809404E+02  0.00000000000E+00 0.  1.
         11    1    1    2    0    0  0.38110888319E+02 -0.47489239604E+01  0.36187132276E+01  0.38575732951E+02  0.00000000000E+00 0. -1.
</event>
<event>
 7    1  0.2530765E-009  0.9211635E+02  0.7561462E-02  0.1297806E+00
         -1   -1    0    0    0  501 -0.00000000000E+00  0.00000000000E+00  0.86480265236E+02  0.86480265236E+02  0.00000000000E+00 0.  1.
          1   -1    0    0  501    0  0.00000000000E+00 -0.00000000000E+00 -0.21761312381E+03  0.21761312381E+03  0.00000000000E+00 0. -1.
         25    2    1    2    0    0 -0.46702319641E+02 -0.43306847009E+02 -0.11554192345E+02  0.14084802526E+03  0.12509227475E+03 0.  0.
          5    1    3    3  502    0  0.10103066639E+02  0.18342048124E+02 -0.45537418263E+02  0.50295442607E+02  0.41800000000E+01 0. -1.
         -5    1    3    3    0  502 -0.56805386281E+02 -0.61648895134E+02  0.33983225919E+02  0.90552582655E+02  0.41800000000E+01 0. -1.
        -11    1    1    2    0    0  0.17094922217E+02 -0.86392284089E+01 -0.97726793547E+02  0.99586137640E+02  0.00000000000E+00 0. -1.
         11    1    1    2    0    0  0.29607397425E+02  0.51946075418E+02 -0.21851872684E+02  0.63659226145E+02  0.00000000000E+00 0.  1.
</event>
<event>
 7    1  0.2530765E-009  0.7292359E+02  0.7561462E-02  0.1350424E+00
         -2   -1    0    0    0  501 -0.00000000000E+00  0.00000000000E+00  0.12885255070E+03  0.12885255070E+03  0.00000000000E+00 0.  1.
          2   -1    0    0  501    0  0.00000000000E+00 -0.00000000000E+00 -0.94661786788E+02  0.94661786788E+02  0.00000000000E+00 0. -1.
         25    2    1    2    0    0 -0.20821293251E+02  0.21198775265E+02  0.24431395704E+02  0.13087082843E+03  0.12508943326E+03 0.  0.
          5    1    3    3  502    0 -0.23671376865E+02 -0.20650146947E+02 -0.41744031746E+02  0.52409915455E+02  0.41800000000E+01 0. -1.
         -5    1    3    3    0  502  0.28500836133E+01  0.41848922212E+02  0.66175427449E+02  0.78460912976E+02  0.41800000000E+01 0. -1.
        -11    1    1    2    0    0  0.53534883047E+01 -0.44069624434E+02  0.33987613736E+02  0.55910191577E+02  0.00000000000E+00 0.  1.
         11    1    1    2    0    0  0.15467804946E+02  0.22870849169E+02 -0.24228245529E+02  0.36733317479E+02  0.00000000000E+00 0. -1.
</event>
<event>
 7    1  0.2530765E-009  0.1155180E+03  0.7561462E-02  0.1250680E+00
         -2   -1    0    0    0  501 -0.00000000000E+00  0.00000000000E+00  0.38124081834E+02  0.38124081834E+02  0.00000000000E+00 0. -1.
          2   -1    0    0  501    0  0.00000000000E+00 -0.00000000000E+00 -0.57099521554E+03  0.57099521554E+03  0.00000000000E+00 0.  1.
         25    2    1    2    0    0 -0.36220130180E+02  0.67446364400E+02 -0.15415236964E+03  0.21277057799E+03  0.12508979132E+03 0.  0.
          5    1    3    3  502    0 -0.56000601286E+02  0.14950880141E+00 -0.12435286555E+03  0.13644485065E+03  0.41800000000E+01 0. -1.
         -5    1    3    3    0  502  0.19780471106E+02  0.67296855599E+02 -0.29799504086E+02  0.76325727343E+02  0.41800000000E+01 0. -1.
        -11    1    1    2    0    0  0.56260814045E+02 -0.62252175478E+02 -0.35537752212E+03  0.36514900490E+03  0.00000000000E+00 0.  1.
         11    1    1    2    0    0 -0.20040683866E+02 -0.51941889224E+01 -0.23341241949E+02  0.31199714487E+02  0.00000000000E+00 0. -1.
</event>
<event>
 7    1  0.2530765E-009  0.8526848E+02  0.7561462E-02  0.1314732E+00
         -1   -1    0    0    0  501 -0.00000000000E+00  0.00000000000E+00  0.32317467494E+02  0.32317467494E+02  0.00000000000E+00 0.  1.
          1   -1    0    0  501    0  0.00000000000E+00 -0.00000000000E+00 -0.37500870686E+03  0.37500870686E+03  0.00000000000E+00 0. -1.
         25    2    1    2    0    0 -0.37850913306E+01  0.18424289333E+02 -0.20940757463E+03  0.24464833103E+03  0.12508993647E+03 0.  0.
          5    1    3    3  502    0 -0.11476357343E+01  0.72167793222E+02 -0.11258312518E+03  0.13379813124E+03  0.41800000000E+01 0.  1.
         -5    1    3    3    0  502 -0.26374555964E+01 -0.53743503888E+02 -0.96824449451E+02  0.11085019979E+03  0.41800000000E+01 0.  1.
        -11    1    1    2    0    0  0.19650411620E+02 -0.20347805406E+02 -0.14178268111E+03  0.14457697094E+03  0.00000000000E+00 0. -1.
         11    1    1    2    0    0 -0.15865320290E+02  0.19235160732E+01  0.84990163783E+01  0.18100872393E+02  0.00000000000E+00 0.  1.
</event>
<event>
 7    1  0.2530765E-009  0.1261286E+03  0.7561462E-02  0.1233316E+00
          1   -1    0    0  501    0  0.00000000000E+00  0.00000000000E+00  0.46285793479E+02  0.46285793479E+02  0.00000000000E+00 0. -1.
         -1   -1    0    0    0  501 -0.00000000000E+00 -0.00000000000E+00 -0.37023976050E+03  0.37023976050E+03  0.00000000000E+00 0.  1.
         25    2    1    2    0    0 -0.71727925535E+02  0.20544235295E+02 -0.18590027276E+03  0.23616486518E+03  0.12509185117E+03 0.  0.
          5    1    3    3  502    0  0.10813851313E+02  0.51612887193E+02 -0.42925280619E+02  0.68124016476E+02  0.41800000000E+01 0.  1.
         -5    1    3    3    0  502 -0.82541776848E+02 -0.31068651897E+02 -0.14297499214E+03  0.16804084870E+03  0.41800000000E+01 0.  1.
        -11    1    1    2    0    0 -0.18709015098E+02 -0.37379393858E+01 -0.71600481844E+01  0.20378069752E+02  0.00000000000E+00 0. -1.
         11    1    1    2    0    0  0.90436940633E+02 -0.16806295910E+02 -0.13089364608E+03  0.15998261904E+03  0.00000000000E+00 0.  1.
</event>
<event>
 7    1  0.2530765E-009  0.1822639E+03  0.7561462E-02  0.1165630E+00
         -1   -1    0    0    0  501 -0.00000000000E+00  0.00000000000E+00  0.50455869441E+03  0.50455869441E+03  0.00000000000E+00 0.  1.
          1   -1    0    0  501    0  0.00000000000E+00 -0.00000000000E+00 -0.85573502957E+02  0.85573502957E+02  0.00000000000E+00 0. -1.
         25    2    1    2    0    0 -0.16931807381E+03  0.20702796572E+02  0.15590348725E+03  0.26277598794E+03  0.12509239224E+03 0.  0.
          5    1    3    3  502    0 -0.73493411502E+02  0.54975009374E+02  0.21886241645E+02  0.94445821311E+02  0.41800000000E+01 0.  1.
         -5    1    3    3    0  502 -0.95824662308E+02 -0.34272212803E+02  0.13401724561E+03  0.16833016663E+03  0.41800000000E+01 0.  1.
        -11    1    1    2    0    0  0.43835727796E+02 -0.15572217162E+01  0.11157551487E+02  0.45260213500E+02  0.00000000000E+00 0. -1.
         11    1    1    2    0    0  0.12548234601E+03 -0.19145574855E+02  0.25192415272E+03  0.28209599593E+03  0.00000000000E+00 0.  1.
</event>
<event>
 7    1  0.2530765E-009  0.1722954E+03  0.7561462E-02  0.1175475E+00
          1   -1    0    0  501    0  0.00000000000E+00  0.00000000000E+00  0.72997558484E+02  0.72997558484E+02  0.00000000000E+00 0. -1.
         -1   -1    0    0    0  501 -0.00000000000E+00 -0.00000000000E+00 -0.55828518593E+03  0.55828518593E+03  0.00000000000E+00 0.  1.
         25    2    1    2    0    0  0.33126154440E+01  0.16788863523E+03 -0.21971615224E+03  0.30351431753E+03  0.12509271014E+03 0.  0.
          5    1    3    3  502    0 -0.15711259754E+02  0.14734367508E+03 -0.96018388135E+02  0.17661824801E+03  0.41800000000E+01 0. -1.
         -5    1    3    3    0  502  0.19023875198E+02  0.20544960147E+02 -0.12369776411E+03  0.12689606952E+03  0.41800000000E+01 0. -1.
        -11    1    1    2    0    0 -0.46660623689E+01 -0.75487486837E+02 -0.43529061249E+02  0.87263463031E+02  0.00000000000E+00 0. -1.
         11    1    1    2    0    0  0.13534469249E+01 -0.92401148392E+02 -0.22204241396E+03  0.24050496385E+03  0.00000000000E+00 0.  1.
</event>
<event>
 7    1  0.2530765E-009  0.1125812E+03  0.7561462E-02  0.1255863E+00
          1   -1    0    0  501    0  0.00000000000E+00  0.00000000000E+00  0.46357462154E+03  0.46357462154E+03  0.00000000000E+00 0. -1.
         -1   -1    0    0    0  501 -0.00000000000E+00 -0.00000000000E+00 -0.35426686128E+02  0.35426686128E+02  0.00000000000E+00 0.  1.
         25    2    1    2    0    0 -0.23452016710E+02 -0.30832010463E+02  0.33440904086E+03  0.35913462894E+03  0.12509062771E+03 0.  0.
          5    1    3    3  502    0 -0.34491523359E+01  0.46722248144E+02  0.84976641757E+02  0.97125522741E+02  0.41800000000E+01 0. -1.
         -5    1    3    3    0  502 -0.20002864374E+02 -0.77554258608E+02  0.24943239910E+03  0.26200910620E+03  0.41800000000E+01 0. -1.
        -11    1    1    2    0    0 -0.21176513518E+02  0.46121462546E+02  0.71582292649E+02  0.87747698848E+02  0.00000000000E+00 0. -1.
         11    1    1    2    0    0  0.44628530228E+02 -0.15289452083E+02  0.22156601904E+02  0.52118979876E+02  0.00000000000E+00 0.  1.
</event>
<event>
 7    1  0.2530765E-009  0.1013374E+03  0.7561462E-02  0.1277508E+00
         -1   -1    0    0    0  501 -0.00000000000E+00  0.00000000000E+00  0.31593510529E+03  0.31593510529E+03  0.00000000000E+00 0.  1.
          1   -1    0    0  501    0  0.00000000000E+00 -0.00000000000E+00 -0.51659934614E+02  0.51659934614E+02  0.00000000000E+00 0. -1.
         25    2    1    2    0    0 -0.22679085863E+00 -0.67066950023E+02  0.13701508260E+03  0.19727782260E+03  0.12508948481E+03 0.  0.
          5    1    3    3  502    0  0.11357679908E+02  0.85216222759E+01 -0.18640066923E+02  0.23802088858E+02  0.41800000000E+01 0.  1.
         -5    1    3    3    0  502 -0.11584470766E+02 -0.75588572299E+02  0.15565514952E+03  0.17347573374E+03  0.41800000000E+01 0.  1.
        -11    1    1    2    0    0 -0.38854951930E+02  0.60135931100E+02  0.66332765094E+02  0.97601604616E+02  0.00000000000E+00 0.  1.
         11    1    1    2    0    0  0.39081742788E+02  0.69310189230E+01  0.60927322987E+02  0.72715612691E+02  0.00000000000E+00 0. -1.
</event>
<event>
 7    1  0.2530765E-009  0.1168113E+03  0.7561462E-02  0.1248452E+00
          1   -1    0    0  501    0  0.00000000000E+00  0.00000000000E+00  0.19067366384E+02  0.19067366384E+02  0.00000000000E+00 0. -1.
         -1   -1    0    0    0  501 -0.00000000000E+00 -0.00000000000E+00 -0.77771599694E+03  0.77771599694E+03  0.00000000000E+00 0.  1.
         25    2    1    2    0    0 -0.24602197368E+02 -0.45409073244E+02 -0.50299454361E+03  0.52088222048E+03  0.12509006622E+03 0.  0.
          5    1    3    3  502    0  0.46692734732E+02 -0.34878637388E+02 -0.15905060994E+03  0.16944409032E+03  0.41800000000E+01 0. -1.
         -5    1    3    3    0  502 -0.71294932101E+02 -0.10530435856E+02 -0.34394393367E+03  0.35143813016E+03  0.41800000000E+01 0. -1.
        -11    1    1    2    0    0  0.58345243950E+02  0.24322054419E+02 -0.14045538742E+03  0.15402417239E+03  0.00000000000E+00 0. -1.
         11    1    1    2    0    0 -0.33743046581E+02  0.21087018825E+02 -0.11519869952E+03  0.12187697045E+03  0.00000000000E+00 0.  1.
</event>
<event>
 7    1  0.2530765E-009  0.2267622E+03  0.7561462E-02  0.1128940E+00
          2   -1    0    0  501    0  0.00000000000E+00  0.00000000000E+00  0.39150322603E+03  0.39150322603E+03  0.00000000000E+00 0. -1.
         -2   -1    0    0    0  501 -0.00000000000E+00 -0.00000000000E+00 -0.13769004525E+03  0.13769004525E+03  0.00000000000E+00 0.  1.
         25    2    1    2    0    0  0.14039519663E+03  0.14652821251E+03  0.16727259119E+03  0.29122430995E+03  0.12510056212E+03 0.  0.
          5    1    3    3  502    0  0.63757369316E+02 -0.93946679388E+01  0.47118704402E+02  0.79943146250E+02  0.41800000000E+01 0.  1.
         -5    1    3    3    0  502  0.76637827316E+02  0.15592288045E+03  0.12015388679E+03  0.21128116370E+03  0.41800000000E+01 0.  1.
        -11    1    1    2    0    0 -0.11139553589E+03 -0.65806877115E+02  0.23443197023E+02  0.13148799937E+03  0.00000000000E+00 0. -1.
         11    1    1    2    0    0 -0.28999660745E+02 -0.80721335392E+02  0.63097392564E+02  0.10648096196E+03  0.00000000000E+00 0.  1.
</event>
<event>
 7    1  0.2530765E-009  0.2565088E+03  0.7561462E-02  0.1109259E+00
         -2   -1    0    0    0  501 -0.00000000000E+00  0.00000000000E+00  0.25320341143E+03  0.25320341143E+03  0.00000000000E+00 0.  1.
          2   -1    0    0  501    0  0.00000000000E+00 -0.00000000000E+00 -0.45519193471E+03  0.45519193471E+03  0.00000000000E+00 0. -1.
         25    2    1    2    0    0 -0.25175794686E+03 -0.45296688925E+02  0.10007839664E+03  0.30182313135E+03  0.12509062039E+03 0.  0.
          5    1    3    3  502    0 -0.21273848548E+03 -0.35073441266E+02  0.25790620470E+02  0.21718756407E+03  0.41800000000E+01 0.  1.
         -5    1    3    3    0  502 -0.39019461383E+02 -0.10223247659E+02  0.74287776169E+02  0.84635567272E+02  0.41800000000E+01 0.  1.
        -11    1    1    2    0    0  0.16111480795E+03  0.17815326274E+02 -0.12117434458E+03  0.20238228424E+03  0.00000000000E+00 0.  1.
         11    1    1    2    0    0  0.90643138905E+02  0.27481362651E+02 -0.18089257534E+03  0.20418993054E+03  0.00000000000E+00 0. -1.
</event>
<event>
 7    1  0.2530765E-009  0.1727524E+03  0.7561462E-02  0.1175008E+00
         -1   -1    0    0    0  501 -0.00000000000E+00  0.00000000000E+00  0.33279374437E+03  0.33279374437E+03  0.00000000000E+00 0.  1.
          1   -1    0    0  501    0  0.00000000000E+00 -0.00000000000E+00 -0.10806054416E+03  0.10806054416E+03  0.00000000000E+00 0. -1.
         25    2    1    2    0    0  0.84968813538E+02 -0.13080359853E+03  0.99731602964E+02  0.22343626517E+03  0.12509233110E+03 0.  0.
          5    1    3    3  502    0  0.92717391521E+02 -0.13093103759E+03  0.12062269353E+03  0.20076543001E+03  0.41800000000E+01 0. -1.
         -5    1    3    3    0  502 -0.77485779834E+01  0.12743905395E+00 -0.20891090567E+02  0.22670835154E+02  0.41800000000E+01 0. -1.
        -11    1    1    2    0    0 -0.74792569953E+02  0.39959783705E+02  0.45300403689E+02  0.96139686958E+02  0.00000000000E+00 0. -1.
         11    1    1    2    0    0 -0.10176243585E+02  0.90843814827E+02  0.79701193557E+02  0.12127833640E+03  0.00000000000E+00 0.  1.
</event>
<event>
 7    1  0.2530765E-009  0.1170974E+03  0.7561462E-02  0.1247964E+00
          1   -1    0    0  501    0  0.00000000000E+00  0.00000000000E+00  0.19332860008E+03  0.19332860008E+03  0.00000000000E+00 0. -1.
         -1   -1    0    0    0  501 -0.00000000000E+00 -0.00000000000E+00 -0.12478084820E+03  0.12478084820E+03  0.00000000000E+00 0.  1.
         25    2    1    2    0    0 -0.12804286934E+02  0.99736235192E+02  0.82781830490E+02  0.18059235404E+03  0.12509796363E+03 0.  0.
          5    1    3    3  502    0 -0.24921949440E+02  0.36163379206E+02  0.10350045660E+03  0.11251093491E+03  0.41800000000E+01 0. -1.
         -5    1    3    3    0  502  0.12117662507E+02  0.63572855986E+02 -0.20718626105E+02  0.68081419128E+02  0.41800000000E+01 0. -1.
        -11    1    1    2    0    0 -0.26484335956E+02 -0.11965339784E+02 -0.28021511513E+02  0.40370713576E+02  0.00000000000E+00 0.  1.
         11    1    1    2    0    0  0.39288622889E+02 -0.87770895407E+02  0.13787432908E+02  0.97146380660E+02  0.00000000000E+00 0. -1.
</event>
<event>
 7    1  0.2530765E-009  0.7990489E+02  0.7561462E-02  0.1329322E+00
         -1   -1    0    0    0  501 -0.00000000000E+00  0.00000000000E+00  0.65657938625E+02  0.65657938625E+02  0.00000000000E+00 0.  1.
          1   -1    0    0  501    0  0.00000000000E+00 -0.00000000000E+00 -0.19899244503E+03  0.19899244503E+03  0.00000000000E+00 0. -1.
         25    2    1    2    0    0 -0.86550981123E+01  0.25421639683E+02 -0.10527532886E+03  0.16568550912E+03  0.12509045758E+03 0.  0.
          5    1    3    3  502    0 -0.85481769708E+01  0.49756269189E+02  0.66287088454E+01  0.51089821238E+02  0.41800000000E+01 0.  1.
         -5    1    3    3    0  502 -0.10692114149E+00 -0.24334629506E+02 -0.11190403771E+03  0.11459568788E+03  0.41800000000E+01 0.  1.
        -11    1    1    2    0    0  0.16224065821E+02 -0.53226323844E+02 -0.39204637793E+02  0.68068094481E+02  0.00000000000E+00 0. -1.
         11    1    1    2    0    0 -0.75689677087E+01  0.27804684161E+02  0.11145460253E+02  0.30896780054E+02  0.00000000000E+00 0.  1.
</event>
<event>
 7    1  0.2812887E-009  0.1398394E+03  0.7561462E-02  0.1213545E+00
         -1   -1    0    0    0  501 -0.00000000000E+00  0.00000000000E+00  0.18298695883E+03  0.18298695883E+03  0.00000000000E+00 0.  1.
          1   -1    0    0  501    0  0.00000000000E+00 -0.00000000000E+00 -0.11837189078E+03  0.11837189078E+03  0.00000000000E+00 0. -1.
         25    2    1    2    0    0  0.39525887472E+02 -0.90764912463E+02  0.32134518578E+02  0.16272824820E+03  0.12508912967E+03 0.  0.
          5    1    3    3  502    0  0.16291716799E+02  0.23126043173E+02  0.36459812848E+02  0.46335993159E+02  0.41800000000E+01 0.  1.
         -5    1    3    3    0  502  0.23234170673E+02 -0.11389095564E+03 -0.43252942695E+01  0.11639225504E+03  0.41800000000E+01 0.  1.
        -11    1    1    2    0    0 -0.69448143393E+02  0.67758410331E+02  0.23228515584E+02  0.99768786339E+02  0.00000000000E+00 0.  1.
         11    1    1    2    0    0  0.29922255921E+02  0.23006502133E+02  0.92520338812E+01  0.38861815072E+02  0.00000000000E+00 0. -1.
</event>
<event>
 7    1  0.2530765E-009  0.7692473E+02  0.7561462E-02  0.1338012E+00
          1   -1    0    0  501    0  0.00000000000E+00  0.00000000000E+00  0.16494130155E+04  0.16494130155E+04  0.00000000000E+00 0. -1.
         -1   -1    0    0    0  501 -0.00000000000E+00 -0.00000000000E+00 -0.16317872532E+02  0.16317872532E+02  0.00000000000E+00 0.  1.
         25    2    1    2    0    0 -0.17025631937E+02  0.12435057599E+02  0.14863220822E+04  0.14917261242E+04  0.12509594181E+03 0.  0.
          5    1    3    3  502    0  0.44013534506E+02  0.14675625404E+02  0.10607937594E+04  0.10618161035E+04  0.41800000000E+01 0. -1.
         -5    1    3    3    0  502 -0.61039166443E+02 -0.22405678053E+01  0.42552832280E+03  0.42991002069E+03  0.41800000000E+01 0. -1.
        -11    1    1    2    0    0 -0.12719164347E+02 -0.10035020104E+02 -0.67918577090E+01  0.17567245126E+02  0.00000000000E+00 0.  1.
         11    1    1    2    0    0  0.29744796285E+02 -0.24000374950E+01  0.15356491851E+03  0.15643751878E+03  0.00000000000E+00 0. -1.
</event>
<event>
 7    1  0.2530765E-009  0.1584829E+03  0.7561462E-02  0.1190420E+00
         -2   -1    0    0    0  501 -0.00000000000E+00  0.00000000000E+00  0.49889825783E+02  0.49889825783E+02  0.00000000000E+00 0.  1.
          2   -1    0    0  501    0  0.00000000000E+00 -0.00000000000E+00 -0.92323994645E+03  0.92323994645E+03  0.00000000000E+00 0. -1.
         25    2    1    2    0    0  0.38942781541E+02  0.14225489614E+03 -0.70116679569E+03  0.72734925247E+03  0.12509621890E+03 0.  0.
          5    1    3    3  502    0  0.23631589542E+02  0.10836375225E+03 -0.66856974265E+03  0.67771980052E+03  0.41800000000E+01 0.  1.
         -5    1    3    3    0  502  0.15311191999E+02  0.33891143885E+02 -0.32597053038E+02  0.49629451952E+02  0.41800000000E+01 0.  1.
        -11    1    1    2    0    0 -0.53644669600E+02 -0.44501877490E+02 -0.38839503316E+02  0.79791444996E+02  0.00000000000E+00 0.  1.
         11    1    1    2    0    0  0.14701888059E+02 -0.97753018646E+02 -0.13334382166E+03  0.16598907477E+03  0.00000000000E+00 0. -1.
</event>
<event>
 7    1  0.2885078E-009  0.8401383E+02  0.7561462E-02  0.1318032E+00
         -2   -1    0    0    0  501 -0.00000000000E+00  0.00000000000E+00  0.24317095346E+02  0.24317095346E+02  0.00000000000E+00 0.  1.
          2   -1    0    0  501    0  0.00000000000E+00 -0.00000000000E+00 -0.11564455527E+04  0.11564455527E+04  0.00000000000E+00 0. -1.
         25    2    1    2    0    0 -0.59483594835E+02  0.40312486941E+02 -0.97277836199E+03  0.98341698196E+03  0.12509126348E+03 0.  0.
          5    1    3    3  502    0 -0.86697698923E+01 -0.33326332857E+01 -0.76500485029E+03  0.76507265324E+03  0.41800000000E+01 0.  1.
         -5    1    3    3    0  502 -0.50813824943E+02  0.43645120226E+02 -0.20777351170E+03  0.21834432873E+03  0.41800000000E+01 0.  1.
        -11    1    1    2    0    0 -0.58526949959E+01 -0.22154736864E+02 -0.11277428010E+03  0.11507877587E+03  0.00000000000E+00 0. -1.
         11    1    1    2    0    0  0.65336289831E+02 -0.18157750076E+02 -0.46575815251E+02  0.82266890200E+02  0.00000000000E+00 0.  1.
</event>
<event>
 7    1  0.2530765E-009  0.1391586E+03  0.7561462E-02  0.1214466E+00
         -2   -1    0    0    0  501 -0.00000000000E+00  0.00000000000E+00  0.29209919480E+02  0.29209919480E+02  0.00000000000E+00 0.  1.
          2   -1    0    0  501    0  0.00000000000E+00 -0.00000000000E+00 -0.86155129048E+03  0.86155129048E+03  0.00000000000E+00 0. -1.
         25    2    1    2    0    0  0.92239465444E+02  0.63379579867E+02 -0.52978731379E+03  0.55574193574E+03  0.12509760651E+03 0.  0.
          5    1    3    3  502    0  0.10558341078E+03  0.88245804360E+02 -0.46501165786E+03  0.48496236242E+03  0.41800000000E+01 0.  1.
         -5    1    3    3    0  502 -0.13343945337E+02 -0.24866224493E+02 -0.64775655929E+02  0.70779573315E+02  0.41800000000E+01 0.  1.
        -11    1    1    2    0    0 -0.41855719619E+02 -0.32863162193E+02 -0.25150110271E+03  0.25706943295E+03  0.00000000000E+00 0. -1.
         11    1    1    2    0    0 -0.50383745826E+02 -0.30516417674E+02 -0.51052954502E+02  0.77949841273E+02  0.00000000000E+00 0.  1.
</event>
<event>
 7    1  0.2530765E-009  0.1610227E+03  0.7561462E-02  0.1187547E+00
         -1   -1    0    0    0  501 -0.00000000000E+00  0.00000000000E+00  0.26492225268E+03  0.26492225268E+03  0.00000000000E+00 0.  1.
          1   -1    0    0  501    0  0.00000000000E+00 -0.00000000000E+00 -0.98725332697E+02  0.98725332697E+02  0.00000000000E+00 0. -1.
         25    2    1    2    0    0  0.11672860602E+03 -0.26768375578E+02  0.86831012869E+02  0.19372426319E+03  0.12508937587E+03 0.  0.
          5    1    3    3  502    0  0.84580026896E+02 -0.75479990923E+02  0.46195404940E+02  0.12248468401E+03  0.41800000000E+01 0.  1.
         -5    1    3    3    0  502  0.32148579128E+02  0.48711615345E+02  0.40635607929E+02  0.71239579176E+02  0.41800000000E+01 0.  1.
        -11    1    1    2    0    0 -0.11640834003E+03 -0.67205401226E+01  0.58374727247E+02  0.13039814443E+03  0.00000000000E+00 0. -1.
         11    1    1    2    0    0 -0.32026599187E+00  0.33488915701E+02  0.20991179867E+02  0.39525177765E+02  0.00000000000E+00 0.  1.
</event>
<event>
 7    1  0.2530765E-009  0.1444281E+03  0.7561462E-02  0.1207492E+00
         -1   -1    0    0    0  501 -0.00000000000E+00  0.00000000000E+00  0.64031078947E+03  0.64031078947E+03  0.00000000000E+00 0.  1.
          1   -1    0    0  501    0  0.00000000000E+00 -0.00000000000E+00 -0.33238716471E+02  0.33238716471E+02  0.00000000000E+00 0. -1.
         25    2    1    2    0    0  0.63653354967E+02 -0.72674517818E+02  0.36125762050E+03  0.39431909155E+03  0.12508853844E+03 0.  0.
          5    1    3    3  502    0  0.43065105588E+02 -0.10760222177E+03  0.24352848920E+03  0.26973401510E+03  0.41800000000E+01 0.  1.
         -5    1    3    3    0  502  0.20588249379E+02  0.34927703956E+02  0.11772913130E+03  0.12458507645E+03  0.41800000000E+01 0.  1.
        -11    1    1    2    0    0  0.23341641342E+02  0.15062641360E+02  0.43943496070E+02  0.51987943142E+02  0.00000000000E+00 0.  1.
         11    1    1    2    0    0 -0.86994996309E+02  0.57611876459E+02  0.20187095642E+03  0.22724247125E+03  0.00000000000E+00 0. -1.
</event>
<event>
 7    1  0.2530765E-009  0.5057021E+02  0.7561462E-02  0.1442290E+00
         -1   -1    0    0    0  501 -0.00000000000E+00  0.00000000000E+00  0.66557573062E+02  0.66557573062E+02  0.00000000000E+00 0.  1.
          1   -1    0    0  501    0  0.00000000000E+00 -0.00000000000E+00 -0.17797806822E+03  0.17797806822E+03  0.00000000000E+00 0. -1.
         25    2    1    2    0    0  0.25512382286E+01 -0.12252603294E+02 -0.67074770962E+02  0.14248884858E+03  0.12508961574E+03 0.  0.
          5    1    3    3  502    0 -0.40280757234E+01 -0.15858267807E+02 -0.10360007250E+03  0.10496741149E+03  0.41800000000E+01 0. -1.
         -5    1    3    3    0  502  0.65793139520E+01  0.36056645130E+01  0.36525301541E+02  0.37521437090E+02  0.41800000000E+01 0. -1.
        -11    1    1    2    0    0  0.20793513952E+02  0.36499067140E+02  0.50127614724E+01  0.42304608522E+02  0.00000000000E+00 0.  1.
         11    1    1    2    0    0 -0.23344752181E+02 -0.24246463847E+02 -0.49358485673E+02  0.59742184186E+02  0.00000000000E+00 0. -1.
</event>
<event>
 7    1  0.2530765E-009  0.1246612E+03  0.7561462E-02  0.1235600E+00
          2   -1    0    0  501    0  0.00000000000E+00  0.00000000000E+00  0.32092225669E+03  0.32092225669E+03  0.00000000000E+00 0. -1.
         -2   -1    0    0    0  501 -0.00000000000E+00 -0.00000000000E+00 -0.87914379600E+02  0.87914379600E+02  0.00000000000E+00 0.  1.
         25    2    1    2    0    0 -0.40856951362E+02  0.54426388473E+02 -0.81337167048E+01  0.14263680769E+03  0.12509028470E+03 0.  0.
          5    1    3    3  502    0 -0.65929925608E+02 -0.13985491476E+02 -0.15505750464E+02  0.69283834767E+02  0.41800000000E+01 0. -1.
         -5    1    3    3    0  502  0.25072974246E+02  0.68411879949E+02  0.73720337593E+01  0.73352972928E+02  0.41800000000E+01 0. -1.
        -11    1    1    2    0    0 -0.52772335472E+01 -0.61860457015E+02  0.17096161317E+03  0.18188578426E+03  0.00000000000E+00 0. -1.
         11    1    1    2    0    0  0.46134184909E+02  0.74340685424E+01  0.70179980618E+02  0.84314044333E+02  0.00000000000E+00 0.  1.
</event>
<event>
 7    1  0.2530765E-009  0.1813808E+03  0.7561462E-02  0.1166473E+00
          2   -1    0    0  501    0  0.00000000000E+00  0.00000000000E+00  0.54275530556E+03  0.54275530556E+03  0.00000000000E+00 0. -1.
         -2   -1    0    0    0  501 -0.00000000000E+00 -0.00000000000E+00 -0.94003628216E+02  0.94003628216E+02  0.00000000000E+00 0.  1.
         25    2    1    2    0    0 -0.15893644061E+03 -0.72477237687E+02  0.10264976955E+03  0.23811252431E+03  0.12508739709E+03 0.  0.
          5    1    3    3  502    0 -0.30062591638E+02 -0.18615848479E+01  0.84718976124E+02  0.90011122811E+02  0.41800000000E+01 0.  1.
         -5    1    3    3    0  502 -0.12887384897E+03 -0.70615652839E+02  0.17930793427E+02  0.14810140150E+03  0.41800000000E+01 0.  1.
        -11    1    1    2    0    0  0.83965319917E+02  0.44121952900E+01  0.89562457984E+02  0.12284574187E+03  0.00000000000E+00 0. -1.
         11    1    1    2    0    0  0.74971120692E+02  0.68065042397E+02  0.25653944981E+03  0.27580066759E+03  0.00000000000E+00 0.  1.
</event>
<event>
 7    1  0.2530765E-009  0.1418606E+03  0.7561462E-02  0.1210847E+00
         -1   -1    0    0    0  501 -0.00000000000E+00  0.00000000000E+00  0.30045511973E+02  0.30045511973E+02  0.00000000000E+00 0.  1.
          1   -1    0    0  501    0  0.00000000000E+00 -0.00000000000E+00 -0.92561907522E+03  0.92561907522E+03  0.00000000000E+00 0. -1.
         25    2    1    2    0    0  0.11386201825E+03 -0.43429944773E+02 -0.39439786210E+03  0.43133342183E+03  0.12509247721E+03 0.  0.
          5    1    3    3  502    0  0.11499142243E+03 -0.77385980124E+01 -0.37081740686E+03  0.38833739810E+03  0.41800000000E+01 0.  1.
         -5    1    3    3    0  502 -0.11294041804E+01 -0.35691346760E+02 -0.23580455240E+02  0.42996023731E+02  0.41800000000E+01 0.  1.
        -11    1    1    2    0    0 -0.55004418517E+02  0.48543086022E+02 -0.40399186706E+03  0.41059876511E+03  0.00000000000E+00 0. -1.
         11    1    1    2    0    0 -0.58857599735E+02 -0.51131412491E+01 -0.97183834090E+02  0.11373240026E+03  0.00000000000E+00 0.  1.
</event>
<event>
 7    1  0.2530765E-009  0.1567634E+03  0.7561462E-02  0.1192400E+00
         -2   -1    0    0    0  501 -0.00000000000E+00  0.00000000000E+00  0.18568813447E+02  0.18568813447E+02  0.00000000000E+00 0.  1.
          2   -1    0    0  501    0  0.00000000000E+00 -0.00000000000E+00 -0.15087521422E+04  0.15087521422E+04  0.00000000000E+00 0. -1.
         25    2    1    2    0    0  0.12711121089E+03 -0.12744724939E+01 -0.85255959649E+03  0.87101362918E+03  0.12509193595E+03 0.  0.
          5    1    3    3  502    0  0.12226897855E+03  0.39336865654E+02 -0.50767871183E+03  0.52369097659E+03  0.41800000000E+01 0. -1.
         -5    1    3    3    0  502  0.48422323359E+01 -0.40611338148E+02 -0.34488088466E+03  0.34732265259E+03  0.41800000000E+01 0. -1.
        -11    1    1    2    0    0 -0.32422034254E+02 -0.30013408373E+02 -0.97343626009E+02  0.10690076946E+03  0.00000000000E+00 0.  1.
         11    1    1    2    0    0 -0.94689176637E+02  0.31287880867E+02 -0.54028010622E+03  0.54940655697E+03  0.00000000000E+00 0. -1.
</event>
<event>
 7    1  0.2530765E-009  0.9639390E+02  0.7561462E-02  0.1288067E+00
          2   -1    0    0  501    0  0.00000000000E+00  0.00000000000E+00  0.13811225164E+02  0.13811225164E+02  0.00000000000E+00 0. -1.
         -2   -1    0    0    0  501 -0.00000000000E+00 -0.00000000000E+00 -0.10010687326E+04  0.10010687326E+04  0.00000000000E+00 0.  1.
         25    2    1    2    0    0  0.25308947197E+02  0.29577850253E+02 -0.67586000506E+03  0.68844017268E+03  0.12509089853E+03 0.  0.
          5    1    3    3  502    0 -0.44061532144E+02  0.13839451435E+02 -0.13151395860E+03  0.13945014427E+03  0.41800000000E+01 0.  1.
         -5    1    3    3    0  502  0.69370479341E+02  0.15738398819E+02 -0.54434604646E+03  0.54899002841E+03  0.41800000000E+01 0.  1.
        -11    1    1    2    0    0 -0.43861943529E+02 -0.34681732768E+02 -0.29748569157E+03  0.30269527477E+03  0.00000000000E+00 0.  1.
         11    1    1    2    0    0  0.18552996332E+02  0.51038825143E+01 -0.13911810789E+02  0.23744510292E+02  0.00000000000E+00 0. -1.
</event>
<event>
 7    1  0.2596831E-009  0.1616919E+03  0.7561462E-02  0.1186800E+00
          2   -1    0    0  501    0  0.00000000000E+00  0.00000000000E+00  0.43785501636E+03  0.43785501636E+03  0.00000000000E+00 0. -1.
         -2   -1    0    0    0  501 -0.00000000000E+00 -0.00000000000E+00 -0.82141683285E+02  0.82141683285E+02  0.00000000000E+00 0.  1.
         25    2    1    2    0    0  0.60093934089E+02  0.13556220844E+03  0.25020819373E+03  0.31660999220E+03  0.12509737680E+03 0.  0.
          5    1    3    3  502    0  0.90561379891E+01  0.42474629596E+02 -0.12296147107E+01  0.43647361282E+02  0.41800000000E+01 0. -1.
         -5    1    3    3    0  502  0.51037796100E+02  0.93087578844E+02  0.25143780844E+03  0.27296263092E+03  0.41800000000E+01 0. -1.
        -11    1    1    2    0    0  0.11986085079E+01 -0.10502530335E+03  0.57326024497E+02  0.11965794621E+03  0.00000000000E+00 0.  1.
         11    1    1    2    0    0 -0.61292542597E+02 -0.30536905090E+02  0.48179114850E+02  0.83728761237E+02  0.00000000000E+00 0. -1.
</event>
<event>
 7    1  0.2530765E-009  0.8156948E+02  0.7561462E-02  0.1324656E+00
         -4   -1    0    0    0  501 -0.00000000000E+00  0.00000000000E+00  0.20345012855E+02  0.20345012855E+02  0.00000000000E+00 0.  1.
          4   -1    0    0  501    0  0.00000000000E+00 -0.00000000000E+00 -0.79812596229E+03  0.79812596229E+03  0.00000000000E+00 0. -1.
         25    2    1    2    0    0  0.77871237918E+01  0.23951939792E+01 -0.66065369608E+03  0.67244147214E+03  0.12509137086E+03 0.  0.
          5    1    3    3  502    0 -0.25017932238E+02  0.34652344744E+02 -0.87915687552E+02  0.97843356685E+02  0.41800000000E+01 0. -1.
         -5    1    3    3    0  502  0.32805056030E+02 -0.32257150764E+02 -0.57273800853E+03  0.57459811546E+03  0.41800000000E+01 0. -1.
        -11    1    1    2    0    0 -0.51516381054E+01 -0.37974079519E+02 -0.98693032764E+02  0.10587202089E+03  0.00000000000E+00 0. -1.
         11    1    1    2    0    0 -0.26354856864E+01  0.35578885540E+02 -0.18434220594E+02  0.40157482117E+02  0.00000000000E+00 0.  1.
</event>
<event>
 7    1  0.2530765E-009  0.1012739E+03  0.7561462E-02  0.1277640E+00
         -2   -1    0    0    0  501 -0.00000000000E+00  0.00000000000E+00  0.31241067142E+02  0.31241067142E+02  0.00000000000E+00 0. -1.
          2   -1    0    0  501    0  0.00000000000E+00 -0.00000000000E+00 -0.38921838591E+03  0.38921838591E+03  0.00000000000E+00 0.  1.
         25    2    1    2    0    0  0.23515563629E+02 -0.21731198718E+01 -0.22225516356E+03  0.25612959339E+03  0.12508919498E+03 0.  0.
          5    1    3    3  502    0  0.56186407836E+01 -0.55061780656E+02 -0.17255506762E+03  0.18126249632E+03  0.41800000000E+01 0. -1.
         -5    1    3    3    0  502  0.17896922845E+02  0.52888660784E+02 -0.49700095944E+02  0.74867097070E+02  0.41800000000E+01 0. -1.
        -11    1    1    2    0    0 -0.10049545761E+02 -0.42873349029E+02 -0.80898606347E+02  0.92107013500E+02  0.00000000000E+00 0.  1.
         11    1    1    2    0    0 -0.13466017868E+02  0.45046468901E+02 -0.54823548858E+02  0.72222846157E+02  0.00000000000E+00 0. -1.
</event>
<event>
 7    1  0.2952933E-009  0.1419773E+03  0.7561462E-02  0.1210693E+00
         -2   -1    0    0    0  501 -0.00000000000E+00  0.00000000000E+00  0.13334719141E+02  0.13334719141E+02  0.00000000000E+00 0. -1.
          2   -1    0    0  501    0  0.00000000000E+00 -0.00000000000E+00 -0.18170415714E+04  0.18170415714E+04  0.00000000000E+00 0.  1.
         25    2    1    2    0    0  0.95856398024E+02  0.30113478520E+02 -0.12468868588E+04  0.12571667316E+04  0.12508429769E+03 0.  0.
          5    1    3    3  502    0  0.11934678599E+03  0.33813760132E+02 -0.11703267572E+04  0.11768896366E+04  0.41800000000E+01 0. -1.
         -5    1    3    3    0  502 -0.23490387970E+02 -0.37002816124E+01 -0.76560101636E+02  0.80277094949E+02  0.41800000000E+01 0. -1.
        -11    1    1    2    0    0 -0.31448488341E+02 -0.57632652552E+02 -0.24763922522E+03  0.25619468365E+03  0.00000000000E+00 0. -1.
         11    1    1    2    0    0 -0.64407909683E+02  0.27519174032E+02 -0.30918076815E+03  0.31701487530E+03  0.00000000000E+00 0.  1.
</event>
<event>
 7    1  0.2530765E-009  0.4725491E+02  0.7561462E-02  0.1460736E+00
          3   -1    0    0  501    0  0.00000000000E+00  0.00000000000E+00  0.15816669528E+03  0.15816669528E+03  0.00000000000E+00 0. -1.
         -3   -1    0    0    0  501 -0.00000000000E+00 -0.00000000000E+00 -0.81449354339E+02  0.81449354339E+02  0.00000000000E+00 0.  1.
         25    2    1    2    0    0 -0.73645686526E+01 -0.20516126179E+01  0.19236992243E+02  0.12679163859E+03  0.12509041434E+03 0.  0.
          5    1    3    3  502    0 -0.66260368954E+01  0.90297074626E+01  0.71859836986E+02  0.72847433404E+02  0.41800000000E+01 0. -1.
         -5    1    3    3    0  502 -0.73853175716E+00 -0.11081320080E+02 -0.52622844743E+02  0.53944205182E+02  0.41800000000E+01 0. -1.
        -11    1    1    2    0    0  0.33424864083E+02  0.20086981011E+02 -0.82438277962E+01  0.39858111368E+02  0.00000000000E+00 0.  1.
         11    1    1    2    0    0 -0.26060295430E+02 -0.18035368393E+02  0.65724176489E+02  0.72966299661E+02  0.00000000000E+00 0. -1.
</event>
<event>
 7    1  0.2530765E-009  0.1169672E+03  0.7561462E-02  0.1248186E+00
         -1   -1    0    0    0  501 -0.00000000000E+00  0.00000000000E+00  0.94576875027E+02  0.94576875027E+02  0.00000000000E+00 0.  1.
          1   -1    0    0  501    0  0.00000000000E+00 -0.00000000000E+00 -0.26981354321E+03  0.26981354321E+03  0.00000000000E+00 0. -1.
         25    2    1    2    0    0  0.23120811563E+01 -0.82943326542E+02 -0.19147066972E+03  0.24329913867E+03  0.12509401415E+03 0.  0.
          5    1    3    3  502    0  0.42491257180E+02 -0.84692025464E+02 -0.17614752756E+03  0.20005916619E+03  0.41800000000E+01 0. -1.
         -5    1    3    3    0  502 -0.40179176024E+02  0.17486989215E+01 -0.15323142163E+02  0.43239972475E+02  0.41800000000E+01 0. -1.
        -11    1    1    2    0    0 -0.27839389336E+02  0.45361194473E+02 -0.25845136644E+02  0.59166212070E+02  0.00000000000E+00 0. -1.
         11    1    1    2    0    0  0.25527308180E+02  0.37582132070E+02  0.42079138185E+02  0.61925067494E+02  0.00000000000E+00 0.  1.
</event>
<event>
 7    1  0.2530765E-009  0.2182437E+03  0.7561462E-02  0.1135199E+00
          2   -1    0    0  501    0  0.00000000000E+00  0.00000000000E+00  0.11270840126E+03  0.11270840126E+03  0.00000000000E+00 0. -1.
         -2   -1    0    0    0  501 -0.00000000000E+00 -0.00000000000E+00 -0.66847076765E+03  0.66847076765E+03  0.00000000000E+00 0.  1.
         25    2    1    2    0    0 -0.19016700712E+03 -0.71143835761E+02 -0.49434592931E+03  0.54886150967E+03  0.12508446346E+03 0.  0.
          5    1    3    3  502    0 -0.77663234869E+02  0.11003956914E+02 -0.81785922478E+02  0.11339785992E+03  0.41800000000E+01 0.  1.
         -5    1    3    3    0  502 -0.11250377225E+03 -0.82147792675E+02 -0.41256000684E+03  0.43546364975E+03  0.41800000000E+01 0.  1.
        -11    1    1    2    0    0  0.15901105264E+03  0.22201296558E+02 -0.67123063882E+02  0.17401987856E+03  0.00000000000E+00 0. -1.
         11    1    1    2    0    0  0.31155954487E+02  0.48942539203E+02  0.57066268012E+01  0.58297780687E+02  0.00000000000E+00 0.  1.
</event>
<event>
 7    1  0.2530765E-009  0.1174276E+03  0.7561462E-02  0.1247402E+00
          1   -1    0    0  501    0  0.00000000000E+00  0.00000000000E+00  0.30865762520E+03  0.30865762520E+03  0.00000000000E+00 0. -1.
         -1   -1    0    0    0  501 -0.00000000000E+00 -0.00000000000E+00 -0.59380904723E+02  0.59380904723E+02  0.00000000000E+00 0.  1.
         25    2    1    2    0    0 -0.63267610104E+02 -0.29184045375E+02  0.18516289714E+03  0.23406686667E+03  0.12508997004E+03 0.  0.
          5    1    3    3  502    0 -0.10034499522E+03 -0.18597514508E+02  0.15147541374E+03  0.18269444157E+03  0.41800000000E+01 0.  1.
         -5    1    3    3    0  502  0.37077385121E+02 -0.10586530867E+02  0.33687483400E+02  0.51372425104E+02  0.41800000000E+01 0.  1.
        -11    1    1    2    0    0  0.57342448796E+02 -0.65439873053E+01  0.76381233683E+02  0.95734388088E+02  0.00000000000E+00 0. -1.
         11    1    1    2    0    0  0.59251613078E+01  0.35728032680E+02 -0.12267410341E+02  0.38237275167E+02  0.00000000000E+00 0.  1.
</event>
<event>
 7    1  0.2530765E-009  0.1435709E+03  0.7561462E-02  0.1208603E+00
          2   -1    0    0  501    0  0.00000000000E+00  0.00000000000E+00  0.30114786217E+04  0.30114786217E+04  0.00000000000E+00 0. -1.
         -2   -1    0    0    0  501 -0.00000000000E+00 -0.00000000000E+00 -0.10083106752E+02  0.10083106752E+02  0.00000000000E+00 0.  1.
         25    2    1    2    0    0  0.18362663557E+02  0.11394135631E+03  0.21721854236E+04  0.21788424685E+04  0.12508064662E+03 0.  0.
          5    1    3    3  502    0 -0.28549677632E+02  0.50662074044E+02  0.34021481582E+03  0.34517433732E+03  0.41800000000E+01 0. -1.
         -5    1    3    3    0  502  0.46912341189E+02  0.63279282265E+02  0.18319706077E+04  0.18336681312E+04  0.41800000000E+01 0. -1.
        -11    1    1    2    0    0 -0.55503096867E+02 -0.90095798628E+02  0.60989971050E+03  0.61901171521E+03  0.00000000000E+00 0. -1.
         11    1    1    2    0    0  0.37140433311E+02 -0.23845557682E+02  0.21931038087E+03  0.22370754472E+03  0.00000000000E+00 0.  1.
</event>
<event>
 7    1  0.2530765E-009  0.2229054E+03  0.7561462E-02  0.1131735E+00
         -2   -1    0    0    0  501 -0.00000000000E+00  0.00000000000E+00  0.96570005397E+02  0.96570005397E+02  0.00000000000E+00 0.  1.
          2   -1    0    0  501    0  0.00000000000E+00 -0.00000000000E+00 -0.76298407747E+03  0.76298407747E+03  0.00000000000E+00 0. -1.
         25    2    1    2    0    0  0.20229456041E+03 -0.17954449203E+02 -0.53972155877E+03  0.59007911631E+03  0.12509416887E+03 0.  0.
          5    1    3    3  502    0  0.27842122083E+02 -0.33999203347E+02 -0.36696922787E+02  0.57404408649E+02  0.41800000000E+01 0.  1.
         -5    1    3    3    0  502  0.17445243832E+03  0.16044754144E+02 -0.50302463599E+03  0.53267470766E+03  0.41800000000E+01 0.  1.
        -11    1    1    2    0    0 -0.11176902645E+02  0.32881822909E+02  0.74285065812E+01  0.35515069205E+02  0.00000000000E+00 0.  1.
         11    1    1    2    0    0 -0.19111765776E+03 -0.14927373706E+02 -0.13412101988E+03  0.23395989735E+03  0.00000000000E+00 0. -1.
</event>
<event>
 7    1  0.2530765E-009  0.3024365E+03  0.7561462E-02  0.1084029E+00
          1   -1    0    0  501    0  0.00000000000E+00  0.00000000000E+00  0.63426430140E+03  0.63426430140E+03  0.00000000000E+00 0. -1.
         -1   -1    0    0    0  501 -0.00000000000E+00 -0.00000000000E+00 -0.17602422075E+03  0.17602422075E+03  0.00000000000E+00 0.  1.
         25    2    1    2    0    0 -0.38147703693E+02  0.29091780930E+03  0.91847641561E+02  0.33192323200E+03  0.12509445878E+03 0.  0.
          5    1    3    3  502    0  0.39540116887E-02  0.17902179622E+03 -0.48484470969E+01  0.17913621458E+03  0.41800000000E+01 0.  1.
         -5    1    3    3    0  502 -0.38151657704E+02  0.11189601308E+03  0.96696088658E+02  0.15278701742E+03  0.41800000000E+01 0.  1.
        -11    1    1    2    0    0  0.56352052512E+02 -0.92906302616E+02  0.12546369053E+03  0.16597672285E+03  0.00000000000E+00 0.  1.
         11    1    1    2    0    0 -0.18204348819E+02 -0.19801150668E+03  0.24092874856E+03  0.31238856730E+03  0.00000000000E+00 0. -1.
</event>
<event>
 7    1  0.2530765E-009  0.1044705E+03  0.7561462E-02  0.1271166E+00
          2   -1    0    0  501    0  0.00000000000E+00  0.00000000000E+00  0.54579707367E+03  0.54579707367E+03  0.00000000000E+00 0. -1.
         -2   -1    0    0    0  501 -0.00000000000E+00 -0.00000000000E+00 -0.27325267386E+02  0.27325267386E+02  0.00000000000E+00 0.  1.
         25    2    1    2    0    0 -0.45148706307E+02 -0.16743116932E+02  0.37608504145E+03  0.39925767038E+03  0.12509193143E+03 0.  0.
          5    1    3    3  502    0 -0.58298922198E+02  0.39678676037E+02  0.26035670643E+03  0.26977073349E+03  0.41800000000E+01 0. -1.
         -5    1    3    3    0  502  0.13150215890E+02 -0.56421792969E+02  0.11572833502E+03  0.12948693690E+03  0.41800000000E+01 0. -1.
        -11    1    1    2    0    0  0.41086671292E+02 -0.18268933623E+02  0.25313825939E+02  0.51600952290E+02  0.00000000000E+00 0.  1.
         11    1    1    2    0    0  0.40620350155E+01  0.35012050555E+02  0.11707293889E+03  0.12226371839E+03  0.00000000000E+00 0. -1.
</event>
<event>
 7    1  0.2530765E-009  0.1184271E+03  0.7561462E-02  0.1245715E+00
         -2   -1    0    0    0  501 -0.00000000000E+00  0.00000000000E+00  0.66169424012E+02  0.66169424012E+02  0.00000000000E+00 0.  1.
          2   -1    0    0  501    0  0.00000000000E+00 -0.00000000000E+00 -0.38801787252E+03  0.38801787252E+03  0.00000000000E+00 0. -1.
         25    2    1    2    0    0 -0.56444762269E+02  0.86325395444E+02 -0.25288887442E+03  0.30039738733E+03  0.12509085667E+03 0.  0.
          5    1    3    3  502    0 -0.39803664975E+02  0.13066546366E+02 -0.62820461887E+01  0.42567627179E+02  0.41800000000E+01 0. -1.
         -5    1    3    3    0  502 -0.16641097294E+02  0.73258849078E+02 -0.24660682823E+03  0.25782976015E+03  0.41800000000E+01 0. -1.
        -11    1    1    2    0    0  0.69546953176E+02 -0.72637519604E+02 -0.82849707868E+02  0.13029605537E+03  0.00000000000E+00 0. -1.
         11    1    1    2    0    0 -0.13102190907E+02 -0.13687875840E+02  0.13890133783E+02  0.23493853836E+02  0.00000000000E+00 0.  1.
</event>
<event>
 7    1  0.2530765E-009  0.9791772E+02  0.7561462E-02  0.1284737E+00
         -2   -1    0    0    0  501 -0.00000000000E+00  0.00000000000E+00  0.11087407821E+03  0.11087407821E+03  0.00000000000E+00 0. -1.
          2   -1    0    0  501    0  0.00000000000E+00 -0.00000000000E+00 -0.11018079610E+03  0.11018079610E+03  0.00000000000E+00 0.  1.
         25    2    1    2    0    0  0.11123866024E+02  0.10380970088E+02  0.20083389656E+02  0.12760194438E+03  0.12508960282E+03 0.  0.
          5    1    3    3  502    0 -0.49822182452E+01 -0.46218852598E+02  0.43810410606E+02  0.64014289901E+02  0.41800000000E+01 0. -1.
         -5    1    3    3    0  502  0.16106084269E+02  0.56599822686E+02 -0.23727020950E+02  0.63587654476E+02  0.41800000000E+01 0. -1.
        -11    1    1    2    0    0  0.38976358950E+02 -0.92224361093E+01 -0.16305678965E+02  0.43244480010E+02  0.00000000000E+00 0.  1.
         11    1    1    2    0    0 -0.50100224974E+02 -0.11585339784E+01 -0.30844285838E+01  0.50208449918E+02  0.00000000000E+00 0. -1.
</event>
<event>
 7    1  0.2530765E-009  0.1141564E+03  0.7561462E-02  0.1253061E+00
         -2   -1    0    0    0  501 -0.00000000000E+00  0.00000000000E+00  0.36470939571E+02  0.36470939571E+02  0.00000000000E+00 0. -1.
          2   -1    0    0  501    0  0.00000000000E+00 -0.00000000000E+00 -0.54531554579E+03  0.54531554579E+03  0.00000000000E+00 0.  1.
         25    2    1    2    0    0  0.55176149571E+02 -0.62620417441E+02 -0.23386872313E+03  0.27804182206E+03  0.12508777315E+03 0.  0.
          5    1    3    3  502    0  0.70135509769E+02 -0.28071477033E+02 -0.50888215787E+02  0.91181579605E+02  0.41800000000E+01 0.  1.
         -5    1    3    3    0  502 -0.14959360197E+02 -0.34548940408E+02 -0.18298050734E+03  0.18686024245E+03  0.41800000000E+01 0.  1.
        -11    1    1    2    0    0  0.20502623414E+02  0.13731513969E+02 -0.13529905114E+03  0.13753088847E+03  0.00000000000E+00 0.  1.
         11    1    1    2    0    0 -0.75678772986E+02  0.48888903472E+02 -0.13967683195E+03  0.16621377484E+03  0.00000000000E+00 0. -1.
</event>
<event>
 7    1  0.2530765E-009  0.1357136E+03  0.7561462E-02  0.1219216E+00
          2   -1    0    0  501    0  0.00000000000E+00  0.00000000000E+00  0.43468158288E+03  0.43468158288E+03  0.00000000000E+00 0. -1.
         -2   -1    0    0    0  501 -0.00000000000E+00 -0.00000000000E+00 -0.46791180258E+02  0.46791180258E+02  0.00000000000E+00 0.  1.
         25    2    1    2    0    0 -0.28208664824E+02 -0.83465922337E+02  0.25521901586E+03  0.29756649876E+03  0.12508711431E+03 0.  0.
          5    1    3    3  502    0  0.41568335514E+02 -0.54646231600E+02  0.17137862473E+03  0.18466792510E+03  0.41800000000E+01 0.  1.
         -5    1    3    3    0  502 -0.69777000338E+02 -0.28819690737E+02  0.83840391124E+02  0.11289857366E+03  0.41800000000E+01 0.  1.
        -11    1    1    2    0    0 -0.33593730694E+02  0.24192687001E+02  0.49526471203E+02  0.64549951170E+02  0.00000000000E+00 0.  1.
         11    1    1    2    0    0  0.61802395518E+02  0.59273235335E+02  0.83144915561E+02  0.11935631321E+03  0.00000000000E+00 0. -1.
</event>
<event>
 7    1  0.2530765E-009  0.1000729E+03  0.7561462E-02  0.1280143E+00
         -2   -1    0    0    0  501 -0.00000000000E+00  0.00000000000E+00  0.25780745440E+03  0.25780745440E+03  0.00000000000E+00 0.  1.
          2   -1    0    0  501    0  0.00000000000E+00 -0.00000000000E+00 -0.48616944168E+02  0.48616944168E+02  0.00000000000E+00 0. -1.
         25    2    1    2    0    0 -0.21305995309E+02 -0.15692883354E+02  0.10432306367E+03  0.16502052620E+03  0.12509300712E+03 0.  0.
          5    1    3    3  502    0 -0.30161051029E+02  0.51562858074E+02  0.50083484990E+02  0.78065646738E+02  0.41800000000E+01 0. -1.
         -5    1    3    3    0  502  0.88550557196E+01 -0.67255741428E+02  0.54239578683E+02  0.86954879464E+02  0.41800000000E+01 0. -1.
        -11    1    1    2    0    0  0.35508429595E+02 -0.14947916123E+02  0.87247464155E+01  0.39502024869E+02  0.00000000000E+00 0. -1.
         11    1    1    2    0    0 -0.14202434286E+02  0.30640799477E+02  0.96142700149E+02  0.10190184750E+03  0.00000000000E+00 0.  1.
</event>
<event>
 7    1  0.2530765E-009  0.9207179E+02  0.7561462E-02  0.1297911E+00
         -2   -1    0    0    0  501 -0.00000000000E+00  0.00000000000E+00  0.33655491932E+02  0.33655491932E+02  0.00000000000E+00 0.  1.
          2   -1    0    0  501    0  0.00000000000E+00 -0.00000000000E+00 -0.41963667546E+03  0.41963667546E+03  0.00000000000E+00 0. -1.
         25    2    1    2    0    0  0.25426589235E+02 -0.62896328142E+01 -0.29701383377E+03  0.32334065167E+03  0.12508352671E+03 0.  0.
          5    1    3    3  502    0 -0.39493867110E+02  0.30427905160E+02 -0.85997680223E+02  0.99492192434E+02  0.41800000000E+01 0.  1.
         -5    1    3    3    0  502  0.64920456345E+02 -0.36717537974E+02 -0.21101615355E+03  0.22384845924E+03  0.41800000000E+01 0.  1.
        -11    1    1    2    0    0 -0.35954057071E+02 -0.12339987157E+02 -0.99198996156E+02  0.10623281198E+03  0.00000000000E+00 0. -1.
         11    1    1    2    0    0  0.10527467836E+02  0.18629619971E+02  0.10231646392E+02  0.23718703742E+02  0.00000000000E+00 0.  1.
</event>
<event>
 7    1  0.2530765E-009  0.8445362E+02  0.7561462E-02  0.1316868E+00
         -1   -1    0    0    0  501 -0.00000000000E+00  0.00000000000E+00  0.13004755552E+03  0.13004755552E+03  0.00000000000E+00 0.  1.
          1   -1    0    0  501    0  0.00000000000E+00 -0.00000000000E+00 -0.96530945589E+02  0.96530945589E+02  0.00000000000E+00 0. -1.
         25    2    1    2    0    0 -0.46537751995E+01 -0.34971818427E+02  0.37553217701E+02  0.13528159659E+03  0.12508469335E+03 0.  0.
          5    1    3    3  502    0 -0.15269796754E+01  0.29499126370E+02  0.59842876509E+02  0.66866825799E+02  0.41800000000E+01 0.  1.
         -5    1    3    3    0  502 -0.31267955242E+01 -0.64470944797E+02 -0.22289658808E+02  0.68414770796E+02  0.41800000000E+01 0.  1.
        -11    1    1    2    0    0 -0.28971381438E+02  0.27504768629E+02 -0.28479997761E+02  0.49060814427E+02  0.00000000000E+00 0. -1.
         11    1    1    2    0    0  0.33625156638E+02  0.74670497989E+01  0.24443389991E+02  0.42236090087E+02  0.00000000000E+00 0.  1.
</event>
<event>
 7    1  0.2530765E-009  0.5746797E+02  0.7561462E-02  0.1408775E+00
         -1   -1    0    0    0  501 -0.00000000000E+00  0.00000000000E+00  0.90849169768E+02  0.90849169768E+02  0.00000000000E+00 0.  1.
          1   -1    0    0  501    0  0.00000000000E+00 -0.00000000000E+00 -0.16289027754E+03  0.16289027754E+03  0.00000000000E+00 0. -1.
         25    2    1    2    0    0  0.23189629275E+02  0.64824795007E+01  0.10547516080E+02  0.12781846265E+03  0.12508608177E+03 0.  0.
          5    1    3    3  502    0  0.24710343579E+02 -0.16880689868E+02  0.63195547307E+02  0.70047900537E+02  0.41800000000E+01 0. -1.
         -5    1    3    3    0  502 -0.15207143043E+01  0.23363169369E+02 -0.52648031227E+02  0.57770562114E+02  0.41800000000E+01 0. -1.
        -11    1    1    2    0    0 -0.49287305422E+01  0.24490416068E+02 -0.86235702577E+02  0.89781230015E+02  0.00000000000E+00 0. -1.
         11    1    1    2    0    0 -0.18260898732E+02 -0.30972895569E+02  0.36470787237E+01  0.36139754643E+02  0.00000000000E+00 0.  1.
</event>
<event>
 7    1  0.2530765E-009  0.7271067E+02  0.7561462E-02  0.1351111E+00
          2   -1    0    0  501    0  0.00000000000E+00  0.00000000000E+00  0.20270864852E+03  0.20270864852E+03  0.00000000000E+00 0. -1.
         -2   -1    0    0    0  501 -0.00000000000E+00 -0.00000000000E+00 -0.82433740007E+02  0.82433740007E+02  0.00000000000E+00 0.  1.
         25    2    1    2    0    0  0.16031259473E+02 -0.54317752948E+02  0.11340185330E+03  0.17808635512E+03  0.12508936799E+03 0.  0.
          5    1    3    3  502    0  0.11459259523E+02  0.97618826622E+00 -0.25593420720E+02  0.28368347793E+02  0.41800000000E+01 0. -1.
         -5    1    3    3    0  502  0.45719999501E+01 -0.55293941214E+02  0.13899527402E+03  0.14971800733E+03  0.41800000000E+01 0. -1.
        -11    1    1    2    0    0 -0.35640558364E+02  0.32870857656E+02 -0.32316561092E+02  0.58267510710E+02  0.00000000000E+00 0.  1.
         11    1    1    2    0    0  0.19609298891E+02  0.21446895292E+02  0.39189616300E+02  0.48788522691E+02  0.00000000000E+00 0. -1.
</event>
<event>
 7    1  0.2530765E-009  0.1656770E+03  0.7561462E-02  0.1182433E+00
         -1   -1    0    0    0  501 -0.00000000000E+00  0.00000000000E+00  0.11653572329E+04  0.11653572329E+04  0.00000000000E+00 0.  1.
          1   -1    0    0  501    0  0.00000000000E+00 -0.00000000000E+00 -0.35712196727E+02  0.35712196727E+02  0.00000000000E+00 0. -1.
         25    2    1    2    0    0 -0.16790005113E+02  0.13016192306E+03  0.91980912183E+03  0.93750784686E+03  0.12509241322E+03 0.  0.
          5    1    3    3  502    0 -0.34855881738E+02 -0.82471874938E+01  0.11039113976E+03  0.11613192813E+03  0.41800000000E+01 0. -1.
         -5    1    3    3    0  502  0.18065876625E+02  0.13840911055E+03  0.80941798207E+03  0.82137591874E+03  0.41800000000E+01 0. -1.
        -11    1    1    2    0    0 -0.18296940142E+02 -0.11660519587E+03  0.13175369601E+03  0.17689145297E+03  0.00000000000E+00 0. -1.
         11    1    1    2    0    0  0.35086945254E+02 -0.13556727188E+02  0.78082218379E+02  0.86670129839E+02  0.00000000000E+00 0.  1.
</event>
<event>
 7    1  0.2530765E-009  0.1049249E+03  0.7561462E-02  0.1270268E+00
          1   -1    0    0  501    0  0.00000000000E+00  0.00000000000E+00  0.73306508330E+03  0.73306508330E+03  0.00000000000E+00 0. -1.
         -1   -1    0    0    0  501 -0.00000000000E+00 -0.00000000000E+00 -0.44642224674E+02  0.44642224674E+02  0.00000000000E+00 0.  1.
         25    2    1    2    0    0  0.71851610980E+02  0.31480170911E+02  0.62332312778E+03  0.64057206618E+03  0.12508874919E+03 0.  0.
          5    1    3    3  502    0  0.81069848640E+02  0.47208609294E+02  0.61099842497E+03  0.61817272737E+03  0.41800000000E+01 0. -1.
         -5    1    3    3    0  502 -0.92182376599E+01 -0.15728438383E+02  0.12324702817E+02  0.22399338809E+02  0.41800000000E+01 0. -1.
        -11    1    1    2    0    0 -0.48636909353E+02 -0.48320602517E+02  0.79552962478E+02  0.10501953827E+03  0.00000000000E+00 0.  1.
         11    1    1    2    0    0 -0.23214701627E+02  0.16840431606E+02 -0.14453231638E+02  0.32115703528E+02  0.00000000000E+00 0. -1.
</event>
<event>
 7    1  0.2530765E-009  0.1530033E+03  0.7561462E-02  0.1196830E+00
         -2   -1    0    0    0  501 -0.00000000000E+00  0.00000000000E+00  0.29667220891E+02  0.29667220891E+02  0.00000000000E+00 0.  1.
          2   -1    0    0  501    0  0.00000000000E+00 -0.00000000000E+00 -0.86904283444E+03  0.86904283444E+03  0.00000000000E+00 0. -1.
         25    2    1    2    0    0  0.56908058061E+01 -0.11468623382E+03 -0.51468005387E+03  0.54196727857E+03  0.12509058991E+03 0.  0.
          5    1    3    3  502    0 -0.68605259150E-01 -0.14174865977E+03 -0.42765717225E+03  0.45055611929E+03  0.41800000000E+01 0. -1.
         -5    1    3    3    0  502  0.57594110653E+01  0.27062425950E+02 -0.87022881618E+02  0.91411159270E+02  0.41800000000E+01 0. -1.
        -11    1    1    2    0    0 -0.16935210479E+02 -0.36669866409E+01 -0.92593578772E+01  0.19646471777E+02  0.00000000000E+00 0.  1.
         11    1    1    2    0    0  0.11244404673E+02  0.11835322046E+03 -0.31543620180E+03  0.33709630499E+03  0.00000000000E+00 0. -1.
</event>
<event>
 7    1  0.2530765E-009  0.8430035E+02  0.7561462E-02  0.1317272E+00
          1   -1    0    0  501    0  0.00000000000E+00  0.00000000000E+00  0.22641382636E+03  0.22641382636E+03  0.00000000000E+00 0. -1.
         -1   -1    0    0    0  501 -0.00000000000E+00 -0.00000000000E+00 -0.54662861287E+02  0.54662861287E+02  0.00000000000E+00 0.  1.
         25    2    1    2    0    0  0.13272647635E+02  0.20349869627E+02  0.89791069045E+02  0.15588814725E+03  0.12509355700E+03 0.  0.
          5    1    3    3  502    0  0.62501895537E+02  0.37655616933E+02  0.38539124408E+02  0.82626684203E+02  0.41800000000E+01 0. -1.
         -5    1    3    3    0  502 -0.49229247901E+02 -0.17305747306E+02  0.51251944638E+02  0.73261463047E+02  0.41800000000E+01 0. -1.
        -11    1    1    2    0    0 -0.16505371826E+02  0.52803843809E+01 -0.16178087308E+02  0.23707388454E+02  0.00000000000E+00 0.  1.
         11    1    1    2    0    0  0.32327241911E+01 -0.25630254008E+02  0.98137983334E+02  0.10148115194E+03  0.00000000000E+00 0. -1.
</event>
<event>
 7    1  0.2530765E-009  0.1315829E+03  0.7561462E-02  0.1225126E+00
          1   -1    0    0  501    0  0.00000000000E+00  0.00000000000E+00  0.13108966810E+04  0.13108966810E+04  0.00000000000E+00 0. -1.
         -1   -1    0    0    0  501 -0.00000000000E+00 -0.00000000000E+00 -0.19705887334E+02  0.19705887334E+02  0.00000000000E+00 0.  1.
         25    2    1    2    0    0 -0.89324419246E+02  0.82048473326E+02  0.75636822383E+03  0.77617884707E+03  0.12509959544E+03 0.  0.
          5    1    3    3  502    0 -0.68969756761E+02  0.76204524713E+02  0.74444667295E+03  0.75151997857E+03  0.41800000000E+01 0. -1.
         -5    1    3    3    0  502 -0.20354662486E+02  0.58439486131E+01  0.11921550881E+02  0.24658868500E+02  0.41800000000E+01 0. -1.
        -11    1    1    2    0    0  0.44473180883E+02  0.82661905186E+00  0.26288975066E+03  0.26662627050E+03  0.00000000000E+00 0.  1.
         11    1    1    2    0    0  0.44851238363E+02 -0.82875092378E+02  0.27193281917E+03  0.28779745076E+03  0.00000000000E+00 0. -1.
</event>
<event>
 7    1  0.2530765E-009  0.1004939E+03  0.7561462E-02  0.1279261E+00
          1   -1    0    0  501    0  0.00000000000E+00  0.00000000000E+00  0.11882934717E+04  0.11882934717E+04  0.00000000000E+00 0. -1.
         -1   -1    0    0    0  501 -0.00000000000E+00 -0.00000000000E+00 -0.12674674777E+02  0.12674674777E+02  0.00000000000E+00 0.  1.
         25    2    1    2    0    0 -0.27311876002E+02  0.44718399014E+02  0.76999059928E+03  0.78184227413E+03  0.12508455082E+03 0.  0.
          5    1    3    3  502    0 -0.35322658652E+02  0.64561087017E+02  0.74516397966E+03  0.74880081006E+03  0.41800000000E+01 0.  1.
         -5    1    3    3    0  502  0.80107826495E+01 -0.19842688002E+02  0.24826619624E+02  0.33041464068E+02  0.41800000000E+01 0.  1.
        -11    1    1    2    0    0  0.33230999876E+02  0.21116951496E+02  0.15672990539E+03  0.16159977796E+03  0.00000000000E+00 0.  1.
         11    1    1    2    0    0 -0.59191238740E+01 -0.65835350511E+02  0.24889829225E+03  0.25752609439E+03  0.00000000000E+00 0. -1.
</event>
<event>
 7    1  0.2530765E-009  0.8919829E+02  0.7561462E-02  0.1304805E+00
         -1   -1    0    0    0  501 -0.00000000000E+00  0.00000000000E+00  0.24724425582E+02  0.24724425582E+02  0.00000000000E+00 0.  1.
          1   -1    0    0  501    0  0.00000000000E+00 -0.00000000000E+00 -0.10895941177E+04  0.10895941177E+04  0.00000000000E+00 0. -1.
         25    2    1    2    0    0 -0.62297576939E+01  0.56181842699E+02 -0.93958638323E+03  0.94956239151E+03  0.12510377486E+03 0.  0.
          5    1    3    3  502    0 -0.27516178086E+02  0.59094218803E+01 -0.44599608902E+02  0.52902351911E+02  0.41800000000E+01 0. -1.
         -5    1    3    3    0  502  0.21286420392E+02  0.50272420819E+02 -0.89498677433E+03  0.89666003960E+03  0.41800000000E+01 0. -1.
        -11    1    1    2    0    0 -0.33496609561E+02 -0.40311179717E+02 -0.10512345193E+03  0.11746469345E+03  0.00000000000E+00 0. -1.
         11    1    1    2    0    0  0.39726367255E+02 -0.15870662983E+02 -0.20159856978E+02  0.47291458342E+02  0.00000000000E+00 0.  1.
</event>
<event>
 7    1  0.2530765E-009  0.1348509E+03  0.7561462E-02  0.1220430E+00
         -3   -1    0    0    0  501 -0.00000000000E+00  0.00000000000E+00  0.72188470446E+02  0.72188470446E+02  0.00000000000E+00 0.  1.
          3   -1    0    0  501    0  0.00000000000E+00 -0.00000000000E+00 -0.33572051815E+03  0.33572051815E+03  0.00000000000E+00 0. -1.
         25    2    1    2    0    0 -0.98744774079E+02 -0.39294270032E+02 -0.97565017050E+02  0.19094379159E+03  0.12508408743E+03 0.  0.
          5    1    3    3  502    0 -0.11560421805E+03 -0.52394598495E+02 -0.46154579376E+02  0.13511937973E+03  0.41800000000E+01 0. -1.
         -5    1    3    3    0  502  0.16859443971E+02  0.13100328463E+02 -0.51410437674E+02  0.55824411853E+02  0.41800000000E+01 0. -1.
        -11    1    1    2    0    0  0.95905875425E+02  0.51197960877E+02 -0.17187824226E+03  0.20337477302E+03  0.00000000000E+00 0. -1.
         11    1    1    2    0    0  0.28388986547E+01 -0.11903690845E+02  0.59112116121E+01  0.13590423983E+02  0.00000000000E+00 0.  1.
</event>
<event>
 7    1  0.2530765E-009  0.9365582E+02  0.7561462E-02  0.1294233E+00
          2   -1    0    0  501    0  0.00000000000E+00  0.00000000000E+00  0.46170249604E+02  0.46170249604E+02  0.00000000000E+00 0. -1.
         -2   -1    0    0    0  501 -0.00000000000E+00 -0.00000000000E+00 -0.28103621940E+03  0.28103621940E+03  0.00000000000E+00 0.  1.
         25    2    1    2    0    0 -0.12143022408E+02 -0.27483497289E+02 -0.17007429830E+03  0.21325087041E+03  0.12509145124E+03 0.  0.
          5    1    3    3  502    0  0.37000273633E+02  0.22909588822E+01 -0.14620694391E+03  0.15089139004E+03  0.41800000000E+01 0.  1.
         -5    1    3    3    0  502 -0.49143296041E+02 -0.29774456171E+02 -0.23867354386E+02  0.62359480365E+02  0.41800000000E+01 0.  1.
        -11    1    1    2    0    0  0.48037022828E+02  0.29623278760E+02 -0.29970460688E+02  0.63900882001E+02  0.00000000000E+00 0. -1.
         11    1    1    2    0    0 -0.35894000420E+02 -0.21397814709E+01 -0.34821210811E+02  0.50054716593E+02  0.00000000000E+00 0.  1.
</event>
<event>
 7    1  0.2530765E-009  0.1308715E+03  0.7561462E-02  0.1226168E+00
         -2   -1    0    0    0  501 -0.00000000000E+00  0.00000000000E+00  0.29213103144E+02  0.29213103144E+02  0.00000000000E+00 0.  1.
          2   -1    0    0  501    0  0.00000000000E+00 -0.00000000000E+00 -0.96979222805E+03  0.96979222805E+03  0.00000000000E+00 0. -1.
         25    2    1    2    0    0  0.88090600085E+02  0.92858020524E+02 -0.59984774926E+03  0.62597786443E+03  0.12509355965E+03 0.  0.
          5    1    3    3  502    0  0.16184565270E+02  0.39778451682E+02 -0.44540378215E+03  0.44748884558E+03  0.41800000000E+01 0. -1.
         -5    1    3    3    0  502  0.71906034816E+02  0.53079568842E+02 -0.15444396711E+03  0.17848901885E+03  0.41800000000E+01 0. -1.
        -11    1    1    2    0    0 -0.50185063762E+02 -0.40529311598E+02 -0.72146921069E+02  0.96779873647E+02  0.00000000000E+00 0.  1.
         11    1    1    2    0    0 -0.37905536324E+02 -0.52328708926E+02 -0.26858445458E+03  0.27624759311E+03  0.00000000000E+00 0. -1.
</event>
<event>
 7    1  0.2530765E-009  0.1109155E+03  0.7561462E-02  0.1258884E+00
         -2   -1    0    0    0  501 -0.00000000000E+00  0.00000000000E+00  0.17462697386E+02  0.17462697386E+02  0.00000000000E+00 0.  1.
          2   -1    0    0  501    0  0.00000000000E+00 -0.00000000000E+00 -0.91592907433E+03  0.91592907433E+03  0.00000000000E+00 0. -1.
         25    2    1    2    0    0  0.87843708670E+01 -0.64706071654E+02 -0.56559947116E+03  0.58293242781E+03  0.12507362925E+03 0.  0.
          5    1    3    3  502    0  0.53191119899E+02  0.82707673052E+01 -0.17798842249E+03  0.18599745097E+03  0.41800000000E+01 0.  1.
         -5    1    3    3    0  502 -0.44406749032E+02 -0.72976838959E+02 -0.38761104867E+03  0.39693497684E+03  0.41800000000E+01 0.  1.
        -11    1    1    2    0    0 -0.29155613145E+02  0.47058610728E+02 -0.31061188640E+03  0.31550642877E+03  0.00000000000E+00 0. -1.
         11    1    1    2    0    0  0.20371242278E+02  0.17647460926E+02 -0.22255019391E+02  0.34952915145E+02  0.00000000000E+00 0.  1.
</event>
<event>
 7    1  0.2530765E-009  0.9804635E+02  0.7561462E-02  0.1284459E+00
          1   -1    0    0  501    0  0.00000000000E+00  0.00000000000E+00  0.19976507464E+03  0.19976507464E+03  0.00000000000E+00 0.  1.
         -1   -1    0    0    0  501 -0.00000000000E+00 -0.00000000000E+00 -0.89526322535E+02  0.89526322535E+02  0.00000000000E+00 0. -1.
         25    2    1    2    0    0  0.47597972122E+02 -0.48688269766E+02  0.10298373192E+03  0.17574649707E+03  0.12508024477E+03 0.  0.
          5    1    3    3  502    0  0.55271582899E+02 -0.28585022716E+02 -0.77665450283E+01  0.62847776583E+02  0.41800000000E+01 0.  1.
         -5    1    3    3    0  502 -0.76736107769E+01 -0.20103247050E+02  0.11075027695E+03  0.11289872049E+03  0.41800000000E+01 0.  1.
        -11    1    1    2    0    0 -0.63372332971E+02  0.29684439525E+01  0.13248421092E+02  0.64810376539E+02  0.00000000000E+00 0.  1.
         11    1    1    2    0    0  0.15774360849E+02  0.45719825814E+02 -0.59934009044E+01  0.48734523565E+02  0.00000000000E+00 0. -1.
</event>
<event>
 7    1  0.2530765E-009  0.1586151E+03  0.7561462E-02  0.1190269E+00
         -2   -1    0    0    0  501 -0.00000000000E+00  0.00000000000E+00  0.41160869449E+02  0.41160869449E+02  0.00000000000E+00 0.  1.
          2   -1    0    0  501    0  0.00000000000E+00 -0.00000000000E+00 -0.70769477391E+03  0.70769477391E+03  0.00000000000E+00 0. -1.
         25    2    1    2    0    0 -0.94097566662E+02 -0.74794398588E+02 -0.23841791763E+03  0.29485672630E+03  0.12509528962E+03 0.  0.
          5    1    3    3  502    0 -0.11996020066E+03 -0.47423546972E+02 -0.21360170122E+03  0.24956482468E+03  0.41800000000E+01 0.  1.
         -5    1    3    3    0  502  0.25862634002E+02 -0.27370851616E+02 -0.24816216409E+02  0.45291901622E+02  0.41800000000E+01 0.  1.
        -11    1    1    2    0    0  0.10391447380E+01  0.55164254859E+02 -0.13499998092E+03  0.14583953403E+03  0.00000000000E+00 0.  1.
         11    1    1    2    0    0  0.93058421924E+02  0.19630143728E+02 -0.29311600591E+03  0.30815938304E+03  0.00000000000E+00 0. -1.
</event>
<event>
 7    1  0.2530765E-009  0.1100847E+03  0.7561462E-02  0.1260413E+00
          1   -1    0    0  501    0  0.00000000000E+00  0.00000000000E+00  0.58035766413E+03  0.58035766413E+03  0.00000000000E+00 0. -1.
         -1   -1    0    0    0  501 -0.00000000000E+00 -0.00000000000E+00 -0.29621738890E+02  0.29621738890E+02  0.00000000000E+00 0.  1.
         25    2    1    2    0    0 -0.12419794648E+01 -0.46754416073E+02  0.43018078435E+03  0.45043289352E+03  0.12508703533E+03 0.  0.
          5    1    3    3  502    0  0.55692571292E+02 -0.26995388684E+01  0.25369664146E+03  0.25978531193E+03  0.41800000000E+01 0.  1.
         -5    1    3    3    0  502 -0.56934550757E+02 -0.44054877204E+02  0.17648414289E+03  0.19064758159E+03  0.41800000000E+01 0.  1.
        -11    1    1    2    0    0  0.34539465320E+02 -0.25155375545E+00  0.11840750497E+02  0.36513577149E+02  0.00000000000E+00 0.  1.
         11    1    1    2    0    0 -0.33297485855E+02  0.47005969828E+02  0.10871439039E+03  0.12303293235E+03  0.00000000000E+00 0. -1.
</event>
<event>
 7    1  0.2530765E-009  0.1218487E+03  0.7561462E-02  0.1240078E+00
         -1   -1    0    0    0  501 -0.00000000000E+00  0.00000000000E+00  0.16268641973E+02  0.16268641973E+02  0.00000000000E+00 0.  1.
          1   -1    0    0  501    0  0.00000000000E+00 -0.00000000000E+00 -0.13754447098E+04  0.13754447098E+04  0.00000000000E+00 0. -1.
         25    2    1    2    0    0 -0.36275137806E+02 -0.52087633640E+02 -0.11314253071E+04  0.11400878358E+04  0.12509212821E+03 0.  0.
          5    1    3    3  502    0  0.14443332173E+01  0.39186362673E+02 -0.24281880318E+03  0.24600020467E+03  0.41800000000E+01 0.  1.
         -5    1    3    3    0  502 -0.37719471023E+02 -0.91273996313E+02 -0.88860650396E+03  0.89408763115E+03  0.41800000000E+01 0.  1.
        -11    1    1    2    0    0 -0.10076182438E+02  0.57835442717E+02 -0.14778989366E+03  0.15902301895E+03  0.00000000000E+00 0. -1.
         11    1    1    2    0    0  0.46351320244E+02 -0.57478090774E+01 -0.79960867055E+02  0.92602497038E+02  0.00000000000E+00 0.  1.
</event>
<event>
 7    1  0.2530765E-009  0.1084598E+03  0.7561462E-02  0.1263449E+00
          2   -1    0    0  501    0  0.00000000000E+00  0.00000000000E+00  0.16483451095E+03  0.16483451095E+03  0.00000000000E+00 0. -1.
         -2   -1    0    0    0  501 -0.00000000000E+00 -0.00000000000E+00 -0.10671718570E+03  0.10671718570E+03  0.00000000000E+00 0.  1.
         25    2    1    2    0    0  0.73082856826E+02  0.17688819989E+02  0.51935286945E+02  0.15491714564E+03  0.12509216470E+03 0.  0.
          5    1    3    3  502    0  0.26887350413E+01  0.54448397439E+02 -0.81063361991E+01  0.55272437674E+02  0.41800000000E+01 0. -1.
         -5    1    3    3    0  502  0.70394121785E+02 -0.36759577451E+02  0.60041623144E+02  0.99644707968E+02  0.41800000000E+01 0. -1.
        -11    1    1    2    0    0 -0.48402078646E+02 -0.28062275002E+02 -0.36103690404E+02  0.66586252007E+02  0.00000000000E+00 0.  1.
         11    1    1    2    0    0 -0.24680778180E+02  0.10373455013E+02  0.42285728704E+02  0.50048298998E+02  0.00000000000E+00 0. -1.
</event>
<event>
 7    1  0.2530765E-009  0.1129461E+03  0.7561462E-02  0.1255209E+00
         -2   -1    0    0    0  501 -0.00000000000E+00  0.00000000000E+00  0.31942201715E+02  0.31942201715E+02  0.00000000000E+00 0. -1.
          2   -1    0    0  501    0  0.00000000000E+00 -0.00000000000E+00 -0.69423498096E+03  0.69423498096E+03  0.00000000000E+00 0.  1.
         25    2    1    2    0    0  0.40908285654E+02 -0.75173039521E+02 -0.48909634284E+03  0.51204104399E+03  0.12508526869E+03 0.  0.
          5    1    3    3  502    0  0.39462832052E+01 -0.62258145479E+02 -0.82361836279E+02  0.10340500135E+03  0.41800000000E+01 0. -1.
         -5    1    3    3    0  502  0.36962002449E+02 -0.12914894042E+02 -0.40673450656E+03  0.40863604264E+03  0.41800000000E+01 0. -1.
        -11    1    1    2    0    0  0.28265420697E+02  0.13521532007E+02 -0.61390506844E+02  0.68924307509E+02  0.00000000000E+00 0.  1.
         11    1    1    2    0    0 -0.69173706350E+02  0.61651507514E+02 -0.11180592956E+03  0.14521183118E+03  0.00000000000E+00 0. -1.
</event>
<event>
 7    1  0.2530765E-009  0.1447186E+03  0.7561462E-02  0.1207117E+00
          2   -1    0    0  501    0  0.00000000000E+00  0.00000000000E+00  0.25607214845E+03  0.25607214845E+03  0.00000000000E+00 0. -1.
         -2   -1    0    0    0  501 -0.00000000000E+00 -0.00000000000E+00 -0.91194783721E+02  0.91194783721E+02  0.00000000000E+00 0.  1.
         25    2    1    2    0    0 -0.10032632870E+02 -0.10694501122E+03  0.90789048948E+02  0.18822266432E+03  0.12508889162E+03 0.  0.
          5    1    3    3  502    0 -0.31337201626E+02  0.72736592382E+01 -0.10425255583E+02  0.34074692639E+02  0.41800000000E+01 0. -1.
         -5    1    3    3    0  502  0.21304568757E+02 -0.11421867046E+03  0.10121430453E+03  0.15414797168E+03  0.41800000000E+01 0. -1.
        -11    1    1    2    0    0 -0.32670191949E+02  0.88275576306E+02  0.49846381585E+02  0.10651094109E+03  0.00000000000E+00 0. -1.
         11    1    1    2    0    0  0.42702824819E+02  0.18669434914E+02  0.24241934199E+02  0.52533326768E+02  0.00000000000E+00 0.  1.
</event>
<event>
 7    1  0.2530765E-009  0.1114447E+03  0.7561462E-02  0.1257918E+00
         -2   -1    0    0    0  501 -0.00000000000E+00  0.00000000000E+00  0.42925715038E+02  0.42925715038E+02  0.00000000000E+00 0.  1.
          2   -1    0    0  501    0  0.00000000000E+00 -0.00000000000E+00 -0.76582015290E+03  0.76582015290E+03  0.00000000000E+00 0. -1.
         25    2    1    2    0    0 -0.20572990142E+02 -0.68080289874E+02 -0.66192843714E+03  0.67738850716E+03  0.12509100664E+03 0.  0.
          5    1    3    3  502    0 -0.65177154817E+02 -0.24454645269E+02 -0.21300670744E+03  0.22413259691E+03  0.41800000000E+01 0.  1.
         -5    1    3    3    0  502  0.44604164675E+02 -0.43625644605E+02 -0.44892172970E+03  0.45325591025E+03  0.41800000000E+01 0.  1.
        -11    1    1    2    0    0  0.33783412983E+02  0.16926470615E+02  0.13437166292E+02  0.40104636118E+02  0.00000000000E+00 0.  1.
         11    1    1    2    0    0 -0.13210422841E+02  0.51153819260E+02 -0.74403167007E+02  0.91252724656E+02  0.00000000000E+00 0. -1.
</event>
<event>
 7    1  0.2530765E-009  0.2456705E+03  0.7561462E-02  0.1116072E+00
          2   -1    0    0  501    0  0.00000000000E+00  0.00000000000E+00  0.43738869234E+03  0.43738869234E+03  0.00000000000E+00 0. -1.
         -2   -1    0    0    0  501 -0.00000000000E+00 -0.00000000000E+00 -0.15230755941E+03  0.15230755941E+03  0.00000000000E+00 0.  1.
         25    2    1    2    0    0  0.11755610025E+03 -0.19723317629E+03  0.19466550589E+03  0.32597636866E+03  0.12508225777E+03 0.  0.
          5    1    3    3  502    0  0.11526982713E+03 -0.10422652291E+03  0.70324133401E+02  0.17062607439E+03  0.41800000000E+01 0. -1.
         -5    1    3    3    0  502  0.22862731194E+01 -0.93006653382E+02  0.12434137249E+03  0.15535029427E+03  0.41800000000E+01 0. -1.
        -11    1    1    2    0    0 -0.82080953914E+02  0.61785209228E+02  0.64557088078E+02  0.12133553765E+03  0.00000000000E+00 0. -1.
         11    1    1    2    0    0 -0.35475146333E+02  0.13544796706E+03  0.25858538966E+02  0.14238434544E+03  0.00000000000E+00 0.  1.
</event>
<event>
 7    1  0.2530765E-009  0.1650284E+03  0.7561462E-02  0.1183134E+00
         -2   -1    0    0    0  501 -0.00000000000E+00  0.00000000000E+00  0.10279796311E+03  0.10279796311E+03  0.00000000000E+00 0.  1.
          2   -1    0    0  501    0  0.00000000000E+00 -0.00000000000E+00 -0.33154385709E+03  0.33154385709E+03  0.00000000000E+00 0. -1.
         25    2    1    2    0    0  0.12427553670E+03 -0.39092092988E+02 -0.39479724516E+02  0.18487605074E+03  0.12509158538E+03 0.  0.
          5    1    3    3  502    0  0.81804296200E+02  0.31054340810E+02 -0.51919848650E+02  0.10183053591E+03  0.41800000000E+01 0.  1.
         -5    1    3    3    0  502  0.42471240501E+02 -0.70146433798E+02  0.12440124135E+02  0.83045514827E+02  0.41800000000E+01 0.  1.
        -11    1    1    2    0    0 -0.19897080128E+02  0.51523527803E+02 -0.85298905297E+02  0.10161924503E+03  0.00000000000E+00 0.  1.
         11    1    1    2    0    0 -0.10437845657E+03 -0.12431434815E+02 -0.10396726417E+03  0.14784652444E+03  0.00000000000E+00 0. -1.
</event>
<event>
 7    1  0.2634231E-009  0.9651699E+02  0.7561462E-02  0.1287796E+00
          2   -1    0    0  501    0  0.00000000000E+00  0.00000000000E+00  0.20597818460E+03  0.20597818460E+03  0.00000000000E+00 0.  1.
         -2   -1    0    0    0  501 -0.00000000000E+00 -0.00000000000E+00 -0.67229212126E+02  0.67229212126E+02  0.00000000000E+00 0. -1.
         25    2    1    2    0    0  0.13421596010E+02 -0.37356194131E+02  0.10313487554E+03  0.16691346875E+03  0.12509068318E+03 0.  0.
          5    1    3    3  502    0 -0.44947250933E+02  0.16899683815E+02  0.57334879787E+02  0.74904042078E+02  0.41800000000E+01 0. -1.
         -5    1    3    3    0  502  0.58368846943E+02 -0.54255877946E+02  0.45799995753E+02  0.92009426670E+02  0.41800000000E+01 0. -1.
        -11    1    1    2    0    0  0.17887521631E+02  0.23067252643E+01  0.53153969240E+02  0.56130462830E+02  0.00000000000E+00 0.  1.
         11    1    1    2    0    0 -0.31309117640E+02  0.35049468867E+02 -0.17539872305E+02  0.50163465149E+02  0.00000000000E+00 0. -1.
</event>
<event>
 7    1  0.2530765E-009  0.8510588E+02  0.7561462E-02  0.1315156E+00
         -4   -1    0    0    0  501 -0.00000000000E+00  0.00000000000E+00  0.41544120340E+03  0.41544120340E+03  0.00000000000E+00 0.  1.
          4   -1    0    0  501    0  0.00000000000E+00 -0.00000000000E+00 -0.29197405568E+02  0.29197405568E+02  0.00000000000E+00 0. -1.
         25    2    1    2    0    0 -0.16919533247E+02 -0.34096622675E+01  0.24555576240E+03  0.27611878824E+03  0.12508419712E+03 0.  0.
          5    1    3    3  502    0 -0.65921248652E+02  0.13972845494E+02  0.93227326173E+02  0.11510715955E+03  0.41800000000E+01 0. -1.
         -5    1    3    3    0  502  0.49001715405E+02 -0.17382507762E+02  0.15232843623E+03  0.16101162869E+03  0.41800000000E+01 0. -1.
        -11    1    1    2    0    0  0.25766577293E+02 -0.15209770351E+02  0.14449197351E+03  0.14755739232E+03  0.00000000000E+00 0.  1.
         11    1    1    2    0    0 -0.88470440466E+01  0.18619432619E+02 -0.38039380884E+01  0.20962428399E+02  0.00000000000E+00 0. -1.
</event>
<event>
 7    1  0.2530765E-009  0.1466708E+03  0.7561462E-02  0.1204625E+00
         -1   -1    0    0    0  501 -0.00000000000E+00  0.00000000000E+00  0.77089099665E+02  0.77089099665E+02  0.00000000000E+00 0.  1.
          1   -1    0    0  501    0  0.00000000000E+00 -0.00000000000E+00 -0.38880590840E+03  0.38880590840E+03  0.00000000000E+00 0. -1.
         25    2    1    2    0    0 -0.12292537756E+03  0.95360469322E+01 -0.93628998113E+02  0.19903829556E+03  0.12509304207E+03 0.  0.
          5    1    3    3  502    0 -0.24852290948E+01 -0.31848238238E+02 -0.58629890243E+02  0.66898602918E+02  0.41800000000E+01 0.  1.
         -5    1    3    3    0  502 -0.12044014846E+03  0.41384285170E+02 -0.34999107870E+02  0.13213969264E+03  0.41800000000E+01 0.  1.
        -11    1    1    2    0    0  0.90960225030E+02 -0.29964274018E+02 -0.83610558926E+02  0.12713121497E+03  0.00000000000E+00 0.  1.
         11    1    1    2    0    0  0.31965152525E+02  0.20428227086E+02 -0.13447725170E+03  0.13972549754E+03  0.00000000000E+00 0. -1.
</event>
<event>
 7    1  0.2530765E-009  0.7674523E+02  0.7561462E-02  0.1338550E+00
          2   -1    0    0  501    0  0.00000000000E+00  0.00000000000E+00  0.65593251609E+02  0.65593251609E+02  0.00000000000E+00 0.  1.
         -2   -1    0    0    0  501 -0.00000000000E+00 -0.00000000000E+00 -0.18345846998E+03  0.18345846998E+03  0.00000000000E+00 0. -1.
         25    2    1    2    0    0 -0.14641237937E+02  0.30151316904E+02 -0.76132391379E+02  0.15022754031E+03  0.12509478443E+03 0.  0.
          5    1    3    3  502    0  0.51959293563E+01 -0.35668512601E+02 -0.72721534741E+02  0.81271978493E+02  0.41800000000E+01 0.  1.
         -5    1    3    3    0  502 -0.19837167293E+02  0.65819829505E+02 -0.34108566375E+01  0.68955561816E+02  0.41800000000E+01 0.  1.
        -11    1    1    2    0    0  0.19213262741E+02 -0.14481514674E+01 -0.60988268706E+02  0.63959483484E+02  0.00000000000E+00 0. -1.
         11    1    1    2    0    0 -0.45720248043E+01 -0.28703165437E+02  0.19255441713E+02  0.34864697797E+02  0.00000000000E+00 0.  1.
</event>
<event>
 7    1  0.2530765E-009  0.1174319E+03  0.7561462E-02  0.1247395E+00
         -1   -1    0    0    0  501 -0.00000000000E+00  0.00000000000E+00  0.35302989027E+02  0.35302989027E+02  0.00000000000E+00 0.  1.
          1   -1    0    0  501    0  0.00000000000E+00 -0.00000000000E+00 -0.54905127177E+03  0.54905127177E+03  0.00000000000E+00 0. -1.
         25    2    1    2    0    0  0.71299702581E+02 -0.40432794354E+02 -0.31352262668E+03  0.34736448929E+03  0.12508873863E+03 0.  0.
          5    1    3    3  502    0  0.10006645038E+03 -0.56968473077E+02 -0.25778332234E+03  0.28236220550E+03  0.41800000000E+01 0.  1.
         -5    1    3    3    0  502 -0.28766747801E+02  0.16535678723E+02 -0.55739304346E+02  0.65002283798E+02  0.41800000000E+01 0.  1.
        -11    1    1    2    0    0 -0.28050888424E+02  0.16363941561E+01  0.41980175973E+00  0.28101714551E+02  0.00000000000E+00 0.  1.
         11    1    1    2    0    0 -0.43248814157E+02  0.38796400198E+02 -0.20064545782E+03  0.20888805695E+03  0.00000000000E+00 0. -1.
</event>
<event>
 7    1  0.2530765E-009  0.1028851E+03  0.7561462E-02  0.1274343E+00
         -1   -1    0    0    0  501 -0.00000000000E+00  0.00000000000E+00  0.23425461031E+02  0.23425461031E+02  0.00000000000E+00 0.  1.
          1   -1    0    0  501    0  0.00000000000E+00 -0.00000000000E+00 -0.59595593860E+03  0.59595593860E+03  0.00000000000E+00 0. -1.
         25    2    1    2    0    0  0.31349088176E+02  0.35900955549E+02 -0.28416147142E+03  0.31411456089E+03  0.12509425078E+03 0.  0.
          5    1    3    3  502    0  0.54126574980E+02  0.58208746630E+02 -0.26497295251E+03  0.27666962657E+03  0.41800000000E+01 0.  1.
         -5    1    3    3    0  502 -0.22777486804E+02 -0.22307791080E+02 -0.19188518917E+02  0.37444934320E+02  0.41800000000E+01 0.  1.
        -11    1    1    2    0    0 -0.39217423670E+02  0.15390065473E+02 -0.78641016418E+02  0.89214740362E+02  0.00000000000E+00 0.  1.
         11    1    1    2    0    0  0.78683354938E+01 -0.51291021022E+02 -0.20972798973E+03  0.21605209838E+03  0.00000000000E+00 0. -1.
</event>
<event>
 7    1  0.2530765E-009  0.1013616E+03  0.7561462E-02  0.1277459E+00
         -1   -1    0    0    0  501 -0.00000000000E+00  0.00000000000E+00  0.29908485040E+02  0.29908485040E+02  0.00000000000E+00 0.  1.
          1   -1    0    0  501    0  0.00000000000E+00 -0.00000000000E+00 -0.57022621048E+03  0.57022621048E+03  0.00000000000E+00 0. -1.
         25    2    1    2    0    0 -0.20390049452E+02 -0.15487025827E+02 -0.44413767805E+03  0.46212586673E+03  0.12508572083E+03 0.  0.
          5    1    3    3  502    0 -0.47341242124E+02 -0.45238319690E+02 -0.38485556437E+03  0.39040873018E+03  0.41800000000E+01 0. -1.
         -5    1    3    3    0  502  0.26951192672E+02  0.29751293863E+02 -0.59282113675E+02  0.71717136549E+02  0.41800000000E+01 0. -1.
        -11    1    1    2    0    0 -0.15858037986E+02  0.46446392258E+02 -0.34210921749E+02  0.59825846333E+02  0.00000000000E+00 0.  1.
         11    1    1    2    0    0  0.36248087438E+02 -0.30959366431E+02 -0.61969125647E+02  0.78182982459E+02  0.00000000000E+00 0. -1.
</event>
<event>
 7    1  0.2530765E-009  0.8364850E+02  0.7561462E-02  0.1319005E+00
          4   -1    0    0  501    0  0.00000000000E+00  0.00000000000E+00  0.18969055843E+03  0.18969055843E+03  0.00000000000E+00 0. -1.
         -4   -1    0    0    0  501 -0.00000000000E+00 -0.00000000000E+00 -0.77597462647E+02  0.77597462647E+02  0.00000000000E+00 0.  1.
         25    2    1    2    0    0 -0.42602085451E+02  0.14890463712E+01  0.11918209075E+03  0.17795818011E+03  0.12509032005E+03 0.  0.
          5    1    3    3  502    0  0.18168159846E+02 -0.30844600912E+02 -0.45281462719E+01  0.36324206065E+02  0.41800000000E+01 0. -1.
         -5    1    3    3    0  502 -0.60770245298E+02  0.32333647283E+02  0.12371023702E+03  0.14163397405E+03  0.41800000000E+01 0. -1.
        -11    1    1    2    0    0  0.44478412044E+02 -0.16294206574E+02 -0.34171172052E+02  0.58408041443E+02  0.00000000000E+00 0.  1.
         11    1    1    2    0    0 -0.18763265928E+01  0.14805160202E+02  0.27082177080E+02  0.30921799519E+02  0.00000000000E+00 0. -1.
</event>
<event>
 7    1  0.2530765E-009  0.9058747E+02  0.7561462E-02  0.1301435E+00
          1   -1    0    0  501    0  0.00000000000E+00  0.00000000000E+00  0.36407174950E+03  0.36407174950E+03  0.00000000000E+00 0. -1.
         -1   -1    0    0    0  501 -0.00000000000E+00 -0.00000000000E+00 -0.54573226931E+02  0.54573226931E+02  0.00000000000E+00 0.  1.
         25    2    1    2    0    0 -0.35278954492E+02 -0.49033672114E+01  0.46000370644E+02  0.13795472216E+03  0.12508726405E+03 0.  0.
          5    1    3    3  502    0 -0.59220024607E+02 -0.14458464458E+02  0.76432376312E+02  0.97854172408E+02  0.41800000000E+01 0. -1.
         -5    1    3    3    0  502  0.23941070115E+02  0.95550972468E+01 -0.30432005667E+02  0.40100549754E+02  0.41800000000E+01 0. -1.
        -11    1    1    2    0    0  0.17224150645E+02 -0.41086773738E+02  0.92037725755E+02  0.10225329972E+03  0.00000000000E+00 0.  1.
         11    1    1    2    0    0  0.18054803847E+02  0.45990140950E+02  0.17146042617E+03  0.17843695455E+03  0.00000000000E+00 0. -1.
</event>
<event>
 7    1  0.2530765E-009  0.5677505E+02  0.7561462E-02  0.1411886E+00
          3   -1    0    0  501    0  0.00000000000E+00  0.00000000000E+00  0.54003893676E+02  0.54003893676E+02  0.00000000000E+00 0. -1.
         -3   -1    0    0    0  501 -0.00000000000E+00 -0.00000000000E+00 -0.38128280604E+03  0.38128280604E+03  0.00000000000E+00 0.  1.
         25    2    1    2    0    0  0.60078997787E+01 -0.29377501570E+02 -0.43806829373E+02  0.13589038838E+03  0.12509207368E+03 0.  0.
          5    1    3    3  502    0  0.70409470682E+01 -0.26899188896E+02  0.41670002128E+02  0.50269302524E+02  0.41800000000E+01 0.  1.
         -5    1    3    3    0  502 -0.10330472894E+01 -0.24783126741E+01 -0.85476831501E+02  0.85621085860E+02  0.41800000000E+01 0.  1.
        -11    1    1    2    0    0  0.16796971575E+02  0.48106254321E+02 -0.24834707190E+03  0.25352044904E+03  0.00000000000E+00 0.  1.
         11    1    1    2    0    0 -0.22804871353E+02 -0.18728752750E+02 -0.35125011084E+02  0.45875862288E+02  0.00000000000E+00 0. -1.
</event>
<event>
 7    1  0.2530765E-009  0.3525232E+03  0.7561462E-02  0.1061584E+00
         -2   -1    0    0    0  501 -0.00000000000E+00  0.00000000000E+00  0.17918126714E+03  0.17918126714E+03  0.00000000000E+00 0.  1.
          2   -1    0    0  501    0  0.00000000000E+00 -0.00000000000E+00 -0.70703197223E+03  0.70703197223E+03  0.00000000000E+00 0. -1.
         25    2    1    2    0    0 -0.28230167311E+03 -0.18707610563E+03 -0.26726115806E+03  0.44918978354E+03  0.12510488036E+03 0.  0.
          5    1    3    3  502    0  0.97821533162E+01  0.35782894595E+01 -0.14874023157E+02  0.18633401295E+02  0.41800000000E+01 0. -1.
         -5    1    3    3    0  502 -0.29208382643E+03 -0.19065439509E+03 -0.25238713490E+03  0.43055638225E+03  0.41800000000E+01 0. -1.
        -11    1    1    2    0    0  0.14069841912E+03  0.13241750409E+03 -0.18483034272E+03  0.26738118132E+03  0.00000000000E+00 0.  1.
         11    1    1    2    0    0  0.14160325400E+03  0.54658601540E+02 -0.75759204305E+02  0.16964227451E+03  0.00000000000E+00 0. -1.
</event>
<event>
 7    1  0.2530765E-009  0.2392637E+03  0.7561462E-02  0.1120284E+00
         -2   -1    0    0    0  501 -0.00000000000E+00  0.00000000000E+00  0.47639435996E+03  0.47639435996E+03  0.00000000000E+00 0. -1.
          2   -1    0    0  501    0  0.00000000000E+00 -0.00000000000E+00 -0.20057665088E+03  0.20057665088E+03  0.00000000000E+00 0.  1.
         25    2    1    2    0    0 -0.17323287587E+03 -0.14811240698E+03 -0.53682664420E+02  0.26547257388E+03  0.12508774776E+03 0.  0.
          5    1    3    3  502    0 -0.84719095039E+02 -0.90079773613E+01 -0.53221763691E+02  0.10054102273E+03  0.41800000000E+01 0.  1.
         -5    1    3    3    0  502 -0.88513780830E+02 -0.13910442962E+03 -0.46090072935E+00  0.16493155115E+03  0.41800000000E+01 0.  1.
        -11    1    1    2    0    0  0.75654931461E+02  0.73304453127E+02  0.76457220147E+02  0.13016496462E+03  0.00000000000E+00 0.  1.
         11    1    1    2    0    0  0.97577944408E+02  0.74807953852E+02  0.25304315336E+03  0.28133347234E+03  0.00000000000E+00 0. -1.
</event>
<event>
 7    1  0.2530765E-009  0.1182027E+03  0.7561462E-02  0.1246092E+00
         -1   -1    0    0    0  501 -0.00000000000E+00  0.00000000000E+00  0.24575594429E+02  0.24575594429E+02  0.00000000000E+00 0.  1.
          1   -1    0    0  501    0  0.00000000000E+00 -0.00000000000E+00 -0.72154278031E+03  0.72154278031E+03  0.00000000000E+00 0. -1.
         25    2    1    2    0    0 -0.69780186039E+02  0.22348184509E+02 -0.46177505035E+03  0.48399618231E+03  0.12508953452E+03 0.  0.
          5    1    3    3  502    0  0.56966728249E+01 -0.39632776924E+02 -0.75714633233E+02  0.85751893119E+02  0.41800000000E+01 0.  1.
         -5    1    3    3    0  502 -0.75476858864E+02  0.61980961433E+02 -0.38606041712E+03  0.39824428919E+03  0.41800000000E+01 0.  1.
        -11    1    1    2    0    0  0.29241423075E+02 -0.43695952953E+02 -0.54562022646E+02  0.75772102011E+02  0.00000000000E+00 0.  1.
         11    1    1    2    0    0  0.40538762965E+02  0.21347768444E+02 -0.18063011288E+03  0.18635009042E+03  0.00000000000E+00 0. -1.
</event>
<event>
 7    1  0.2530765E-009  0.2242520E+03  0.7561462E-02  0.1130752E+00
         -1   -1    0    0    0  501 -0.00000000000E+00  0.00000000000E+00  0.53213440321E+02  0.53213440321E+02  0.00000000000E+00 0.  1.
          1   -1    0    0  501    0  0.00000000000E+00 -0.00000000000E+00 -0.13028739619E+04  0.13028739619E+04  0.00000000000E+00 0. -1.
         25    2    1    2    0    0  0.10779094462E+03  0.18346081223E+03 -0.93386984480E+03  0.96593915086E+03  0.12509515885E+03 0.  0.
          5    1    3    3  502    0  0.88524548293E+02  0.84042150401E+02 -0.29824793965E+03  0.32228711516E+03  0.41800000000E+01 0. -1.
         -5    1    3    3    0  502  0.19266396324E+02  0.99418661829E+02 -0.63562190515E+03  0.64365203570E+03  0.41800000000E+01 0. -1.
        -11    1    1    2    0    0 -0.63138938671E+02 -0.39948850782E+02 -0.14141011958E+03  0.15993516866E+03  0.00000000000E+00 0.  1.
         11    1    1    2    0    0 -0.44652005946E+02 -0.14351196145E+03 -0.17438055716E+03  0.23021308266E+03  0.00000000000E+00 0. -1.
</event>
<event>
 7    1  0.2530765E-009  0.3633142E+03  0.7561462E-02  0.1057279E+00
         -1   -1    0    0    0  501 -0.00000000000E+00  0.00000000000E+00  0.65826721419E+03  0.65826721419E+03  0.00000000000E+00 0.  1.
          1   -1    0    0  501    0  0.00000000000E+00 -0.00000000000E+00 -0.69650454182E+03  0.69650454182E+03  0.00000000000E+00 0. -1.
         25    2    1    2    0    0 -0.14133226403E+03 -0.31686627804E+03 -0.59004929508E+03  0.69583483972E+03  0.12509558957E+03 0.  0.
          5    1    3    3  502    0 -0.11392585719E+02  0.97670687655E+01 -0.13789297249E+02  0.20803936172E+02  0.41800000000E+01 0.  1.
         -5    1    3    3    0  502 -0.12993967831E+03 -0.32663334681E+03 -0.57625999784E+03  0.67503090355E+03  0.41800000000E+01 0.  1.
        -11    1    1    2    0    0  0.35999194399E+02  0.19553402636E+03  0.32467844142E+03  0.38071720185E+03  0.00000000000E+00 0.  1.
         11    1    1    2    0    0  0.10533306963E+03  0.12133225168E+03  0.22713352603E+03  0.27821971444E+03  0.00000000000E+00 0. -1.
</event>
<event>
 7    1  0.2530765E-009  0.1262710E+03  0.7561462E-02  0.1233096E+00
          1   -1    0    0  501    0  0.00000000000E+00  0.00000000000E+00  0.36787361685E+02  0.36787361685E+02  0.00000000000E+00 0. -1.
         -1   -1    0    0    0  501 -0.00000000000E+00 -0.00000000000E+00 -0.53953157950E+03  0.53953157950E+03  0.00000000000E+00 0.  1.
         25    2    1    2    0    0  0.76930363490E+02  0.55776029687E+02 -0.28155386879E+03  0.32241070873E+03  0.12508732054E+03 0.  0.
          5    1    3    3  502    0  0.45924568487E+02 -0.27616029116E+02 -0.46591949838E+02  0.71133629491E+02  0.41800000000E+01 0. -1.
         -5    1    3    3    0  502  0.31005795002E+02  0.83392058803E+02 -0.23496191895E+03  0.25127707924E+03  0.41800000000E+01 0. -1.
        -11    1    1    2    0    0 -0.15449464504E+02 -0.44645156750E+02 -0.15853282949E+03  0.16542228991E+03  0.00000000000E+00 0.  1.
         11    1    1    2    0    0 -0.61480898985E+02 -0.11130872937E+02 -0.62657519537E+02  0.88485942539E+02  0.00000000000E+00 0. -1.
</event>
<event>
 7    1  0.2530765E-009  0.2217767E+03  0.7561462E-02  0.1132565E+00
          1   -1    0    0  501    0  0.00000000000E+00  0.00000000000E+00  0.27064374395E+03  0.27064374395E+03  0.00000000000E+00 0. -1.
         -1   -1    0    0    0  501 -0.00000000000E+00 -0.00000000000E+00 -0.21257159620E+03  0.21257159620E+03  0.00000000000E+00 0.  1.
         25    2    1    2    0    0  0.17019562529E+03 -0.97416661292E+02  0.11617710492E+03  0.26000220437E+03  0.12508984694E+03 0.  0.
          5    1    3    3  502    0 -0.10131116485E+02  0.15746834862E+02  0.14435458700E+02  0.24009523054E+02  0.41800000000E+01 0.  1.
         -5    1    3    3    0  502  0.18032674178E+03 -0.11316349615E+03  0.10174164622E+03  0.23599268132E+03  0.41800000000E+01 0.  1.
        -11    1    1    2    0    0 -0.53570477802E+02  0.75803922973E+02 -0.47111718743E+02  0.10409392332E+03  0.00000000000E+00 0.  1.
         11    1    1    2    0    0 -0.11662514749E+03  0.21612738318E+02 -0.10993238429E+02  0.11911921245E+03  0.00000000000E+00 0. -1.
</event>
<event>
 7    1  0.2530765E-009  0.1937771E+03  0.7561462E-02  0.1155098E+00
          1   -1    0    0  501    0  0.00000000000E+00  0.00000000000E+00  0.71496318742E+03  0.71496318742E+03  0.00000000000E+00 0. -1.
         -1   -1    0    0    0  501 -0.00000000000E+00 -0.00000000000E+00 -0.55050217133E+02  0.55050217133E+02  0.00000000000E+00 0.  1.
         25    2    1    2    0    0  0.15631639266E+03  0.50776205244E+02  0.30092255375E+03  0.36498665712E+03  0.12509132219E+03 0.  0.
          5    1    3    3  502    0 -0.12637679728E+02 -0.16353641937E+02  0.14071315390E+02  0.25350086200E+02  0.41800000000E+01 0.  1.
         -5    1    3    3    0  502  0.16895407239E+03  0.67129847181E+02  0.28685123835E+03  0.33963657092E+03  0.41800000000E+01 0.  1.
        -11    1    1    2    0    0 -0.22877016778E+02  0.22749578174E+02  0.93715376372E+02  0.99113434873E+02  0.00000000000E+00 0.  1.
         11    1    1    2    0    0 -0.13343937589E+03 -0.73525783418E+02  0.26527504017E+03  0.30591331256E+03  0.00000000000E+00 0. -1.
</event>
<event>
 7    1  0.2530765E-009  0.2284277E+03  0.7561462E-02  0.1127751E+00
         -1   -1    0    0    0  501 -0.00000000000E+00  0.00000000000E+00  0.57823562496E+02  0.57823562496E+02  0.00000000000E+00 0.  1.
          1   -1    0    0  501    0  0.00000000000E+00 -0.00000000000E+00 -0.91958148978E+03  0.91958148978E+03  0.00000000000E+00 0. -1.
         25    2    1    2    0    0  0.16553582085E+03  0.11609285250E+03 -0.47402196165E+03  0.53030487481E+03  0.12508709657E+03 0.  0.
          5    1    3    3  502    0 -0.46312872081E+01 -0.17051469900E+02 -0.67649317174E+02  0.70043586152E+02  0.41800000000E+01 0.  1.
         -5    1    3    3    0  502  0.17016710806E+03  0.13314432240E+03 -0.40637264448E+03  0.46026128865E+03  0.41800000000E+01 0.  1.
        -11    1    1    2    0    0 -0.93150648260E+02 -0.93467726020E+01 -0.16650683059E+03  0.19102075820E+03  0.00000000000E+00 0. -1.
         11    1    1    2    0    0 -0.72385172587E+02 -0.10674607990E+03 -0.22122913504E+03  0.25607941927E+03  0.00000000000E+00 0.  1.
</event>
<event>
 7    1  0.2530765E-009  0.8022105E+02  0.7561462E-02  0.1328425E+00
         -2   -1    0    0    0  501 -0.00000000000E+00  0.00000000000E+00  0.68039193530E+02  0.68039193530E+02  0.00000000000E+00 0.  1.
          2   -1    0    0  501    0  0.00000000000E+00 -0.00000000000E+00 -0.25044209743E+03  0.25044209743E+03  0.00000000000E+00 0. -1.
         25    2    1    2    0    0 -0.50141288991E+02  0.44142779300E+02 -0.11781217938E+03  0.18436430504E+03  0.12509098104E+03 0.  0.
          5    1    3    3  502    0 -0.28110878257E+02  0.11703136882E+02  0.22837293134E+02  0.38290981275E+02  0.41800000000E+01 0. -1.
         -5    1    3    3    0  502 -0.22030410734E+02  0.32439642418E+02 -0.14064947252E+03  0.14607332377E+03  0.41800000000E+01 0. -1.
        -11    1    1    2    0    0 -0.13096569141E+02 -0.16987340053E+02 -0.61602802350E+02  0.65230323491E+02  0.00000000000E+00 0. -1.
         11    1    1    2    0    0  0.63237858132E+02 -0.27155439247E+02 -0.29879221716E+01  0.68886662430E+02  0.00000000000E+00 0.  1.
</event>
<event>
 7    1  0.2530765E-009  0.1564406E+03  0.7561462E-02  0.1192775E+00
          1   -1    0    0  501    0  0.00000000000E+00  0.00000000000E+00  0.65517749931E+02  0.65517749931E+02  0.00000000000E+00 0. -1.
         -1   -1    0    0    0  501 -0.00000000000E+00 -0.00000000000E+00 -0.53556954352E+03  0.53556954352E+03  0.00000000000E+00 0.  1.
         25    2    1    2    0    0 -0.97948555385E+01 -0.14366254396E+03 -0.32737423157E+03  0.37888783398E+03  0.12508891842E+03 0.  0.
          5    1    3    3  502    0 -0.34914881141E+01 -0.98092878877E+02 -0.31654798017E+03  0.33144305623E+03  0.41800000000E+01 0. -1.
         -5    1    3    3    0  502 -0.63033674244E+01 -0.45569665080E+02 -0.10826251404E+02  0.47444777751E+02  0.41800000000E+01 0. -1.
        -11    1    1    2    0    0  0.48581550483E+02  0.89356439143E+02 -0.69645459996E+02  0.12326893510E+03  0.00000000000E+00 0.  1.
         11    1    1    2    0    0 -0.38786694944E+02  0.54306104814E+02 -0.73032102015E+02  0.98930524357E+02  0.00000000000E+00 0. -1.
</event>
<event>
 7    1  0.2530765E-009  0.6870621E+02  0.7561462E-02  0.1364549E+00
         -2   -1    0    0    0  501 -0.00000000000E+00  0.00000000000E+00  0.11446459881E+03  0.11446459881E+03  0.00000000000E+00 0.  1.
          2   -1    0    0  501    0  0.00000000000E+00 -0.00000000000E+00 -0.10225092398E+03  0.10225092398E+03  0.00000000000E+00 0. -1.
         25    2    1    2    0    0  0.90836852164E+01  0.12749399841E+02  0.25584758036E+01  0.12609023518E+03  0.12508853296E+03 0.  0.
          5    1    3    3  502    0  0.18097959653E+02  0.33059254799E+02  0.56246720343E+02  0.67835215197E+02  0.41800000000E+01 0. -1.
         -5    1    3    3    0  502 -0.90142744366E+01 -0.20309854958E+02 -0.53688244539E+02  0.58255019988E+02  0.41800000000E+01 0. -1.
        -11    1    1    2    0    0  0.31090641673E+02  0.73690915752E+01  0.27621560509E+02  0.42236028640E+02  0.00000000000E+00 0. -1.
         11    1    1    2    0    0 -0.40174326890E+02 -0.20118491417E+02 -0.17966361489E+02  0.48389258964E+02  0.00000000000E+00 0.  1.
</event>
<event>
 7    1  0.2530765E-009  0.2188109E+03  0.7561462E-02  0.1134773E+00
          1   -1    0    0  501    0  0.00000000000E+00  0.00000000000E+00  0.12527926402E+03  0.12527926402E+03  0.00000000000E+00 0. -1.
         -1   -1    0    0    0  501 -0.00000000000E+00 -0.00000000000E+00 -0.42279277878E+03  0.42279277878E+03  0.00000000000E+00 0.  1.
         25    2    1    2    0    0 -0.19289208516E+03  0.54069693761E+02 -0.10944889026E+03  0.26030290560E+03  0.12509058631E+03 0.  0.
          5    1    3    3  502    0 -0.20938009692E+03  0.60311546773E+02 -0.10323584950E+03  0.24114854484E+03  0.41800000000E+01 0.  1.
         -5    1    3    3    0  502  0.16488011751E+02 -0.62418530120E+01 -0.62130407603E+01  0.19154360757E+02  0.41800000000E+01 0.  1.
        -11    1    1    2    0    0  0.10406122601E+03 -0.17577923957E+02 -0.43356890378E+02  0.11409444383E+03  0.00000000000E+00 0. -1.
         11    1    1    2    0    0  0.88830859151E+02 -0.36491769804E+02 -0.14470773413E+03  0.17367469337E+03  0.00000000000E+00 0.  1.
</event>
<event>
 7    1  0.2530765E-009  0.9698579E+02  0.7561462E-02  0.1286765E+00
         -2   -1    0    0    0  501 -0.00000000000E+00  0.00000000000E+00  0.80365092502E+02  0.80365092502E+02  0.00000000000E+00 0.  1.
          2   -1    0    0  501    0  0.00000000000E+00 -0.00000000000E+00 -0.19178294003E+03  0.19178294003E+03  0.00000000000E+00 0. -1.
         25    2    1    2    0    0  0.55105473056E+02  0.28814305105E+02 -0.71851682917E+02  0.15708769116E+03  0.12508797320E+03 0.  0.
          5    1    3    3  502    0  0.76790715514E+02  0.38628336128E+02 -0.91740911420E+02  0.12578882927E+03  0.41800000000E+01 0.  1.
         -5    1    3    3    0  502 -0.21685242458E+02 -0.98140310229E+01  0.19889228503E+02  0.31298861894E+02  0.41800000000E+01 0.  1.
        -11    1    1    2    0    0  0.11733588069E+02 -0.54665542751E+01  0.19127243470E+02  0.23095708419E+02  0.00000000000E+00 0.  1.
         11    1    1    2    0    0 -0.66839061125E+02 -0.23347750830E+02 -0.58693408080E+02  0.91964632946E+02  0.00000000000E+00 0. -1.
</event>
<event>
 7    1  0.2530765E-009  0.1624753E+03  0.7561462E-02  0.1185930E+00
         -2   -1    0    0    0  501 -0.00000000000E+00  0.00000000000E+00  0.40105252086E+02  0.40105252086E+02  0.00000000000E+00 0.  1.
          2   -1    0    0  501    0  0.00000000000E+00 -0.00000000000E+00 -0.84047792870E+03  0.84047792870E+03  0.00000000000E+00 0. -1.
         25    2    1    2    0    0 -0.77711796060E+02 -0.10325676274E+03 -0.59239661711E+03  0.61909799354E+03  0.12508993302E+03 0.  0.
          5    1    3    3  502    0 -0.16053392998E+02  0.28573548570E+02 -0.84013365166E+02  0.90276669362E+02  0.41800000000E+01 0.  1.
         -5    1    3    3    0  502 -0.61658403062E+02 -0.13183031131E+03 -0.50838325194E+03  0.52882132417E+03  0.41800000000E+01 0.  1.
        -11    1    1    2    0    0  0.14916516572E+01  0.57282429482E+02 -0.35535152740E+02  0.67425876577E+02  0.00000000000E+00 0.  1.
         11    1    1    2    0    0  0.76220144403E+02  0.45974333258E+02 -0.17244090677E+03  0.19405931067E+03  0.00000000000E+00 0. -1.
</event>
<event>
 7    1  0.2530765E-009  0.9682995E+02  0.7561462E-02  0.1287107E+00
          1   -1    0    0  501    0  0.00000000000E+00  0.00000000000E+00  0.28124296453E+03  0.28124296453E+03  0.00000000000E+00 0. -1.
         -1   -1    0    0    0  501 -0.00000000000E+00 -0.00000000000E+00 -0.61178562283E+02  0.61178562283E+02  0.00000000000E+00 0.  1.
         25    2    1    2    0    0  0.58263692517E+02 -0.67465325272E+01  0.18038222012E+03  0.22721218588E+03  0.12508980178E+03 0.  0.
          5    1    3    3  502    0  0.39951606131E+02  0.55301343854E+02  0.12262043188E+03  0.14038380312E+03  0.41800000000E+01 0. -1.
         -5    1    3    3    0  502  0.18312086385E+02 -0.62047876381E+02  0.57761788238E+02  0.86828382754E+02  0.41800000000E+01 0. -1.
        -11    1    1    2    0    0 -0.19240932447E+02  0.93072208107E+01 -0.29088708026E+02  0.36096963519E+02  0.00000000000E+00 0.  1.
         11    1    1    2    0    0 -0.39022760069E+02 -0.25606882835E+01  0.68770890159E+02  0.79112377421E+02  0.00000000000E+00 0. -1.
</event>
<event>
 7    1  0.2530765E-009  0.7033886E+02  0.7561462E-02  0.1358945E+00
          2   -1    0    0  501    0  0.00000000000E+00  0.00000000000E+00  0.37013715427E+02  0.37013715427E+02  0.00000000000E+00 0. -1.
         -2   -1    0    0    0  501 -0.00000000000E+00 -0.00000000000E+00 -0.45943212650E+03  0.45943212650E+03  0.00000000000E+00 0.  1.
         25    2    1    2    0    0  0.45810156538E+02  0.30287413874E+01 -0.34104177813E+03  0.36615000793E+03  0.12509432505E+03 0.  0.
          5    1    3    3  502    0 -0.94148201317E+01  0.30977736348E+02 -0.18147635449E+02  0.37350609898E+02  0.41800000000E+01 0. -1.
         -5    1    3    3    0  502  0.55224976669E+02 -0.27948994961E+02 -0.32289414268E+03  0.32879939803E+03  0.41800000000E+01 0. -1.
        -11    1    1    2    0    0 -0.21634031234E+02 -0.28404437825E+01 -0.98359286762E+02  0.10075042789E+03  0.00000000000E+00 0.  1.
         11    1    1    2    0    0 -0.24176125304E+02 -0.18829760482E+00  0.16982653824E+02  0.29545406100E+02  0.00000000000E+00 0. -1.
</event>
<event>
 7    1  0.2530765E-009  0.1500100E+03  0.7561462E-02  0.1200461E+00
          2   -1    0    0  501    0  0.00000000000E+00  0.00000000000E+00  0.19960170913E+04  0.19960170913E+04  0.00000000000E+00 0. -1.
         -2   -1    0    0    0  501 -0.00000000000E+00 -0.00000000000E+00 -0.15293625986E+02  0.15293625986E+02  0.00000000000E+00 0.  1.
         25    2    1    2    0    0  0.28632229129E+02 -0.11490882415E+03  0.14309431084E+04  0.14412733698E+04  0.12508758661E+03 0.  0.
          5    1    3    3  502    0  0.34044972291E+02 -0.12917639579E+03  0.14014121336E+04  0.14077709480E+04  0.41800000000E+01 0.  1.
         -5    1    3    3    0  502 -0.54127431620E+01  0.14267571648E+02  0.29530974865E+02  0.33502421790E+02  0.41800000000E+01 0.  1.
        -11    1    1    2    0    0  0.29461442915E+02  0.73555654126E+02  0.28085035370E+03  0.29181386541E+03  0.00000000000E+00 0. -1.
         11    1    1    2    0    0 -0.58093672044E+02  0.41353170020E+02  0.26893000312E+03  0.27822348208E+03  0.00000000000E+00 0.  1.
</event>
<event>
 7    1  0.2530765E-009  0.1107418E+03  0.7561462E-02  0.1259202E+00
          3   -1    0    0  501    0  0.00000000000E+00  0.00000000000E+00  0.29438125245E+03  0.29438125245E+03  0.00000000000E+00 0. -1.
         -3   -1    0    0    0  501 -0.00000000000E+00 -0.00000000000E+00 -0.50157118336E+02  0.50157118336E+02  0.00000000000E+00 0.  1.
         25    2    1    2    0    0  0.29836322066E+02  0.21231656440E+02  0.18795060262E+03  0.22872353952E+03  0.12509212267E+03 0.  0.
          5    1    3    3  502    0  0.73770265225E+02  0.20755909807E+02  0.74373388152E+02  0.10687250857E+03  0.41800000000E+01 0. -1.
         -5    1    3    3    0  502 -0.43933943159E+02  0.47574663297E+00  0.11357721447E+03  0.12185103095E+03  0.41800000000E+01 0. -1.
        -11    1    1    2    0    0 -0.31976567175E+02  0.33218368283E+02  0.32219135046E+02  0.56249742247E+02  0.00000000000E+00 0. -1.
         11    1    1    2    0    0  0.21402451094E+01 -0.54450024723E+02  0.24054396444E+02  0.59565089018E+02  0.00000000000E+00 0.  1.
</event>
<event>
 7    1  0.2538717E-009  0.1374743E+03  0.7561462E-02  0.1216768E+00
          2   -1    0    0  501    0  0.00000000000E+00  0.00000000000E+00  0.12552091514E+04  0.12552091514E+04  0.00000000000E+00 0.  1.
         -2   -1    0    0    0  501 -0.00000000000E+00 -0.00000000000E+00 -0.25328391862E+02  0.25328391862E+02  0.00000000000E+00 0. -1.
         25    2    1    2    0    0 -0.29346589661E+02  0.12704836944E+03  0.84360678101E+03  0.86274128943E+03  0.12509045137E+03 0.  0.
          5    1    3    3  502    0 -0.23976531173E+02  0.59594233774E+02  0.12186227205E+03  0.13781956499E+03  0.41800000000E+01 0. -1.
         -5    1    3    3    0  502 -0.53700584883E+01  0.67454135665E+02  0.72174450896E+03  0.72492172444E+03  0.41800000000E+01 0. -1.
        -11    1    1    2    0    0 -0.55682817632E+01 -0.95684195626E+02  0.15841115634E+03  0.18515011614E+03  0.00000000000E+00 0. -1.
         11    1    1    2    0    0  0.34914871424E+02 -0.31364173814E+02  0.22786282223E+03  0.23264613772E+03  0.00000000000E+00 0.  1.
</event>
<event>
 7    1  0.2530765E-009  0.1124751E+03  0.7561462E-02  0.1256054E+00
         -1   -1    0    0    0  501 -0.00000000000E+00  0.00000000000E+00  0.20079859985E+02  0.20079859985E+02  0.00000000000E+00 0.  1.
          1   -1    0    0  501    0  0.00000000000E+00 -0.00000000000E+00 -0.80536146902E+03  0.80536146902E+03  0.00000000000E+00 0. -1.
         25    2    1    2    0    0  0.49716579870E+02  0.39822491395E+02 -0.48505670528E+03  0.50496112649E+03  0.12509261687E+03 0.  0.
          5    1    3    3  502    0 -0.90700428375E+01 -0.24615407849E+02 -0.29042375603E+03  0.29163609936E+03  0.41800000000E+01 0.  1.
         -5    1    3    3    0  502  0.58786622707E+02  0.64437899244E+02 -0.19463294924E+03  0.21332502713E+03  0.41800000000E+01 0.  1.
        -11    1    1    2    0    0 -0.75470850043E+02 -0.18699736969E+02 -0.18881001543E+03  0.20419292665E+03  0.00000000000E+00 0.  1.
         11    1    1    2    0    0  0.25754270173E+02 -0.21122754426E+02 -0.11141488834E+03  0.11628727587E+03  0.00000000000E+00 0. -1.
</event>
<event>
 7    1  0.2530765E-009  0.1097960E+03  0.7561462E-02  0.1260948E+00
          2   -1    0    0  501    0  0.00000000000E+00  0.00000000000E+00  0.49964363346E+02  0.49964363346E+02  0.00000000000E+00 0. -1.
         -2   -1    0    0    0  501 -0.00000000000E+00 -0.00000000000E+00 -0.29640708981E+03  0.29640708981E+03  0.00000000000E+00 0.  1.
         25    2    1    2    0    0 -0.51623638810E+02 -0.10501068173E+02 -0.13081550806E+03  0.18850814794E+03  0.12508937675E+03 0.  0.
          5    1    3    3  502    0  0.21451604494E+02  0.40536235245E+02 -0.37430724194E+02  0.59345507134E+02  0.41800000000E+01 0. -1.
         -5    1    3    3    0  502 -0.73075243304E+02 -0.51037303418E+02 -0.93384783862E+02  0.12916264081E+03  0.41800000000E+01 0. -1.
        -11    1    1    2    0    0  0.48719229668E+02 -0.20727056025E+02 -0.18963021187E+02  0.56238513168E+02  0.00000000000E+00 0. -1.
         11    1    1    2    0    0  0.29044091421E+01  0.31228124198E+02 -0.96664197225E+02  0.10162479205E+03  0.00000000000E+00 0.  1.
</event>
<event>
 7    1  0.2530765E-009  0.1053079E+03  0.7561462E-02  0.1269514E+00
         -2   -1    0    0    0  501 -0.00000000000E+00  0.00000000000E+00  0.87123239683E+02  0.87123239683E+02  0.00000000000E+00 0.  1.
          2   -1    0    0  501    0  0.00000000000E+00 -0.00000000000E+00 -0.21230170467E+03  0.21230170467E+03  0.00000000000E+00 0. -1.
         25    2    1    2    0    0  0.61926746803E+01 -0.37148008185E+02 -0.15375656464E+03  0.20176177950E+03  0.12509360802E+03 0.  0.
          5    1    3    3  502    0 -0.52492391154E+02 -0.19996176483E+02 -0.30366637063E+02  0.63991431063E+02  0.41800000000E+01 0. -1.
         -5    1    3    3    0  502  0.58685065834E+02 -0.17151831702E+02 -0.12338992758E+03  0.13777034844E+03  0.41800000000E+01 0. -1.
        -11    1    1    2    0    0  0.24747591799E+02 -0.17428575112E+02  0.52002433622E+01  0.30712229833E+02  0.00000000000E+00 0.  1.
         11    1    1    2    0    0 -0.30940266480E+02  0.54576583297E+02  0.23377856293E+02  0.66950935012E+02  0.00000000000E+00 0. -1.
</event>
<event>
 7    1  0.2530765E-009  0.1117690E+03  0.7561462E-02  0.1257329E+00
         -1   -1    0    0    0  501 -0.00000000000E+00  0.00000000000E+00  0.93827870817E+02  0.93827870817E+02  0.00000000000E+00 0.  1.
          1   -1    0    0  501    0  0.00000000000E+00 -0.00000000000E+00 -0.17488696531E+03  0.17488696531E+03  0.00000000000E+00 0. -1.
         25    2    1    2    0    0  0.40707950242E+02 -0.44570527143E+02 -0.76476502591E+02  0.15855558833E+03  0.12509016764E+03 0.  0.
          5    1    3    3  502    0  0.82017256630E+02 -0.49476765748E+02 -0.62602035405E+02  0.11450444520E+03  0.41800000000E+01 0.  1.
         -5    1    3    3    0  502 -0.41309306388E+02  0.49062386046E+01 -0.13874467186E+02  0.44051143132E+02  0.41800000000E+01 0.  1.
        -11    1    1    2    0    0 -0.50745838575E+02  0.12520602352E+02  0.31371081168E+02  0.60959415594E+02  0.00000000000E+00 0.  1.
         11    1    1    2    0    0  0.10037888333E+02  0.32049924791E+02 -0.35953673067E+02  0.49199832198E+02  0.00000000000E+00 0. -1.
</event>
<event>
 7    1  0.2530765E-009  0.7563758E+02  0.7561462E-02  0.1341908E+00
         -2   -1    0    0    0  501 -0.00000000000E+00  0.00000000000E+00  0.11847489203E+03  0.11847489203E+03  0.00000000000E+00 0.  1.
          2   -1    0    0  501    0  0.00000000000E+00 -0.00000000000E+00 -0.12570105260E+03  0.12570105260E+03  0.00000000000E+00 0. -1.
         25    2    1    2    0    0  0.52018657145E+02  0.68780008660E+01 -0.17625878465E+02  0.13679112763E+03  0.12509154016E+03 0.  0.
          5    1    3    3  502    0  0.33566887204E+02  0.19845350495E+01  0.53335130794E+02  0.63188471043E+02  0.41800000000E+01 0.  1.
         -5    1    3    3    0  502  0.18451769941E+02  0.48934658165E+01 -0.70961009259E+02  0.73602656587E+02  0.41800000000E+01 0.  1.
        -11    1    1    2    0    0 -0.50492165718E+02 -0.40169977185E+02  0.27249881303E+02  0.70040287671E+02  0.00000000000E+00 0.  1.
         11    1    1    2    0    0 -0.15264914263E+01  0.33291976319E+02 -0.16850163410E+02  0.37344529322E+02  0.00000000000E+00 0. -1.
</event>
<event>
 7    1  0.2530765E-009  0.1111498E+03  0.7561462E-02  0.1258455E+00
          1   -1    0    0  501    0  0.00000000000E+00  0.00000000000E+00  0.18572538467E+03  0.18572538467E+03  0.00000000000E+00 0. -1.
         -1   -1    0    0    0  501 -0.00000000000E+00 -0.00000000000E+00 -0.94281458535E+02  0.94281458535E+02  0.00000000000E+00 0.  1.
         25    2    1    2    0    0  0.36045372658E+02 -0.60751748665E+02  0.30213933723E+02  0.14679872191E+03  0.12508772565E+03 0.  0.
          5    1    3    3  502    0  0.30874732802E+02 -0.79864759394E+02  0.64297691182E+02  0.10716013442E+03  0.41800000000E+01 0.  1.
         -5    1    3    3    0  502  0.51706398562E+01  0.19113010728E+02 -0.34083757459E+02  0.39638587490E+02  0.41800000000E+01 0.  1.
        -11    1    1    2    0    0 -0.44512211718E+01  0.79482466383E+02  0.30258332615E+02  0.85163622075E+02  0.00000000000E+00 0.  1.
         11    1    1    2    0    0 -0.31594151487E+02 -0.18730717718E+02  0.30971659798E+02  0.48044499217E+02  0.00000000000E+00 0. -1.
</event>
<event>
 7    1  0.2787502E-009  0.1120850E+03  0.7561462E-02  0.1256757E+00
          3   -1    0    0  501    0  0.00000000000E+00  0.00000000000E+00  0.25984475838E+03  0.25984475838E+03  0.00000000000E+00 0. -1.
         -3   -1    0    0    0  501 -0.00000000000E+00 -0.00000000000E+00 -0.74059272072E+02  0.74059272072E+02  0.00000000000E+00 0.  1.
         25    2    1    2    0    0 -0.76588502934E+02  0.15135097990E+02  0.56653003200E+02  0.15796491777E+03  0.12509389474E+03 0.  0.
          5    1    3    3  502    0 -0.62352126229E+01  0.59647879536E+02  0.59827462470E+01  0.60415337972E+02  0.41800000000E+01 0.  1.
         -5    1    3    3    0  502 -0.70353290311E+02 -0.44512781546E+02  0.50670256953E+02  0.97549579795E+02  0.41800000000E+01 0.  1.
        -11    1    1    2    0    0  0.29385349095E+02 -0.16049000818E+02 -0.48959809098E+01  0.33838436692E+02  0.00000000000E+00 0.  1.
         11    1    1    2    0    0  0.47203153839E+02  0.91390282833E+00  0.13402846402E+03  0.14210067599E+03  0.00000000000E+00 0. -1.
</event>
<event>
 7    1  0.2530765E-009  0.9770196E+02  0.7561462E-02  0.1285204E+00
          2   -1    0    0  501    0  0.00000000000E+00  0.00000000000E+00  0.27094860566E+03  0.27094860566E+03  0.00000000000E+00 0.  1.
         -2   -1    0    0    0  501 -0.00000000000E+00 -0.00000000000E+00 -0.53060421922E+02  0.53060421922E+02  0.00000000000E+00 0. -1.
         25    2    1    2    0    0 -0.49584501236E+02  0.22865278767E+02  0.13241713300E+03  0.19016616778E+03  0.12508968991E+03 0.  0.
          5    1    3    3  502    0 -0.54114341849E+02  0.53807621946E+02  0.13835616255E+03  0.15806176732E+03  0.41800000000E+01 0. -1.
         -5    1    3    3    0  502  0.45298406133E+01 -0.30942343178E+02 -0.59390295429E+01  0.32104400466E+02  0.41800000000E+01 0. -1.
        -11    1    1    2    0    0 -0.16316482945E+02 -0.12849883721E+02 -0.51008628104E+01  0.21386115326E+02  0.00000000000E+00 0. -1.
         11    1    1    2    0    0  0.65900984181E+02 -0.10015395046E+02  0.90571913548E+02  0.11245674447E+03  0.00000000000E+00 0.  1.
</event>
<event>
 7    1  0.2530765E-009  0.1368958E+03  0.7561462E-02  0.1217568E+00
          1   -1    0    0  501    0  0.00000000000E+00  0.00000000000E+00  0.82414971860E+03  0.82414971860E+03  0.00000000000E+00 0. -1.
         -1   -1    0    0    0  501 -0.00000000000E+00 -0.00000000000E+00 -0.23545633622E+02  0.23545633622E+02  0.00000000000E+00 0.  1.
         25    2    1    2    0    0 -0.81764142695E+02 -0.23138274403E+02  0.44475175434E+03  0.46975692410E+03  0.12508672983E+03 0.  0.
          5    1    3    3  502    0  0.42725921524E+01  0.39754113824E+02  0.77151520016E+02  0.86996977249E+02  0.41800000000E+01 0.  1.
         -5    1    3    3    0  502 -0.86036734848E+02 -0.62892388227E+02  0.36760023432E+03  0.38275994685E+03  0.41800000000E+01 0.  1.
        -11    1    1    2    0    0  0.11014239672E+02  0.50044625693E+02  0.12973729269E+03  0.13949029769E+03  0.00000000000E+00 0.  1.
         11    1    1    2    0    0  0.70749903024E+02 -0.26906351290E+02  0.22611503795E+03  0.23844813043E+03  0.00000000000E+00 0. -1.
</event>
<event>
 7    1  0.2530765E-009  0.3161644E+03  0.7561462E-02  0.1077428E+00
         -2   -1    0    0    0  501 -0.00000000000E+00  0.00000000000E+00  0.55216344766E+03  0.55216344766E+03  0.00000000000E+00 0.  1.
          2   -1    0    0  501    0  0.00000000000E+00 -0.00000000000E+00 -0.22672837203E+03  0.22672837203E+03  0.00000000000E+00 0. -1.
         25    2    1    2    0    0 -0.29788283180E+03  0.28837041977E+01 -0.61260479874E+01  0.32315309507E+03  0.12509155511E+03 0.  0.
          5    1    3    3  502    0 -0.30999880564E+03  0.51898781410E+01 -0.61037822575E+01  0.31013049333E+03  0.41800000000E+01 0. -1.
         -5    1    3    3    0  502  0.12115973842E+02 -0.23061739433E+01 -0.22265729886E-01  0.13022601743E+02  0.41800000000E+01 0. -1.
        -11    1    1    2    0    0  0.19355953000E+03 -0.41565142707E+02  0.17887033650E+03  0.26680995112E+03  0.00000000000E+00 0. -1.
         11    1    1    2    0    0  0.10432330180E+03  0.38681438510E+02  0.15269078712E+03  0.18892877350E+03  0.00000000000E+00 0.  1.
</event>
<event>
 7    1  0.2530765E-009  0.1488416E+03  0.7561462E-02  0.1201904E+00
          2   -1    0    0  501    0  0.00000000000E+00  0.00000000000E+00  0.17555414476E+04  0.17555414476E+04  0.00000000000E+00 0. -1.
         -2   -1    0    0    0  501 -0.00000000000E+00 -0.00000000000E+00 -0.15535108107E+02  0.15535108107E+02  0.00000000000E+00 0.  1.
         25    2    1    2    0    0 -0.10805087935E+03  0.10358250945E+02  0.12297024714E+04  0.12408050265E+04  0.12508660866E+03 0.  0.
          5    1    3    3  502    0 -0.10343991063E+03 -0.42396331428E+02  0.88256248051E+03  0.88962422878E+03  0.41800000000E+01 0.  1.
         -5    1    3    3    0  502 -0.46109687203E+01  0.52754582373E+02  0.34713999091E+03  0.35118079772E+03  0.41800000000E+01 0.  1.
        -11    1    1    2    0    0  0.31414713744E+02 -0.39705631220E+02  0.30500660928E+03  0.30918029221E+03  0.00000000000E+00 0. -1.
         11    1    1    2    0    0  0.76636165606E+02  0.29347380275E+02  0.20529725877E+03  0.22109123697E+03  0.00000000000E+00 0.  1.
</event>
<event>
 7    1  0.2530765E-009  0.7163539E+02  0.7561462E-02  0.1354618E+00
         -2   -1    0    0    0  501 -0.00000000000E+00  0.00000000000E+00  0.69560463581E+02  0.69560463581E+02  0.00000000000E+00 0. -1.
          2   -1    0    0  501    0  0.00000000000E+00 -0.00000000000E+00 -0.19634366538E+03  0.19634366538E+03  0.00000000000E+00 0.  1.
         25    2    1    2    0    0 -0.18957869192E+02 -0.38959836198E+02 -0.87182061657E+02  0.15851009528E+03  0.12508984287E+03 0.  0.
          5    1    3    3  502    0  0.23906809967E+02 -0.35768231838E+02 -0.10364131391E+03  0.11229379466E+03  0.41800000000E+01 0.  1.
         -5    1    3    3    0  502 -0.42864679158E+02 -0.31916043602E+01  0.16459252249E+02  0.46216300613E+02  0.41800000000E+01 0.  1.
        -11    1    1    2    0    0  0.20693107808E+02  0.30598842546E+01 -0.61735608413E+02  0.65183225975E+02  0.00000000000E+00 0.  1.
         11    1    1    2    0    0 -0.17352386164E+01  0.35899951944E+02  0.22134468266E+02  0.42210807716E+02  0.00000000000E+00 0. -1.
</event>
<event>
 7    1  0.2530765E-009  0.1156349E+03  0.7561462E-02  0.1250477E+00
          1   -1    0    0  501    0  0.00000000000E+00  0.00000000000E+00  0.21368875372E+02  0.21368875372E+02  0.00000000000E+00 0. -1.
         -1   -1    0    0    0  501 -0.00000000000E+00 -0.00000000000E+00 -0.66876276912E+03  0.66876276912E+03  0.00000000000E+00 0.  1.
         25    2    1    2    0    0 -0.43705204878E+02 -0.16581533386E+02 -0.42547884849E+03  0.44594328169E+03  0.12509223713E+03 0.  0.
          5    1    3    3  502    0 -0.84894214819E+02  0.16376709959E+01 -0.32154541421E+03  0.33259379951E+03  0.41800000000E+01 0. -1.
         -5    1    3    3    0  502  0.41189009942E+02 -0.18219204382E+02 -0.10393343428E+03  0.11334948218E+03  0.41800000000E+01 0. -1.
        -11    1    1    2    0    0 -0.11373443609E+02 -0.27963200820E+02 -0.81630413260E+02  0.87033442932E+02  0.00000000000E+00 0.  1.
         11    1    1    2    0    0  0.55078648487E+02  0.44544734206E+02 -0.14028463200E+03  0.15715491987E+03  0.00000000000E+00 0. -1.
</event>
<event>
 7    1  0.2530765E-009  0.1236708E+03  0.7561462E-02  0.1237161E+00
         -2   -1    0    0    0  501 -0.00000000000E+00  0.00000000000E+00  0.17849766760E+02  0.17849766760E+02  0.00000000000E+00 0.  1.
          2   -1    0    0  501    0  0.00000000000E+00 -0.00000000000E+00 -0.11009499266E+04  0.11009499266E+04  0.00000000000E+00 0. -1.
         25    2    1    2    0    0  0.18108919816E+02 -0.85756007473E+02 -0.62731090075E+03  0.64563818045E+03  0.12509063934E+03 0.  0.
          5    1    3    3  502    0 -0.39876411566E+02 -0.66311154773E+02 -0.20984634914E+03  0.22369680394E+03  0.41800000000E+01 0.  1.
         -5    1    3    3    0  502  0.57985331383E+02 -0.19444852699E+02 -0.41746455161E+03  0.42194137650E+03  0.41800000000E+01 0.  1.
        -11    1    1    2    0    0 -0.43051788598E+00  0.90296538260E+02 -0.43955548291E+03  0.44873452366E+03  0.00000000000E+00 0. -1.
         11    1    1    2    0    0 -0.17678401930E+02 -0.45405307875E+01 -0.16233776152E+02  0.24426989229E+02  0.00000000000E+00 0.  1.
</event>
<event>
 7    1  0.2530765E-009  0.1090207E+03  0.7561462E-02  0.1262394E+00
          1   -1    0    0  501    0  0.00000000000E+00  0.00000000000E+00  0.78184560395E+02  0.78184560395E+02  0.00000000000E+00 0. -1.
         -1   -1    0    0    0  501 -0.00000000000E+00 -0.00000000000E+00 -0.27084255332E+03  0.27084255332E+03  0.00000000000E+00 0.  1.
         25    2    1    2    0    0  0.36584184175E+02 -0.84981010064E+02 -0.74966913582E+02  0.17270099224E+03  0.12508165328E+03 0.  0.
          5    1    3    3  502    0  0.20814447281E+02 -0.55361996314E+02  0.27089635034E+02  0.65188285587E+02  0.41800000000E+01 0. -1.
         -5    1    3    3    0  502  0.15769736894E+02 -0.29619013750E+02 -0.10205654862E+03  0.10751270666E+03  0.41800000000E+01 0. -1.
        -11    1    1    2    0    0 -0.63921408241E+02  0.64188225382E+02 -0.10733534380E+03  0.14045266369E+03  0.00000000000E+00 0.  1.
         11    1    1    2    0    0  0.27337224066E+02  0.20792784682E+02 -0.10355735540E+02  0.35873457779E+02  0.00000000000E+00 0. -1.
</event>
<event>
 7    1  0.2530765E-009  0.1113991E+03  0.7561462E-02  0.1258001E+00
         -1   -1    0    0    0  501 -0.00000000000E+00  0.00000000000E+00  0.55522133189E+03  0.55522133189E+03  0.00000000000E+00 0.  1.
          1   -1    0    0  501    0  0.00000000000E+00 -0.00000000000E+00 -0.27437081994E+02  0.27437081994E+02  0.00000000000E+00 0. -1.
         25    2    1    2    0    0 -0.11713156064E+02 -0.23450351147E+02  0.17224843644E+03  0.21448611345E+03  0.12509057524E+03 0.  0.
          5    1    3    3  502    0 -0.68206390840E+02 -0.84718425904E+01  0.10098885504E+03  0.12222972270E+03  0.41800000000E+01 0. -1.
         -5    1    3    3    0  502  0.56493234775E+02 -0.14978508556E+02  0.71259581396E+02  0.92256390752E+02  0.41800000000E+01 0. -1.
        -11    1    1    2    0    0  0.48755909660E+02  0.30678677769E+02  0.20071785951E+03  0.20882044708E+03  0.00000000000E+00 0.  1.
         11    1    1    2    0    0 -0.37042753595E+02 -0.72283266223E+01  0.15481795395E+03  0.15935185335E+03  0.00000000000E+00 0. -1.
</event>
<event>
 7    1  0.2777742E-009  0.1195338E+03  0.7561462E-02  0.1243868E+00
         -1   -1    0    0    0  501 -0.00000000000E+00  0.00000000000E+00  0.37185907911E+03  0.37185907911E+03  0.00000000000E+00 0.  1.
          1   -1    0    0  501    0  0.00000000000E+00 -0.00000000000E+00 -0.55864814240E+02  0.55864814240E+02  0.00000000000E+00 0. -1.
         25    2    1    2    0    0 -0.42249746780E+00  0.71074837720E+02  0.26506962810E+03  0.30159804432E+03  0.12509061329E+03 0.  0.
          5    1    3    3  502    0  0.40219783182E+02 -0.15605251091E+02  0.12137632995E+03  0.12888305045E+03  0.41800000000E+01 0.  1.
         -5    1    3    3    0  502 -0.40642280650E+02  0.86680088810E+02  0.14369329815E+03  0.17271499386E+03  0.41800000000E+01 0.  1.
        -11    1    1    2    0    0  0.33848936048E+02 -0.21476734921E+02  0.52790743735E+02  0.66286222087E+02  0.00000000000E+00 0.  1.
         11    1    1    2    0    0 -0.33426438580E+02 -0.49598102799E+02 -0.18661069715E+01  0.59839626942E+02  0.00000000000E+00 0. -1.
</event>
<event>
 7    1  0.2530765E-009  0.8078128E+02  0.7561462E-02  0.1326849E+00
          1   -1    0    0  501    0  0.00000000000E+00  0.00000000000E+00  0.27633515065E+03  0.27633515065E+03  0.00000000000E+00 0. -1.
         -1   -1    0    0    0  501 -0.00000000000E+00 -0.00000000000E+00 -0.47241482692E+02  0.47241482692E+02  0.00000000000E+00 0.  1.
         25    2    1    2    0    0  0.22462052065E+02 -0.11698719951E+02  0.10798487447E+03  0.16718113626E+03  0.12508954942E+03 0.  0.
          5    1    3    3  502    0  0.57695480185E+02 -0.31574031622E+01  0.11613977956E+03  0.12978697325E+03  0.41800000000E+01 0. -1.
         -5    1    3    3    0  502 -0.35233428121E+02 -0.85413167885E+01 -0.81549050972E+01  0.37394163004E+02  0.41800000000E+01 0. -1.
        -11    1    1    2    0    0 -0.44050085164E+02  0.11582124809E+02  0.14762233036E+02  0.47879840666E+02  0.00000000000E+00 0.  1.
         11    1    1    2    0    0  0.21588033099E+02  0.11659514127E+00  0.10634656045E+03  0.10851565642E+03  0.00000000000E+00 0. -1.
</event>
<event>
 7    1  0.2530765E-009  0.1028411E+03  0.7561462E-02  0.1274432E+00
          2   -1    0    0  501    0  0.00000000000E+00  0.00000000000E+00  0.98158157590E+03  0.98158157590E+03  0.00000000000E+00 0. -1.
         -2   -1    0    0    0  501 -0.00000000000E+00 -0.00000000000E+00 -0.22308304018E+02  0.22308304018E+02  0.00000000000E+00 0.  1.
         25    2    1    2    0    0 -0.86969779739E+02 -0.22593752027E+02  0.68703501432E+03  0.70408707589E+03  0.12508908556E+03 0.  0.
          5    1    3    3  502    0 -0.37210981862E+02 -0.44192515474E+01  0.60606894671E+03  0.60724066689E+03  0.41800000000E+01 0. -1.
         -5    1    3    3    0  502 -0.49758797877E+02 -0.18174500479E+02  0.80966067605E+02  0.96846409005E+02  0.41800000000E+01 0. -1.
        -11    1    1    2    0    0  0.39501559397E+01  0.31131575919E+02  0.13966968603E+03  0.14315166764E+03  0.00000000000E+00 0. -1.
         11    1    1    2    0    0  0.83019623799E+02 -0.85378238919E+01  0.13256857153E+03  0.15665113639E+03  0.00000000000E+00 0.  1.
</event>
<event>
 7    1  0.2530765E-009  0.8663564E+02  0.7561462E-02  0.1311210E+00
          3   -1    0    0  501    0  0.00000000000E+00  0.00000000000E+00  0.14397914952E+03  0.14397914952E+03  0.00000000000E+00 0. -1.
         -3   -1    0    0    0  501 -0.00000000000E+00 -0.00000000000E+00 -0.10803196776E+03  0.10803196776E+03  0.00000000000E+00 0.  1.
         25    2    1    2    0    0 -0.16258300561E+02 -0.22562604708E+02  0.77482267102E+02  0.14974838384E+03  0.12509066024E+03 0.  0.
          5    1    3    3  502    0 -0.62580873910E+02  0.17966026499E+02  0.29540807737E+02  0.71618961241E+02  0.41800000000E+01 0. -1.
         -5    1    3    3    0  502  0.46322573349E+02 -0.40528631208E+02  0.47941459366E+02  0.78129422597E+02  0.41800000000E+01 0. -1.
        -11    1    1    2    0    0 -0.11612792126E+02  0.21983193146E+01  0.24806564123E+02  0.27478267274E+02  0.00000000000E+00 0. -1.
         11    1    1    2    0    0  0.27871092686E+02  0.20364285394E+02 -0.66341649458E+02  0.74784466167E+02  0.00000000000E+00 0.  1.
</event>
<event>
 7    1  0.2530765E-009  0.9549472E+02  0.7561462E-02  0.1290066E+00
         -2   -1    0    0    0  501 -0.00000000000E+00  0.00000000000E+00  0.20935347809E+02  0.20935347809E+02  0.00000000000E+00 0.  1.
          2   -1    0    0  501    0  0.00000000000E+00 -0.00000000000E+00 -0.77335882868E+03  0.77335882868E+03  0.00000000000E+00 0. -1.
         25    2    1    2    0    0  0.13708567144E+02 -0.16891052985E+01 -0.62591028548E+03  0.63843736345E+03  0.12509118152E+03 0.  0.
          5    1    3    3  502    0 -0.31728943990E+02  0.46569812555E+02 -0.35715814865E+03  0.36160045475E+03  0.41800000000E+01 0. -1.
         -5    1    3    3    0  502  0.45437511134E+02 -0.48258917853E+02 -0.26875213683E+03  0.27683690871E+03  0.41800000000E+01 0. -1.
        -11    1    1    2    0    0 -0.17616443614E+01 -0.32141682038E+02 -0.96427590734E+01  0.33603183147E+02  0.00000000000E+00 0.  1.
         11    1    1    2    0    0 -0.11946922783E+02  0.33830787336E+02 -0.11687043632E+03  0.12225362989E+03  0.00000000000E+00 0. -1.
</event>
<event>
 7    1  0.2530765E-009  0.1153536E+03  0.7561462E-02  0.1250965E+00
          1   -1    0    0  501    0  0.00000000000E+00  0.00000000000E+00  0.56168134769E+02  0.56168134769E+02  0.00000000000E+00 0. -1.
         -1   -1    0    0    0  501 -0.00000000000E+00 -0.00000000000E+00 -0.41759390393E+03  0.41759390393E+03  0.00000000000E+00 0.  1.
         25    2    1    2    0    0  0.19668985923E+02 -0.10449458285E+03 -0.24813690423E+03  0.29753223414E+03  0.12509004861E+03 0.  0.
          5    1    3    3  502    0  0.66933986703E+01 -0.10574860938E+03 -0.90813219712E+02  0.13961405104E+03  0.41800000000E+01 0.  1.
         -5    1    3    3    0  502  0.12975587252E+02  0.12540265272E+01 -0.15732368451E+03  0.15791818311E+03  0.41800000000E+01 0.  1.
        -11    1    1    2    0    0 -0.20450956645E+02  0.29053444322E+02  0.50505661277E+01  0.35886661489E+02  0.00000000000E+00 0. -1.
         11    1    1    2    0    0  0.78197072230E+00  0.75441138533E+02 -0.11833943106E+03  0.14034314307E+03  0.00000000000E+00 0.  1.
</event>
<event>
 7    1  0.2530765E-009  0.9966349E+02  0.7561462E-02  0.1281005E+00
          2   -1    0    0  501    0  0.00000000000E+00  0.00000000000E+00  0.13202526491E+03  0.13202526491E+03  0.00000000000E+00 0.  1.
         -2   -1    0    0    0  501 -0.00000000000E+00 -0.00000000000E+00 -0.18397625999E+03  0.18397625999E+03  0.00000000000E+00 0. -1.
         25    2    1    2    0    0  0.18576880676E+02  0.64354454587E+02  0.58876328898E+02  0.15362099072E+03  0.12508553219E+03 0.  0.
          5    1    3    3  502    0  0.64179682141E+02  0.37630956280E+02  0.17045710665E+00  0.74515917265E+02  0.41800000000E+01 0.  1.
         -5    1    3    3    0  502 -0.45602801465E+02  0.26723498307E+02  0.58705871791E+02  0.79105073453E+02  0.41800000000E+01 0.  1.
        -11    1    1    2    0    0 -0.24878554522E+02 -0.44786010256E+02 -0.16228115017E+01  0.51257806302E+02  0.00000000000E+00 0.  1.
         11    1    1    2    0    0  0.63016738458E+01 -0.19568444331E+02 -0.10920451247E+03  0.11112272788E+03  0.00000000000E+00 0. -1.
</event>
<event>
 7    1  0.2530765E-009  0.1991137E+03  0.7561462E-02  0.1150489E+00
         -2   -1    0    0    0  501 -0.00000000000E+00  0.00000000000E+00  0.95504446003E+02  0.95504446003E+02  0.00000000000E+00 0.  1.
          2   -1    0    0  501    0  0.00000000000E+00 -0.00000000000E+00 -0.59144767190E+03  0.59144767190E+03  0.00000000000E+00 0. -1.
         25    2    1    2    0    0 -0.86339304457E+02 -0.15963757988E+03 -0.39801134179E+03  0.45497290591E+03  0.12509470220E+03 0.  0.
          5    1    3    3  502    0 -0.24816560848E+02 -0.48244332443E+01 -0.17346236507E+03  0.17534480701E+03  0.41800000000E+01 0. -1.
         -5    1    3    3    0  502 -0.61522743609E+02 -0.15481314664E+03 -0.22454897671E+03  0.27962809890E+03  0.41800000000E+01 0. -1.
        -11    1    1    2    0    0  0.37219583397E+02  0.15170568825E+03 -0.53038246976E+02  0.16496353803E+03  0.00000000000E+00 0.  1.
         11    1    1    2    0    0  0.49119721060E+02  0.79318916320E+01 -0.44893637134E+02  0.67015673965E+02  0.00000000000E+00 0. -1.
</event>
<event>
 7    1  0.2530765E-009  0.1211526E+03  0.7561462E-02  0.1241208E+00
          2   -1    0    0  501    0  0.00000000000E+00  0.00000000000E+00  0.10068183004E+03  0.10068183004E+03  0.00000000000E+00 0. -1.
         -2   -1    0    0    0  501 -0.00000000000E+00 -0.00000000000E+00 -0.19971204869E+03  0.19971204869E+03  0.00000000000E+00 0.  1.
         25    2    1    2    0    0 -0.67644202799E+02  0.42096588272E+02 -0.25222999466E+01  0.14832519913E+03  0.12508453855E+03 0.  0.
          5    1    3    3  502    0 -0.31124247194E+02  0.81098016318E+02  0.21514984826E+02  0.89587800432E+02  0.41800000000E+01 0.  1.
         -5    1    3    3    0  502 -0.36519955604E+02 -0.39001428046E+02 -0.24037284773E+02  0.58737398702E+02  0.41800000000E+01 0.  1.
        -11    1    1    2    0    0  0.31044229413E+02 -0.54817622154E+02 -0.19642093310E+02  0.65988845331E+02  0.00000000000E+00 0. -1.
         11    1    1    2    0    0  0.36599973386E+02  0.12721033882E+02 -0.76865825387E+02  0.86079834266E+02  0.00000000000E+00 0.  1.
</event>
<event>
 7    1  0.2530765E-009  0.1116871E+03  0.7561462E-02  0.1257477E+00
         -2   -1    0    0    0  501 -0.00000000000E+00  0.00000000000E+00  0.12395317599E+03  0.12395317599E+03  0.00000000000E+00 0.  1.
          2   -1    0    0  501    0  0.00000000000E+00 -0.00000000000E+00 -0.16291654275E+03  0.16291654275E+03  0.00000000000E+00 0. -1.
         25    2    1    2    0    0  0.87632693306E+02 -0.22715701536E+02 -0.35854238471E+02  0.15851717051E+03  0.12508666954E+03 0.  0.
          5    1    3    3  502    0  0.55875614301E+02  0.38287176182E+01 -0.80073141417E+02  0.97805540377E+02  0.41800000000E+01 0.  1.
         -5    1    3    3    0  502  0.31757079005E+02 -0.26544419154E+02  0.44218902946E+02  0.60711630129E+02  0.41800000000E+01 0.  1.
        -11    1    1    2    0    0  0.15805547713E+02 -0.79921351239E+01  0.88363282522E+01  0.19793187195E+02  0.00000000000E+00 0.  1.
         11    1    1    2    0    0 -0.10343824102E+03  0.30707836660E+02 -0.11945456545E+02  0.10855936104E+03  0.00000000000E+00 0. -1.
</event>
<event>
 7    1  0.2530765E-009  0.1421884E+03  0.7561462E-02  0.1210414E+00
          2   -1    0    0  501    0  0.00000000000E+00  0.00000000000E+00  0.82476316612E+03  0.82476316612E+03  0.00000000000E+00 0. -1.
         -2   -1    0    0    0  501 -0.00000000000E+00 -0.00000000000E+00 -0.34062738294E+02  0.34062738294E+02  0.00000000000E+00 0.  1.
         25    2    1    2    0    0  0.37540764489E+02  0.10310479698E+03  0.25599926194E+03  0.30532396083E+03  0.12508873164E+03 0.  0.
          5    1    3    3  502    0 -0.38054289897E+02  0.32345923497E+02  0.34686824929E+02  0.60951094904E+02  0.41800000000E+01 0. -1.
         -5    1    3    3    0  502  0.75595054386E+02  0.70758873484E+02  0.22131243701E+03  0.24437286593E+03  0.41800000000E+01 0. -1.
        -11    1    1    2    0    0  0.56161533501E+01 -0.82702705176E+02  0.43664172994E+03  0.44444041102E+03  0.00000000000E+00 0.  1.
         11    1    1    2    0    0 -0.43156917839E+02 -0.20402091804E+02  0.98059435936E+02  0.10906153256E+03  0.00000000000E+00 0. -1.
</event>
<event>
 7    1  0.2530765E-009  0.1363464E+03  0.7561462E-02  0.1218331E+00
          3   -1    0    0  501    0  0.00000000000E+00  0.00000000000E+00  0.64328599425E+02  0.64328599425E+02  0.00000000000E+00 0.  1.
         -3   -1    0    0    0  501 -0.00000000000E+00 -0.00000000000E+00 -0.37738359214E+03  0.37738359214E+03  0.00000000000E+00 0. -1.
         25    2    1    2    0    0 -0.83294398444E+02 -0.66029366710E+02 -0.12498076639E+03  0.20630962592E+03  0.12508251556E+03 0.  0.
          5    1    3    3  502    0  0.13132083954E+02 -0.21234541023E+02 -0.91234089785E+02  0.94680984893E+02  0.41800000000E+01 0. -1.
         -5    1    3    3    0  502 -0.96426482398E+02 -0.44794825687E+02 -0.33746676607E+02  0.11162864103E+03  0.41800000000E+01 0. -1.
        -11    1    1    2    0    0  0.17060324417E+02 -0.23850772147E+02 -0.48381399673E+02  0.56574498103E+02  0.00000000000E+00 0. -1.
         11    1    1    2    0    0  0.66234074027E+02  0.89880138857E+02 -0.13969282665E+03  0.17882806754E+03  0.00000000000E+00 0.  1.
</event>
<event>
 7    1  0.2530765E-009  0.1186915E+03  0.7561462E-02  0.1245271E+00
         -2   -1    0    0    0  501 -0.00000000000E+00  0.00000000000E+00  0.10896130910E+04  0.10896130910E+04  0.00000000000E+00 0.  1.
          2   -1    0    0  501    0  0.00000000000E+00 -0.00000000000E+00 -0.16008484275E+02  0.16008484275E+02  0.00000000000E+00 0. -1.
         25    2    1    2    0    0  0.44002549144E+02  0.49009439603E+02  0.75475945204E+03  0.76788508255E+03  0.12509004779E+03 0.  0.
          5    1    3    3  502    0  0.77886153596E+02  0.58531205078E+02  0.41602308079E+03  0.42729946295E+03  0.41800000000E+01 0. -1.
         -5    1    3    3    0  502 -0.33883604451E+02 -0.95217654747E+01  0.33873637125E+03  0.34058561960E+03  0.41800000000E+01 0. -1.
        -11    1    1    2    0    0 -0.11031881338E+02 -0.66287062431E+02  0.25620506004E+03  0.26487111931E+03  0.00000000000E+00 0.  1.
         11    1    1    2    0    0 -0.32970667807E+02  0.17277622828E+02  0.62640094626E+02  0.72865373401E+02  0.00000000000E+00 0. -1.
</event>
<event>
 7    1  0.2530765E-009  0.1068942E+03  0.7561462E-02  0.1266432E+00
         -2   -1    0    0    0  501 -0.00000000000E+00  0.00000000000E+00  0.55703102094E+02  0.55703102094E+02  0.00000000000E+00 0.  1.
          2   -1    0    0  501    0  0.00000000000E+00 -0.00000000000E+00 -0.24365208588E+03  0.24365208588E+03  0.00000000000E+00 0. -1.
         25    2    1    2    0    0 -0.25184846348E+02  0.36255139206E+02 -0.10264042492E+03  0.16772243475E+03  0.12508815566E+03 0.  0.
          5    1    3    3  502    0 -0.41270577084E+02  0.68737759701E+02 -0.28683882425E+02  0.85254780819E+02  0.41800000000E+01 0.  1.
         -5    1    3    3    0  502  0.16085730736E+02 -0.32482620495E+02 -0.73956542495E+02  0.82467653934E+02  0.41800000000E+01 0.  1.
        -11    1    1    2    0    0  0.57415883174E+02 -0.19134419058E+02 -0.36453625368E+02  0.70651089417E+02  0.00000000000E+00 0. -1.
         11    1    1    2    0    0 -0.32231036826E+02 -0.17120720148E+02 -0.48854933502E+02  0.60981663808E+02  0.00000000000E+00 0.  1.
</event>
<event>
 7    1  0.2530765E-009  0.1622392E+03  0.7561462E-02  0.1186192E+00
          2   -1    0    0  501    0  0.00000000000E+00  0.00000000000E+00  0.68012863487E+03  0.68012863487E+03  0.00000000000E+00 0. -1.
         -2   -1    0    0    0  501 -0.00000000000E+00 -0.00000000000E+00 -0.46685937335E+02  0.46685937335E+02  0.00000000000E+00 0.  1.
         25    2    1    2    0    0 -0.51664897933E+02 -0.12989056730E+03  0.37502742307E+03  0.41932731825E+03  0.12509600561E+03 0.  0.
          5    1    3    3  502    0 -0.61534612603E+02 -0.13308085140E+03  0.37982183529E+03  0.40715982184E+03  0.41800000000E+01 0. -1.
         -5    1    3    3    0  502  0.98697146701E+01  0.31902841060E+01 -0.47944122156E+01  0.12167496408E+02  0.41800000000E+01 0. -1.
        -11    1    1    2    0    0 -0.26285060494E+02  0.29375717674E+02  0.58846382960E+02  0.70828906398E+02  0.00000000000E+00 0.  1.
         11    1    1    2    0    0  0.77949958428E+02  0.10051484962E+03  0.19956889150E+03  0.23665834756E+03  0.00000000000E+00 0. -1.
</event>
<event>
 7    1  0.2530765E-009  0.9404322E+02  0.7561462E-02  0.1293346E+00
          2   -1    0    0  501    0  0.00000000000E+00  0.00000000000E+00  0.13198761743E+03  0.13198761743E+03  0.00000000000E+00 0. -1.
         -2   -1    0    0    0  501 -0.00000000000E+00 -0.00000000000E+00 -0.16256373974E+03  0.16256373974E+03  0.00000000000E+00 0.  1.
         25    2    1    2    0    0  0.17878844701E+02  0.32529035191E+02 -0.10778476947E+03  0.16924024106E+03  0.12508761508E+03 0.  0.
          5    1    3    3  502    0  0.22179998929E+02 -0.41774810835E+02 -0.72745581793E+02  0.86870473943E+02  0.41800000000E+01 0. -1.
         -5    1    3    3    0  502 -0.43011542286E+01  0.74303846026E+02 -0.35039187678E+02  0.82369767118E+02  0.41800000000E+01 0. -1.
        -11    1    1    2    0    0  0.19800668700E+02 -0.10507521146E+02  0.78511565851E+02  0.81648885198E+02  0.00000000000E+00 0. -1.
         11    1    1    2    0    0 -0.37679513400E+02 -0.22021514045E+02 -0.13029186989E+01  0.43662230910E+02  0.00000000000E+00 0.  1.
</event>
<event>
 7    1  0.2530765E-009  0.9119633E+02  0.7561462E-02  0.1299980E+00
          1   -1    0    0  501    0  0.00000000000E+00  0.00000000000E+00  0.11863020167E+03  0.11863020167E+03  0.00000000000E+00 0. -1.
         -1   -1    0    0    0  501 -0.00000000000E+00 -0.00000000000E+00 -0.17892559620E+03  0.17892559620E+03  0.00000000000E+00 0.  1.
         25    2    1    2    0    0  0.42347961400E+02 -0.55975178162E+02  0.35696297385E+02  0.14780262044E+03  0.12507924910E+03 0.  0.
          5    1    3    3  502    0 -0.68552236187E+01 -0.23331681222E+01 -0.41080437906E+02  0.41922697228E+02  0.41800000000E+01 0.  1.
         -5    1    3    3    0  502  0.49203185018E+02 -0.53642010039E+02  0.76776735291E+02  0.10587992321E+03  0.41800000000E+01 0.  1.
        -11    1    1    2    0    0 -0.45019558622E+02  0.71977693531E+02 -0.10176917268E+03  0.13253117947E+03  0.00000000000E+00 0.  1.
         11    1    1    2    0    0  0.26715972227E+01 -0.16002515369E+02  0.57774807627E+01  0.17221997963E+02  0.00000000000E+00 0. -1.
</event>
<event>
 7    1  0.2530765E-009  0.7938408E+02  0.7561462E-02  0.1330808E+00
         -3   -1    0    0    0  501 -0.00000000000E+00  0.00000000000E+00  0.49454160232E+02  0.49454160232E+02  0.00000000000E+00 0.  1.
          3   -1    0    0  501    0  0.00000000000E+00 -0.00000000000E+00 -0.32153170830E+03  0.32153170830E+03  0.00000000000E+00 0. -1.
         25    2    1    2    0    0  0.50541153151E+02 -0.18522352581E+02 -0.20026111843E+03  0.24217529732E+03  0.12508746288E+03 0.  0.
          5    1    3    3  502    0  0.19513479396E+02  0.22831011182E+02 -0.18589859300E+03  0.18835548898E+03  0.41800000000E+01 0.  1.
         -5    1    3    3    0  502  0.31027673755E+02 -0.41353363763E+02 -0.14362525433E+02  0.53819808342E+02  0.41800000000E+01 0.  1.
        -11    1    1    2    0    0 -0.45847677359E+01  0.29066903900E+02  0.12685455932E+02  0.32044122546E+02  0.00000000000E+00 0.  1.
         11    1    1    2    0    0 -0.45956385415E+02 -0.10544551319E+02 -0.84501885571E+02  0.96766448669E+02  0.00000000000E+00 0. -1.
</event>
<event>
 7    1  0.2530765E-009  0.1514145E+03  0.7561462E-02  0.1198746E+00
          2   -1    0    0  501    0  0.00000000000E+00  0.00000000000E+00  0.10063626072E+03  0.10063626072E+03  0.00000000000E+00 0. -1.
         -2   -1    0    0    0  501 -0.00000000000E+00 -0.00000000000E+00 -0.41091475379E+03  0.41091475379E+03  0.00000000000E+00 0.  1.
         25    2    1    2    0    0  0.65275536978E+01 -0.12802065942E+03 -0.18881339754E+02  0.18009835117E+03  0.12508802064E+03 0.  0.
          5    1    3    3  502    0 -0.38230057431E+02 -0.10214524743E+03 -0.49524018460E+02  0.11985528636E+03  0.41800000000E+01 0.  1.
         -5    1    3    3    0  502  0.44757611129E+02 -0.25875411986E+02  0.30642678707E+02  0.60243064810E+02  0.41800000000E+01 0.  1.
        -11    1    1    2    0    0 -0.33414365973E+02  0.81513574663E+02 -0.10294843476E+03  0.13549672663E+03  0.00000000000E+00 0.  1.
         11    1    1    2    0    0  0.26886812275E+02  0.46507084757E+02 -0.18844871856E+03  0.19595593671E+03  0.00000000000E+00 0. -1.
</event>
<event>
 7    1  0.2530765E-009  0.7697393E+02  0.7561462E-02  0.1337865E+00
         -3   -1    0    0    0  501 -0.00000000000E+00  0.00000000000E+00  0.18206640602E+03  0.18206640602E+03  0.00000000000E+00 0.  1.
          3   -1    0    0  501    0  0.00000000000E+00 -0.00000000000E+00 -0.93062436835E+02  0.93062436835E+02  0.00000000000E+00 0. -1.
         25    2    1    2    0    0 -0.47096572916E+00 -0.43899529079E+02 -0.90364008607E+01  0.13287814017E+03  0.12509018000E+03 0.  0.
          5    1    3    3  502    0  0.18042491373E+02 -0.33197069939E+02  0.54081639623E+02  0.66105015633E+02  0.41800000000E+01 0.  1.
         -5    1    3    3    0  502 -0.18513457102E+02 -0.10702459139E+02 -0.63118040484E+02  0.66773124534E+02  0.41800000000E+01 0.  1.
        -11    1    1    2    0    0 -0.24119421649E+02  0.60058379342E+02  0.91553772167E+02  0.11211979588E+03  0.00000000000E+00 0.  1.
         11    1    1    2    0    0  0.24590387378E+02 -0.16158850263E+02  0.64865978802E+01  0.30130906812E+02  0.00000000000E+00 0. -1.
</event>
<event>
 7    1  0.2530765E-009  0.1013618E+03  0.7561462E-02  0.1277458E+00
          1   -1    0    0  501    0  0.00000000000E+00  0.00000000000E+00  0.42700363026E+03  0.42700363026E+03  0.00000000000E+00 0. -1.
         -1   -1    0    0    0  501 -0.00000000000E+00 -0.00000000000E+00 -0.32745596944E+02  0.32745596944E+02  0.00000000000E+00 0.  1.
         25    2    1    2    0    0 -0.32669800923E+02 -0.33087285348E+02  0.24847197476E+03  0.28204224159E+03  0.12508964567E+03 0.  0.
          5    1    3    3  502    0  0.37721209470E+02 -0.47170467221E+02  0.13092113706E+03  0.14424201590E+03  0.41800000000E+01 0.  1.
         -5    1    3    3    0  502 -0.70391010393E+02  0.14083181872E+02  0.11755083770E+03  0.13780022569E+03  0.41800000000E+01 0.  1.
        -11    1    1    2    0    0  0.99086525077E+01  0.43949887524E+02  0.14567886210E+03  0.15248640881E+03  0.00000000000E+00 0. -1.
         11    1    1    2    0    0  0.22761148415E+02 -0.10862602176E+02  0.10719645016E+00  0.25220576803E+02  0.00000000000E+00 0.  1.
</event>
<event>
 7    1  0.2530765E-009  0.1073386E+03  0.7561462E-02  0.1265579E+00
         -2   -1    0    0    0  501 -0.00000000000E+00  0.00000000000E+00  0.26512761930E+03  0.26512761930E+03  0.00000000000E+00 0.  1.
          2   -1    0    0  501    0  0.00000000000E+00 -0.00000000000E+00 -0.51774453083E+02  0.51774453083E+02  0.00000000000E+00 0. -1.
         25    2    1    2    0    0 -0.28863640808E+02 -0.61812950198E+01  0.81633935396E+02  0.15226027459E+03  0.12509106139E+03 0.  0.
          5    1    3    3  502    0 -0.41215443894E+02  0.53317842257E+02  0.45838703593E+02  0.81609829466E+02  0.41800000000E+01 0.  1.
         -5    1    3    3    0  502  0.12351803086E+02 -0.59499137277E+02  0.35795231803E+02  0.70650445122E+02  0.41800000000E+01 0.  1.
        -11    1    1    2    0    0  0.51728295597E+02  0.24224258090E+02  0.12064088557E+03  0.13347979066E+03  0.00000000000E+00 0.  1.
         11    1    1    2    0    0 -0.22864654789E+02 -0.18042963070E+02  0.11078345259E+02  0.31162007135E+02  0.00000000000E+00 0. -1.
</event>
<event>
 7    1  0.2530765E-009  0.1039318E+03  0.7561462E-02  0.1272239E+00
          3   -1    0    0  501    0  0.00000000000E+00  0.00000000000E+00  0.11128630800E+04  0.11128630800E+04  0.00000000000E+00 0. -1.
         -3   -1    0    0    0  501 -0.00000000000E+00 -0.00000000000E+00 -0.12290355139E+02  0.12290355139E+02  0.00000000000E+00 0.  1.
         25    2    1    2    0    0 -0.13524340422E+02 -0.68696529972E+01  0.80354057253E+03  0.81336054737E+03  0.12509128025E+03 0.  0.
          5    1    3    3  502    0 -0.63355578791E+02  0.21189305582E+02  0.36495267829E+03  0.37104022131E+03  0.41800000000E+01 0.  1.
         -5    1    3    3    0  502  0.49831238369E+02 -0.28058958579E+02  0.43858789424E+03  0.44232032606E+03  0.41800000000E+01 0.  1.
        -11    1    1    2    0    0 -0.31198606809E+02  0.19900003730E+02  0.62120224407E+02  0.72306884152E+02  0.00000000000E+00 0.  1.
         11    1    1    2    0    0  0.44722947231E+02 -0.13030350733E+02  0.23491192795E+03  0.23948600365E+03  0.00000000000E+00 0. -1.
</event>
<event>
 7    1  0.2530765E-009  0.1139934E+03  0.7561462E-02  0.1253348E+00
         -1   -1    0    0    0  501 -0.00000000000E+00  0.00000000000E+00  0.64192426056E+02  0.64192426056E+02  0.00000000000E+00 0.  1.
          1   -1    0    0  501    0  0.00000000000E+00 -0.00000000000E+00 -0.34664444147E+03  0.34664444147E+03  0.00000000000E+00 0. -1.
         25    2    1    2    0    0  0.23956785754E+02 -0.67815668492E+02 -0.55058897694E+02  0.15444356394E+03  0.12509372386E+03 0.  0.
          5    1    3    3  502    0 -0.32225002009E+02 -0.22773271510E+02  0.24831094255E+02  0.46809489334E+02  0.41800000000E+01 0. -1.
         -5    1    3    3    0  502  0.56181787763E+02 -0.45042396982E+02 -0.79889991949E+02  0.10763407460E+03  0.41800000000E+01 0. -1.
        -11    1    1    2    0    0 -0.48302909416E+02  0.76376786641E+02 -0.19542677402E+03  0.21530956458E+03  0.00000000000E+00 0. -1.
         11    1    1    2    0    0  0.24346123662E+02 -0.85611181485E+01 -0.31966343696E+02  0.41083739005E+02  0.00000000000E+00 0.  1.
</event>
<event>
 7    1  0.2530765E-009  0.2025827E+03  0.7561462E-02  0.1147578E+00
         -2   -1    0    0    0  501 -0.00000000000E+00  0.00000000000E+00  0.10718827833E+04  0.10718827833E+04  0.00000000000E+00 0.  1.
          2   -1    0    0  501    0  0.00000000000E+00 -0.00000000000E+00 -0.41020359340E+02  0.41020359340E+02  0.00000000000E+00 0. -1.
         25    2    1    2    0    0 -0.41207094996E+02  0.17381655182E+03  0.50193078885E+03  0.54725904836E+03  0.12509089038E+03 0.  0.
          5    1    3    3  502    0  0.29939428404E+02  0.10297987983E+03  0.34140081109E+03  0.35787317759E+03  0.41800000000E+01 0.  1.
         -5    1    3    3    0  502 -0.71146523399E+02  0.70836671992E+02  0.16052997775E+03  0.18938587077E+03  0.41800000000E+01 0.  1.
        -11    1    1    2    0    0  0.91405042153E+00 -0.15109502944E+03  0.44290204759E+03  0.46796663041E+03  0.00000000000E+00 0.  1.
         11    1    1    2    0    0  0.40293044574E+02 -0.22721522376E+02  0.86029587537E+02  0.97677463889E+02  0.00000000000E+00 0. -1.
</event>
<event>
 7    1  0.2530765E-009  0.1190074E+03  0.7561462E-02  0.1244744E+00
         -1   -1    0    0    0  501 -0.00000000000E+00  0.00000000000E+00  0.22340259680E+02  0.22340259680E+02  0.00000000000E+00 0.  1.
          1   -1    0    0  501    0  0.00000000000E+00 -0.00000000000E+00 -0.70966277953E+03  0.70966277953E+03  0.00000000000E+00 0. -1.
         25    2    1    2    0    0 -0.24814154990E+02  0.54399134783E+02 -0.32873537649E+03  0.35677713525E+03  0.12509183957E+03 0.  0.
          5    1    3    3  502    0 -0.75686572994E+02  0.33091445392E+02 -0.21327494643E+03  0.22875134155E+03  0.41800000000E+01 0.  1.
         -5    1    3    3    0  502  0.50872418004E+02  0.21307689390E+02 -0.11546043007E+03  0.12802579370E+03  0.41800000000E+01 0.  1.
        -11    1    1    2    0    0  0.34657518560E+02  0.90211021273E+01 -0.60473712268E+02  0.70282243503E+02  0.00000000000E+00 0. -1.
         11    1    1    2    0    0 -0.98433635701E+01 -0.63420236910E+02 -0.29811343109E+03  0.30494366046E+03  0.00000000000E+00 0.  1.
</event>
<event>
 7    1  0.2530765E-009  0.1118518E+03  0.7561462E-02  0.1257179E+00
          2   -1    0    0  501    0  0.00000000000E+00  0.00000000000E+00  0.30952777478E+03  0.30952777478E+03  0.00000000000E+00 0. -1.
         -2   -1    0    0    0  501 -0.00000000000E+00 -0.00000000000E+00 -0.63754431976E+02  0.63754431976E+02  0.00000000000E+00 0.  1.
         25    2    1    2    0    0  0.70545879484E+02 -0.52858804861E+02  0.11531869832E+03  0.19162520241E+03  0.12510412325E+03 0.  0.
          5    1    3    3  502    0  0.21915203811E+02  0.43548059609E+01  0.11417039119E+03  0.11641130151E+03  0.41800000000E+01 0. -1.
         -5    1    3    3    0  502  0.48630675673E+02 -0.57213610822E+02  0.11483071221E+01  0.75213900902E+02  0.41800000000E+01 0. -1.
        -11    1    1    2    0    0  0.93727274856E+01  0.44427046096E+02  0.38454307845E+02  0.59500791903E+02  0.00000000000E+00 0. -1.
         11    1    1    2    0    0 -0.79918606970E+02  0.84317587648E+01  0.92000336639E+02  0.12215621244E+03  0.00000000000E+00 0.  1.
</event>
<event>
 7    1  0.2530765E-009  0.9274212E+02  0.7561462E-02  0.1296344E+00
          1   -1    0    0  501    0  0.00000000000E+00  0.00000000000E+00  0.54324430438E+02  0.54324430438E+02  0.00000000000E+00 0. -1.
         -1   -1    0    0    0  501 -0.00000000000E+00 -0.00000000000E+00 -0.29236034628E+03  0.29236034628E+03  0.00000000000E+00 0.  1.
         25    2    1    2    0    0 -0.18630245452E+02  0.20243761581E+02 -0.21283926935E+03  0.24840242821E+03  0.12508523429E+03 0.  0.
          5    1    3    3  502    0  0.41147764056E+02  0.12076046669E+02 -0.22340236536E+02  0.48533781622E+02  0.41800000000E+01 0.  1.
         -5    1    3    3    0  502 -0.59778009508E+02  0.81677149112E+01 -0.19049903281E+03  0.19986864659E+03  0.41800000000E+01 0.  1.
        -11    1    1    2    0    0  0.28387769143E+02 -0.46180695069E+02  0.82661515120E+01  0.54834763561E+02  0.00000000000E+00 0. -1.
         11    1    1    2    0    0 -0.97575236912E+01  0.25936933488E+02 -0.33462798011E+02  0.43447584951E+02  0.00000000000E+00 0.  1.
</event>
<event>
 7    1  0.2530765E-009  0.1249334E+03  0.7561462E-02  0.1235173E+00
          2   -1    0    0  501    0  0.00000000000E+00  0.00000000000E+00  0.49415360963E+03  0.49415360963E+03  0.00000000000E+00 0.  1.
         -2   -1    0    0    0  501 -0.00000000000E+00 -0.00000000000E+00 -0.44818121277E+02  0.44818121277E+02  0.00000000000E+00 0. -1.
         25    2    1    2    0    0  0.72219040778E+02 -0.45004147156E+02  0.34362075173E+03  0.37545460041E+03  0.12509985145E+03 0.  0.
          5    1    3    3  502    0  0.42837815260E+02  0.35821680176E+02  0.20287062422E+03  0.21045720172E+03  0.41800000000E+01 0. -1.
         -5    1    3    3    0  502  0.29381225518E+02 -0.80825827331E+02  0.14075012752E+03  0.16499739868E+03  0.41800000000E+01 0. -1.
        -11    1    1    2    0    0 -0.85069500347E+02  0.39000096403E+02  0.50156169384E+02  0.10617659222E+03  0.00000000000E+00 0. -1.
         11    1    1    2    0    0  0.12850459569E+02  0.60040507526E+01  0.55558567237E+02  0.57340538278E+02  0.00000000000E+00 0.  1.
</event>
<event>
 7    1  0.2530765E-009  0.1065257E+03  0.7561462E-02  0.1267143E+00
          2   -1    0    0  501    0  0.00000000000E+00  0.00000000000E+00  0.40273492983E+03  0.40273492983E+03  0.00000000000E+00 0. -1.
         -2   -1    0    0    0  501 -0.00000000000E+00 -0.00000000000E+00 -0.68358316794E+02  0.68358316794E+02  0.00000000000E+00 0.  1.
         25    2    1    2    0    0 -0.23536925033E+02  0.66555537484E+02  0.32484388804E+03  0.35518112672E+03  0.12508578964E+03 0.  0.
          5    1    3    3  502    0 -0.32256009617E+02  0.10094843275E+03  0.26568204034E+03  0.28606896929E+03  0.41800000000E+01 0.  1.
         -5    1    3    3    0  502  0.87190845844E+01 -0.34392895268E+02  0.59161847699E+02  0.69112157426E+02  0.41800000000E+01 0.  1.
        -11    1    1    2    0    0  0.20560633544E+02 -0.44616877642E+02 -0.38897591848E+02  0.62661216664E+02  0.00000000000E+00 0.  1.
         11    1    1    2    0    0  0.29762914886E+01 -0.21938659842E+02  0.48430316842E+02  0.53250903242E+02  0.00000000000E+00 0. -1.
</event>
<event>
 7    1  0.2530765E-009  0.1067370E+03  0.7561462E-02  0.1266735E+00
         -1   -1    0    0    0  501 -0.00000000000E+00  0.00000000000E+00  0.42858995037E+02  0.42858995037E+02  0.00000000000E+00 0.  1.
          1   -1    0    0  501    0  0.00000000000E+00 -0.00000000000E+00 -0.36198134749E+03  0.36198134749E+03  0.00000000000E+00 0. -1.
         25    2    1    2    0    0 -0.14804235479E+02  0.57836947354E+02 -0.17974173847E+03  0.22698061779E+03  0.12509528542E+03 0.  0.
          5    1    3    3  502    0  0.40280304096E+02 -0.94087246215E+01 -0.10253086154E+03  0.11063940060E+03  0.41800000000E+01 0.  1.
         -5    1    3    3    0  502 -0.55084539575E+02  0.67245671976E+02 -0.77210876939E+02  0.11634121719E+03  0.41800000000E+01 0.  1.
        -11    1    1    2    0    0  0.34892716287E+02 -0.15845248480E+02 -0.89244582117E+01  0.39347420547E+02  0.00000000000E+00 0.  1.
         11    1    1    2    0    0 -0.20088480809E+02 -0.41991698874E+02 -0.13045615577E+03  0.13851230419E+03  0.00000000000E+00 0. -1.
</event>
<event>
 7    1  0.2530765E-009  0.2112627E+03  0.7561462E-02  0.1140570E+00
          1   -1    0    0  501    0  0.00000000000E+00  0.00000000000E+00  0.97929523210E+03  0.97929523210E+03  0.00000000000E+00 0. -1.
         -1   -1    0    0    0  501 -0.00000000000E+00 -0.00000000000E+00 -0.59218272984E+02  0.59218272984E+02  0.00000000000E+00 0.  1.
         25    2    1    2    0    0 -0.19174753316E+03  0.65732974084E+02  0.32662434571E+03  0.40425156287E+03  0.12509165647E+03 0.  0.
          5    1    3    3  502    0 -0.50776252643E+02  0.14791918782E+02  0.20328020494E+03  0.21008889265E+03  0.41800000000E+01 0. -1.
         -5    1    3    3    0  502 -0.14097128052E+03  0.50941055302E+02  0.12334414077E+03  0.19416267022E+03  0.41800000000E+01 0. -1.
        -11    1    1    2    0    0  0.11623737498E+03  0.46032983783E+01  0.25195533508E+03  0.27751361872E+03  0.00000000000E+00 0.  1.
         11    1    1    2    0    0  0.75510158179E+02 -0.70336272462E+02  0.34149727833E+03  0.35674832350E+03  0.00000000000E+00 0. -1.
</event>
<event>
 7    1  0.2530765E-009  0.1101774E+03  0.7561462E-02  0.1260242E+00
         -2   -1    0    0    0  501 -0.00000000000E+00  0.00000000000E+00  0.27681540560E+02  0.27681540560E+02  0.00000000000E+00 0.  1.
          2   -1    0    0  501    0  0.00000000000E+00 -0.00000000000E+00 -0.63856221619E+03  0.63856221619E+03  0.00000000000E+00 0. -1.
         25    2    1    2    0    0  0.97901960188E+01 -0.37764328282E+02 -0.50357982989E+03  0.52034606149E+03  0.12508151823E+03 0.  0.
          5    1    3    3  502    0  0.10306017750E+02 -0.83344786228E+02 -0.29163136648E+03  0.30351094495E+03  0.41800000000E+01 0. -1.
         -5    1    3    3    0  502 -0.51582173147E+00  0.45580457947E+02 -0.21194846342E+03  0.21683511654E+03  0.41800000000E+01 0. -1.
        -11    1    1    2    0    0  0.30810659478E+02 -0.53530374046E+01 -0.11601599342E+02  0.33354892508E+02  0.00000000000E+00 0.  1.
         11    1    1    2    0    0 -0.40600855497E+02  0.43117365686E+02 -0.95699246395E+02  0.11254280275E+03  0.00000000000E+00 0. -1.
</event>
<event>
 7    1  0.2530765E-009  0.1016039E+03  0.7561462E-02  0.1276959E+00
         -2   -1    0    0    0  501 -0.00000000000E+00  0.00000000000E+00  0.22720182932E+02  0.22720182932E+02  0.00000000000E+00 0.  1.
          2   -1    0    0  501    0  0.00000000000E+00 -0.00000000000E+00 -0.11621104025E+04  0.11621104025E+04  0.00000000000E+00 0. -1.
         25    2    1    2    0    0 -0.63899829623E+02  0.30078619748E+02 -0.96360687303E+03  0.97425357030E+03  0.12507558476E+03 0.  0.
          5    1    3    3  502    0  0.10519248488E+02  0.18862608110E+02 -0.27964746377E+02  0.35580219411E+02  0.41800000000E+01 0. -1.
         -5    1    3    3    0  502 -0.74419078111E+02  0.11216011638E+02 -0.93564212665E+03  0.93867335089E+03  0.41800000000E+01 0. -1.
        -11    1    1    2    0    0 -0.14972821924E+01 -0.39704087224E+02 -0.11151731738E+03  0.11838398740E+03  0.00000000000E+00 0. -1.
         11    1    1    2    0    0  0.65397111816E+02  0.96254674757E+01 -0.64266029143E+02  0.92193027718E+02  0.00000000000E+00 0.  1.
</event>
<event>
 7    1  0.2530765E-009  0.1055043E+03  0.7561462E-02  0.1269129E+00
         -2   -1    0    0    0  501 -0.00000000000E+00  0.00000000000E+00  0.18566180721E+03  0.18566180721E+03  0.00000000000E+00 0.  1.
          2   -1    0    0  501    0  0.00000000000E+00 -0.00000000000E+00 -0.10777044881E+03  0.10777044881E+03  0.00000000000E+00 0. -1.
         25    2    1    2    0    0  0.27843756697E+02  0.82961520794E+02  0.21794025515E+02  0.15421082186E+03  0.12509240309E+03 0.  0.
          5    1    3    3  502    0  0.14321629841E+02  0.61807353743E+02  0.73133531981E+02  0.96908430789E+02  0.41800000000E+01 0.  1.
         -5    1    3    3    0  502  0.13522126856E+02  0.21154167051E+02 -0.51339506466E+02  0.57302391071E+02  0.41800000000E+01 0.  1.
        -11    1    1    2    0    0 -0.54775411508E+02 -0.29745034229E+02  0.48743238711E+02  0.79126582683E+02  0.00000000000E+00 0.  1.
         11    1    1    2    0    0  0.26931654811E+02 -0.53216486565E+02  0.73540941667E+01  0.60094851478E+02  0.00000000000E+00 0. -1.
</event>
<event>
 7    1  0.2903780E-009  0.1083125E+03  0.7561462E-02  0.1263727E+00
         -2   -1    0    0    0  501 -0.00000000000E+00  0.00000000000E+00  0.12503023407E+02  0.12503023407E+02  0.00000000000E+00 0.  1.
          2   -1    0    0  501    0  0.00000000000E+00 -0.00000000000E+00 -0.14418001779E+04  0.14418001779E+04  0.00000000000E+00 0. -1.
         25    2    1    2    0    0 -0.47528439344E+01  0.63340993665E+02 -0.10430951998E+04  0.10524877813E+04  0.12509301672E+03 0.  0.
          5    1    3    3  502    0  0.29979476898E+01  0.84948517961E+02 -0.39923667102E+03  0.40820660244E+03  0.41800000000E+01 0.  1.
         -5    1    3    3    0  502 -0.77507916242E+01 -0.21607524296E+02 -0.64385852881E+03  0.64428117884E+03  0.41800000000E+01 0.  1.
        -11    1    1    2    0    0 -0.41280738683E+02 -0.35067669253E+02 -0.14900990266E+03  0.15854902051E+03  0.00000000000E+00 0. -1.
         11    1    1    2    0    0  0.46033582617E+02 -0.28273324412E+02 -0.23719205202E+03  0.24326639953E+03  0.00000000000E+00 0.  1.
</event>
<event>
 7    1  0.2530765E-009  0.1175268E+03  0.7561462E-02  0.1247234E+00
          1   -1    0    0  501    0  0.00000000000E+00  0.00000000000E+00  0.34609807413E+03  0.34609807413E+03  0.00000000000E+00 0. -1.
         -1   -1    0    0    0  501 -0.00000000000E+00 -0.00000000000E+00 -0.55460856537E+02  0.55460856537E+02  0.00000000000E+00 0.  1.
         25    2    1    2    0    0 -0.40005695289E+02 -0.64810102921E+02  0.21438030116E+03  0.25962781761E+03  0.12508750959E+03 0.  0.
          5    1    3    3  502    0 -0.98243379600E+01  0.29305594342E+02  0.10319530912E+02  0.32852710609E+02  0.41800000000E+01 0.  1.
         -5    1    3    3    0  502 -0.30181357329E+02 -0.94115697263E+02  0.20406077025E+03  0.22677510700E+03  0.41800000000E+01 0.  1.
        -11    1    1    2    0    0 -0.18993345723E+02  0.32575401415E+02  0.62974556811E+02  0.73400945257E+02  0.00000000000E+00 0. -1.
         11    1    1    2    0    0  0.58999041012E+02  0.32234701506E+02  0.13282359622E+02  0.68530167800E+02  0.00000000000E+00 0.  1.
</event>
<event>
 7    1  0.2530765E-009  0.1303231E+03  0.7561462E-02  0.1226977E+00
          1   -1    0    0  501    0  0.00000000000E+00  0.00000000000E+00  0.12468028750E+03  0.12468028750E+03  0.00000000000E+00 0. -1.
         -1   -1    0    0    0  501 -0.00000000000E+00 -0.00000000000E+00 -0.16631598523E+03  0.16631598523E+03  0.00000000000E+00 0.  1.
         25    2    1    2    0    0  0.80495011707E+02  0.79167667188E+01  0.21224557718E+02  0.15046531843E+03  0.12508880084E+03 0.  0.
          5    1    3    3  502    0  0.89573536625E+02  0.50266973288E+02  0.18048726235E+01  0.10281496502E+03  0.41800000000E+01 0. -1.
         -5    1    3    3    0  502 -0.90785249183E+01 -0.42350206569E+02  0.19419685095E+02  0.47650353412E+02  0.41800000000E+01 0. -1.
        -11    1    1    2    0    0 -0.25661086586E-01 -0.30700775380E+02 -0.45860386481E+02  0.55187981623E+02  0.00000000000E+00 0.  1.
         11    1    1    2    0    0 -0.80469350620E+02  0.22784008661E+02 -0.16999868965E+02  0.85342972673E+02  0.00000000000E+00 0. -1.
</event>
<event>
 7    1  0.2530765E-009  0.9229944E+02  0.7561462E-02  0.1297377E+00
         -2   -1    0    0    0  501 -0.00000000000E+00  0.00000000000E+00  0.26716841859E+02  0.26716841859E+02  0.00000000000E+00 0.  1.
          2   -1    0    0  501    0  0.00000000000E+00 -0.00000000000E+00 -0.52846484905E+03  0.52846484905E+03  0.00000000000E+00 0. -1.
         25    2    1    2    0    0 -0.14310325576E+02  0.30043084253E+02 -0.20216167758E+03  0.24005155757E+03  0.12509210239E+03 0.  0.
          5    1    3    3  502    0  0.26940534869E+02 -0.14900637799E+02 -0.24240071743E+01  0.31163594733E+02  0.41800000000E+01 0.  1.
         -5    1    3    3    0  502 -0.41250860445E+02  0.44943722052E+02 -0.19973767040E+03  0.20888796283E+03  0.41800000000E+01 0.  1.
        -11    1    1    2    0    0 -0.32251508687E+02  0.68557648346E+01 -0.16108106248E+03  0.16442101451E+03  0.00000000000E+00 0. -1.
         11    1    1    2    0    0  0.46561834262E+02 -0.36898849087E+02 -0.13850526713E+03  0.15070911883E+03  0.00000000000E+00 0.  1.
</event>
<event>
 7    1  0.2530765E-009  0.1096291E+03  0.7561462E-02  0.1261258E+00
          2   -1    0    0  501    0  0.00000000000E+00  0.00000000000E+00  0.47737459267E+03  0.47737459267E+03  0.00000000000E+00 0. -1.
         -2   -1    0    0    0  501 -0.00000000000E+00 -0.00000000000E+00 -0.40931876202E+02  0.40931876202E+02  0.00000000000E+00 0.  1.
         25    2    1    2    0    0  0.61481756717E+02  0.64866851371E+02  0.21486412012E+03  0.26419832423E+03  0.12508576895E+03 0.  0.
          5    1    3    3  502    0  0.35041698353E+02  0.13030496844E+02  0.20065756304E+03  0.20415348264E+03  0.41800000000E+01 0. -1.
         -5    1    3    3    0  502  0.26440058363E+02  0.51836354526E+02  0.14206557083E+02  0.60044841585E+02  0.41800000000E+01 0. -1.
        -11    1    1    2    0    0 -0.83158538290E+02 -0.50432917109E+02  0.15986528977E+03  0.18712491146E+03  0.00000000000E+00 0.  1.
         11    1    1    2    0    0  0.21676781574E+02 -0.14433934262E+02  0.61713306579E+02  0.66983233175E+02  0.00000000000E+00 0. -1.
</event>
<event>
 7    1  0.2530765E-009  0.1602976E+03  0.7561462E-02  0.1188361E+00
         -3   -1    0    0    0  501 -0.00000000000E+00  0.00000000000E+00  0.21491088884E+03  0.21491088884E+03  0.00000000000E+00 0.  1.
          3   -1    0    0  501    0  0.00000000000E+00 -0.00000000000E+00 -0.20652875062E+03  0.20652875062E+03  0.00000000000E+00 0. -1.
         25    2    1    2    0    0  0.70712625509E+02  0.10569567700E+03  0.11856085704E+03  0.21418623773E+03  0.12508883270E+03 0.  0.
          5    1    3    3  502    0  0.19682687836E+02  0.92595947337E+02  0.12357252150E+02  0.95559362410E+02  0.41800000000E+01 0. -1.
         -5    1    3    3    0  502  0.51029937673E+02  0.13099729667E+02  0.10620360489E+03  0.11862687532E+03  0.41800000000E+01 0. -1.
        -11    1    1    2    0    0  0.23585498977E+02 -0.67051758235E+02 -0.62889443371E+02  0.94906776006E+02  0.00000000000E+00 0. -1.
         11    1    1    2    0    0 -0.94298124486E+02 -0.38643918768E+02 -0.47289275453E+02  0.11234662573E+03  0.00000000000E+00 0.  1.
</event>
<event>
 7    1  0.2530765E-009  0.1426872E+03  0.7561462E-02  0.1209758E+00
          1   -1    0    0  501    0  0.00000000000E+00  0.00000000000E+00  0.34025125437E+03  0.34025125437E+03  0.00000000000E+00 0. -1.
         -1   -1    0    0    0  501 -0.00000000000E+00 -0.00000000000E+00 -0.70480450580E+02  0.70480450580E+02  0.00000000000E+00 0.  1.
         25    2    1    2    0    0  0.24162643683E+02  0.11088311215E+03  0.15819817166E+03  0.23141411606E+03  0.12508770397E+03 0.  0.
          5    1    3    3  502    0 -0.49813529236E+02  0.27227290019E+02  0.59070740200E+02  0.82033759908E+02  0.41800000000E+01 0. -1.
         -5    1    3    3    0  502  0.73976172919E+02  0.83655822131E+02  0.99127431460E+02  0.14938035615E+03  0.41800000000E+01 0. -1.
        -11    1    1    2    0    0 -0.15192911726E+02 -0.10472378314E+03  0.50444478079E+02  0.11722858308E+03  0.00000000000E+00 0.  1.
         11    1    1    2    0    0 -0.89697319563E+01 -0.61593290104E+01  0.61128154047E+02  0.62089005810E+02  0.00000000000E+00 0. -1.
</event>
<event>
 7    1  0.2530765E-009  0.1288119E+03  0.7561462E-02  0.1229229E+00
         -1   -1    0    0    0  501 -0.00000000000E+00  0.00000000000E+00  0.14068920752E+03  0.14068920752E+03  0.00000000000E+00 0.  1.
          1   -1    0    0  501    0  0.00000000000E+00 -0.00000000000E+00 -0.18168714727E+03  0.18168714727E+03  0.00000000000E+00 0. -1.
         25    2    1    2    0    0 -0.10524488579E+03 -0.51633465899E+02 -0.18543377432E+02  0.17243673320E+03  0.12509224327E+03 0.  0.
          5    1    3    3  502    0 -0.90031792305E+02 -0.44232312943E+02  0.42449616570E+02  0.10900304345E+03  0.41800000000E+01 0.  1.
         -5    1    3    3    0  502 -0.15213093484E+02 -0.74011529553E+01 -0.60992994002E+02  0.63433689754E+02  0.41800000000E+01 0.  1.
        -11    1    1    2    0    0  0.66906042107E+02 -0.95623957394E+01  0.14039079972E+02  0.69028643686E+02  0.00000000000E+00 0.  1.
         11    1    1    2    0    0  0.38338843682E+02  0.61195861638E+02 -0.36493642290E+02  0.80910977896E+02  0.00000000000E+00 0. -1.
</event>
<event>
 7    1  0.2530765E-009  0.1323900E+03  0.7561462E-02  0.1223952E+00
         -1   -1    0    0    0  501 -0.00000000000E+00  0.00000000000E+00  0.55918379325E+02  0.55918379325E+02  0.00000000000E+00 0.  1.
          1   -1    0    0  501    0  0.00000000000E+00 -0.00000000000E+00 -0.41514958586E+03  0.41514958586E+03  0.00000000000E+00 0. -1.
         25    2    1    2    0    0 -0.65198258035E+02  0.57490103182E+02 -0.29133763001E+03  0.32875755689E+03  0.12509193315E+03 0.  0.
          5    1    3    3  502    0  0.24623163913E+02 -0.13804562290E+02 -0.22127812070E+02  0.36110643973E+02  0.41800000000E+01 0.  1.
         -5    1    3    3    0  502 -0.89821421948E+02  0.71294665473E+02 -0.26920981794E+03  0.29264691292E+03  0.41800000000E+01 0.  1.
        -11    1    1    2    0    0  0.71987905375E+02 -0.90244682929E+01 -0.23572221436E+02  0.76284658823E+02  0.00000000000E+00 0.  1.
         11    1    1    2    0    0 -0.67896473400E+01 -0.48465634889E+02 -0.44321355091E+02  0.66025749472E+02  0.00000000000E+00 0. -1.
</event>
<event>
 7    1  0.2530765E-009  0.9736113E+02  0.7561462E-02  0.1285945E+00
          1   -1    0    0  501    0  0.00000000000E+00  0.00000000000E+00  0.11753105389E+03  0.11753105389E+03  0.00000000000E+00 0.  1.
         -1   -1    0    0    0  501 -0.00000000000E+00 -0.00000000000E+00 -0.10940738942E+03  0.10940738942E+03  0.00000000000E+00 0. -1.
         25    2    1    2    0    0  0.69374527985E+01 -0.16104287342E+01 -0.29037978906E+02  0.12861804886E+03  0.12509467032E+03 0.  0.
          5    1    3    3  502    0  0.28984878558E+02 -0.53047085895E+02 -0.38381826779E+02  0.71726937296E+02  0.41800000000E+01 0.  1.
         -5    1    3    3    0  502 -0.22047425759E+02  0.51436657161E+02  0.93438478726E+01  0.56891111569E+02  0.41800000000E+01 0.  1.
        -11    1    1    2    0    0 -0.42461094474E+02  0.29580200628E+00  0.45050257526E+02  0.61907654986E+02  0.00000000000E+00 0.  1.
         11    1    1    2    0    0  0.35523641675E+02  0.13146267279E+01 -0.78886141529E+01  0.36412739454E+02  0.00000000000E+00 0. -1.
</event>
<event>
 7    1  0.2530765E-009  0.2188652E+03  0.7561462E-02  0.1134732E+00
         -2   -1    0    0    0  501 -0.00000000000E+00  0.00000000000E+00  0.57033648447E+02  0.57033648447E+02  0.00000000000E+00 0. -1.
          2   -1    0    0  501    0  0.00000000000E+00 -0.00000000000E+00 -0.94558891133E+03  0.94558891133E+03  0.00000000000E+00 0.  1.
         25    2    1    2    0    0 -0.73862276600E+02 -0.18596943964E+03 -0.55760295408E+03  0.60548590944E+03  0.12510740887E+03 0.  0.
          5    1    3    3  502    0 -0.68420526407E+02 -0.51713172904E+02 -0.33147597685E+03  0.34241702107E+03  0.41800000000E+01 0.  1.
         -5    1    3    3    0  502 -0.54417501928E+01 -0.13425626673E+03 -0.22612697722E+03  0.26306888837E+03  0.41800000000E+01 0.  1.
        -11    1    1    2    0    0 -0.14169430622E+02  0.72221137986E+02 -0.87161914653E+02  0.11407832792E+03  0.00000000000E+00 0.  1.
         11    1    1    2    0    0  0.88031707222E+02  0.11374830165E+03 -0.24379039415E+03  0.28305832241E+03  0.00000000000E+00 0. -1.
</event>
<event>
 7    1  0.2530765E-009  0.1162497E+03  0.7561462E-02  0.1249415E+00
          1   -1    0    0  501    0  0.00000000000E+00  0.00000000000E+00  0.15834096921E+03  0.15834096921E+03  0.00000000000E+00 0. -1.
         -1   -1    0    0    0  501 -0.00000000000E+00 -0.00000000000E+00 -0.11438936358E+03  0.11438936358E+03  0.00000000000E+00 0.  1.
         25    2    1    2    0    0 -0.68319298160E+02  0.12974923248E+02 -0.17366178583E+02  0.14416694738E+03  0.12508656772E+03 0.  0.
          5    1    3    3  502    0 -0.60431746109E+02 -0.36501591412E+02 -0.47833058200E+02  0.85380536249E+02  0.41800000000E+01 0. -1.
         -5    1    3    3    0  502 -0.78875520509E+01  0.49476514660E+02  0.30466879618E+02  0.58786411133E+02  0.41800000000E+01 0. -1.
        -11    1    1    2    0    0  0.84319332525E+02  0.84708494077E+01  0.37229331027E+02  0.92560943253E+02  0.00000000000E+00 0.  1.
         11    1    1    2    0    0 -0.16000034366E+02 -0.21445772655E+02  0.24088453187E+02  0.36002442159E+02  0.00000000000E+00 0. -1.
</event>
<event>
 7    1  0.2530765E-009  0.7554519E+02  0.7561462E-02  0.1342191E+00
          2   -1    0    0  501    0  0.00000000000E+00  0.00000000000E+00  0.38376200837E+02  0.38376200837E+02  0.00000000000E+00 0. -1.
         -2   -1    0    0    0  501 -0.00000000000E+00 -0.00000000000E+00 -0.37169984844E+03  0.37169984844E+03  0.00000000000E+00 0.  1.
         25    2    1    2    0    0  0.21691560702E+02  0.26479894969E+02 -0.25140005331E+03  0.28287711887E+03  0.12508304814E+03 0.  0.
          5    1    3    3  502    0  0.17115045338E+02  0.38263848676E+02 -0.12971325809E+02  0.44076916698E+02  0.41800000000E+01 0.  1.
         -5    1    3    3    0  502  0.45765153648E+01 -0.11783953707E+02 -0.23842872751E+03  0.23880020217E+03  0.41800000000E+01 0.  1.
        -11    1    1    2    0    0 -0.47742456322E+02 -0.43454769860E+02 -0.43847364667E+02  0.78040057327E+02  0.00000000000E+00 0.  1.
         11    1    1    2    0    0  0.26050895619E+02  0.16974874892E+02 -0.38076229617E+02  0.49158873075E+02  0.00000000000E+00 0. -1.
</event>
<event>
 7    1  0.2530765E-009  0.1749077E+03  0.7561462E-02  0.1172824E+00
         -3   -1    0    0    0  501 -0.00000000000E+00  0.00000000000E+00  0.62642173240E+03  0.62642173240E+03  0.00000000000E+00 0.  1.
          3   -1    0    0  501    0  0.00000000000E+00 -0.00000000000E+00 -0.52518101586E+02  0.52518101586E+02  0.00000000000E+00 0. -1.
         25    2    1    2    0    0 -0.11803880949E+03  0.70332610023E+02  0.38128998223E+03  0.42415721356E+03  0.12508978652E+03 0.  0.
          5    1    3    3  502    0  0.95959686591E+01  0.53401444729E+02  0.14761941857E+03  0.15733010536E+03  0.41800000000E+01 0.  1.
         -5    1    3    3    0  502 -0.12763477814E+03  0.16931165294E+02  0.23367056366E+03  0.26682710820E+03  0.41800000000E+01 0.  1.
        -11    1    1    2    0    0  0.63981362985E+02 -0.88802952297E+02  0.13238953412E+03  0.17177475918E+03  0.00000000000E+00 0.  1.
         11    1    1    2    0    0  0.54057446501E+02  0.18470342274E+02  0.60224114471E+02  0.83007861252E+02  0.00000000000E+00 0. -1.
</event>
<event>
 7    1  0.2530765E-009  0.5092679E+02  0.7561462E-02  0.1440406E+00
         -1   -1    0    0    0  501 -0.00000000000E+00  0.00000000000E+00  0.42625909153E+02  0.42625909153E+02  0.00000000000E+00 0.  1.
          1   -1    0    0  501    0  0.00000000000E+00 -0.00000000000E+00 -0.33751326938E+03  0.33751326938E+03  0.00000000000E+00 0. -1.
         25    2    1    2    0    0  0.36402551312E+02  0.12530710662E+02 -0.21074315439E+03  0.24806957632E+03  0.12507467018E+03 0.  0.
          5    1    3    3  502    0  0.19849033824E+02 -0.12756744914E+02 -0.21581351222E+03  0.21713973184E+03  0.41800000000E+01 0.  1.
         -5    1    3    3    0  502  0.16553517489E+02  0.25287455576E+02  0.50703578365E+01  0.30929844476E+02  0.41800000000E+01 0.  1.
        -11    1    1    2    0    0 -0.13242213602E+02 -0.19158758636E+02 -0.10036217744E+03  0.10302902947E+03  0.00000000000E+00 0. -1.
         11    1    1    2    0    0 -0.23160337710E+02  0.66280479741E+01  0.16217971597E+02  0.29040572748E+02  0.00000000000E+00 0.  1.
</event>
<event>
 7    1  0.2530765E-009  0.6553408E+02  0.7561462E-02  0.1375974E+00
          2   -1    0    0  501    0  0.00000000000E+00  0.00000000000E+00  0.38316500754E+03  0.38316500754E+03  0.00000000000E+00 0. -1.
         -2   -1    0    0    0  501 -0.00000000000E+00 -0.00000000000E+00 -0.31159775623E+02  0.31159775623E+02  0.00000000000E+00 0.  1.
         25    2    1    2    0    0 -0.13607117391E+02  0.19390381020E+02  0.20784413130E+03  0.24374374755E+03  0.12510272193E+03 0.  0.
          5    1    3    3  502    0  0.23485581694E+02  0.21851195436E+02 -0.21269488231E+00  0.32350655767E+02  0.41800000000E+01 0. -1.
         -5    1    3    3    0  502 -0.37092699084E+02 -0.24608144154E+01  0.20805682618E+03  0.21139309178E+03  0.41800000000E+01 0. -1.
        -11    1    1    2    0    0  0.32743728606E+02 -0.25191650659E+02  0.14479593442E+03  0.15057434593E+03  0.00000000000E+00 0. -1.
         11    1    1    2    0    0 -0.19136611215E+02  0.58012696383E+01 -0.63483380588E+00  0.20006689686E+02  0.00000000000E+00 0.  1.
</event>
<event>
 7    1  0.2530765E-009  0.9530285E+02  0.7561462E-02  0.1290495E+00
         -1   -1    0    0    0  501 -0.00000000000E+00  0.00000000000E+00  0.84023280816E+02  0.84023280816E+02  0.00000000000E+00 0.  1.
          1   -1    0    0  501    0  0.00000000000E+00 -0.00000000000E+00 -0.24697602426E+03  0.24697602426E+03  0.00000000000E+00 0. -1.
         25    2    1    2    0    0  0.81616805876E+02  0.24079958434E+02 -0.48164036607E+02  0.15877023651E+03  0.12508823358E+03 0.  0.
          5    1    3    3  502    0  0.45933269493E+01  0.12318664949E+02 -0.74998344245E+02  0.76256620684E+02  0.41800000000E+01 0.  1.
         -5    1    3    3    0  502  0.77023478927E+02  0.11761293484E+02  0.26834307638E+02  0.82513615827E+02  0.41800000000E+01 0.  1.
        -11    1    1    2    0    0 -0.51250298454E+02 -0.39517460493E+02 -0.14511302935E+02  0.66323455039E+02  0.00000000000E+00 0.  1.
         11    1    1    2    0    0 -0.30366507422E+02  0.15437502059E+02 -0.10027740390E+03  0.10590561352E+03  0.00000000000E+00 0. -1.
</event>
<event>
 7    1  0.2530765E-009  0.1201676E+03  0.7561462E-02  0.1242821E+00
          2   -1    0    0  501    0  0.00000000000E+00  0.00000000000E+00  0.11602959460E+04  0.11602959460E+04  0.00000000000E+00 0. -1.
         -2   -1    0    0    0  501 -0.00000000000E+00 -0.00000000000E+00 -0.26635304701E+02  0.26635304701E+02  0.00000000000E+00 0.  1.
         25    2    1    2    0    0  0.56334457984E+02 -0.52021670204E+02  0.98760945629E+03  0.99845007748E+03  0.12510113401E+03 0.  0.
          5    1    3    3  502    0  0.55790528885E+02  0.30513126102E+02  0.46507069884E+03  0.46941651153E+03  0.41800000000E+01 0. -1.
         -5    1    3    3    0  502  0.54392909993E+00 -0.82534796306E+02  0.52253875745E+03  0.52903356595E+03  0.41800000000E+01 0. -1.
        -11    1    1    2    0    0 -0.11104018360E+02  0.47189355434E+02  0.16553177903E+02  0.51226381764E+02  0.00000000000E+00 0.  1.
         11    1    1    2    0    0 -0.45230439625E+02  0.48323147701E+01  0.12949800711E+03  0.13725479147E+03  0.00000000000E+00 0. -1.
</event>
<event>
 7    1  0.2530765E-009  0.8915989E+02  0.7561462E-02  0.1304899E+00
          4   -1    0    0  501    0  0.00000000000E+00  0.00000000000E+00  0.61162722874E+02  0.61162722874E+02  0.00000000000E+00 0. -1.
         -4   -1    0    0    0  501 -0.00000000000E+00 -0.00000000000E+00 -0.20052058882E+03  0.20052058882E+03  0.00000000000E+00 0.  1.
         25    2    1    2    0    0 -0.22978169860E+02 -0.13851348163E+01 -0.88156271644E+02  0.15475471628E+03  0.12509028376E+03 0.  0.
          5    1    3    3  502    0  0.32483901634E+02 -0.57241979365E+01 -0.92992114684E+02  0.98757157213E+02  0.41800000000E+01 0.  1.
         -5    1    3    3    0  502 -0.55462071494E+02  0.43390631202E+01  0.48358430398E+01  0.55997559063E+02  0.41800000000E+01 0.  1.
        -11    1    1    2    0    0 -0.31694330074E+02 -0.10396020967E+02 -0.35774612276E+02  0.48912479944E+02  0.00000000000E+00 0.  1.
         11    1    1    2    0    0  0.54672499934E+02  0.11781155784E+02 -0.15426982031E+02  0.58016115478E+02  0.00000000000E+00 0. -1.
</event>
<event>
 7    1  0.2530765E-009  0.1155513E+03  0.7561462E-02  0.1250622E+00
         -1   -1    0    0    0  501 -0.00000000000E+00  0.00000000000E+00  0.16158595705E+02  0.16158595705E+02  0.00000000000E+00 0.  1.
          1   -1    0    0  501    0  0.00000000000E+00 -0.00000000000E+00 -0.91331220273E+03  0.91331220273E+03  0.00000000000E+00 0. -1.
         25    2    1    2    0    0 -0.10549649318E+02  0.39503196351E+02 -0.56058028207E+03  0.57582048641E+03  0.12508869772E+03 0.  0.
          5    1    3    3  502    0  0.10173767738E+02  0.80953929026E+02 -0.29085686600E+03  0.30211294755E+03  0.41800000000E+01 0.  1.
         -5    1    3    3    0  502 -0.20723417056E+02 -0.41450732675E+02 -0.26972341607E+03  0.27370753886E+03  0.41800000000E+01 0.  1.
        -11    1    1    2    0    0 -0.41799321041E+02 -0.24356981066E+02 -0.10288044209E+03  0.11368742732E+03  0.00000000000E+00 0.  1.
         11    1    1    2    0    0  0.52348970359E+02 -0.15146215285E+02 -0.23369288285E+03  0.23996288470E+03  0.00000000000E+00 0. -1.
</event>
<event>
 7    1  0.2530765E-009  0.1286395E+03  0.7561462E-02  0.1229489E+00
         -1   -1    0    0    0  501 -0.00000000000E+00  0.00000000000E+00  0.40629091501E+02  0.40629091501E+02  0.00000000000E+00 0.  1.
          1   -1    0    0  501    0  0.00000000000E+00 -0.00000000000E+00 -0.60427094874E+03  0.60427094874E+03  0.00000000000E+00 0. -1.
         25    2    1    2    0    0 -0.88018344372E+02  0.56209338145E+02 -0.39370225501E+03  0.42609410577E+03  0.12509197710E+03 0.  0.
          5    1    3    3  502    0  0.14957282313E+02  0.43547265721E+02 -0.21044763055E+03  0.21546638311E+03  0.41800000000E+01 0.  1.
         -5    1    3    3    0  502 -0.10297562669E+03  0.12662072424E+02 -0.18325462446E+03  0.21062772267E+03  0.41800000000E+01 0.  1.
        -11    1    1    2    0    0  0.62638931116E+02 -0.26173700322E+02 -0.16592902540E+03  0.17927950176E+03  0.00000000000E+00 0.  1.
         11    1    1    2    0    0  0.25379413256E+02 -0.30035637823E+02 -0.40105768337E+01  0.39526432715E+02  0.00000000000E+00 0. -1.
</event>
<event>
 7    1  0.2530765E-009  0.1709281E+03  0.7561462E-02  0.1176883E+00
         -2   -1    0    0    0  501 -0.00000000000E+00  0.00000000000E+00  0.62663505911E+02  0.62663505911E+02  0.00000000000E+00 0.  1.
          2   -1    0    0  501    0  0.00000000000E+00 -0.00000000000E+00 -0.72621801375E+03  0.72621801375E+03  0.00000000000E+00 0. -1.
         25    2    1    2    0    0 -0.13633487875E+03 -0.90498839740E+02 -0.19272804212E+03  0.28207718153E+03  0.12508476711E+03 0.  0.
          5    1    3    3  502    0 -0.26722353212E+02 -0.16789613674E+02  0.15534047687E+02  0.35422511572E+02  0.41800000000E+01 0. -1.
         -5    1    3    3    0  502 -0.10961252553E+03 -0.73709226066E+02 -0.20826208981E+03  0.24665466996E+03  0.41800000000E+01 0. -1.
        -11    1    1    2    0    0  0.35164302938E+02 -0.86475467142E+01 -0.43435165836E+02  0.56550171499E+02  0.00000000000E+00 0.  1.
         11    1    1    2    0    0  0.10117057581E+03  0.99146386454E+02 -0.42739129988E+03  0.45025416664E+03  0.00000000000E+00 0. -1.
</event>
<event>
 7    1  0.2530765E-009  0.1693565E+03  0.7561462E-02  0.1178521E+00
          1   -1    0    0  501    0  0.00000000000E+00  0.00000000000E+00  0.17358942485E+04  0.17358942485E+04  0.00000000000E+00 0. -1.
         -1   -1    0    0    0  501 -0.00000000000E+00 -0.00000000000E+00 -0.18158607901E+02  0.18158607901E+02  0.00000000000E+00 0.  1.
         25    2    1    2    0    0 -0.46276693127E+02 -0.13178691637E+03  0.94540638341E+03  0.96382057770E+03  0.12509017766E+03 0.  0.
          5    1    3    3  502    0 -0.85961633335E+02 -0.10601443617E+03  0.61210960919E+03  0.62715557013E+03  0.41800000000E+01 0. -1.
         -5    1    3    3    0  502  0.39684940207E+02 -0.25772480202E+02  0.33329677422E+03  0.33666500757E+03  0.41800000000E+01 0. -1.
        -11    1    1    2    0    0  0.17931528409E+02 -0.18709749729E+01  0.26886766179E+02  0.32371877517E+02  0.00000000000E+00 0.  1.
         11    1    1    2    0    0  0.28345164719E+02  0.13365789135E+03  0.74544249102E+03  0.75786040119E+03  0.00000000000E+00 0. -1.
</event>
<event>
 7    1  0.2530765E-009  0.9878042E+02  0.7561462E-02  0.1282882E+00
         -2   -1    0    0    0  501 -0.00000000000E+00  0.00000000000E+00  0.46928990320E+02  0.46928990320E+02  0.00000000000E+00 0.  1.
          2   -1    0    0  501    0  0.00000000000E+00 -0.00000000000E+00 -0.39133060886E+03  0.39133060886E+03  0.00000000000E+00 0. -1.
         25    2    1    2    0    0  0.16009275475E+02 -0.74782014679E+02 -0.23805992140E+03  0.27958630595E+03  0.12508928683E+03 0.  0.
          5    1    3    3  502    0  0.30467289768E+02 -0.92017289725E+02 -0.98845288182E+02  0.13850379327E+03  0.41800000000E+01 0.  1.
         -5    1    3    3    0  502 -0.14458014293E+02  0.17235275046E+02 -0.13921463322E+03  0.14108251268E+03  0.41800000000E+01 0.  1.
        -11    1    1    2    0    0 -0.60073106978E+01  0.56513576915E+02 -0.71047406840E+01  0.57274335420E+02  0.00000000000E+00 0.  1.
         11    1    1    2    0    0 -0.10001964777E+02  0.18268437764E+02 -0.99236956461E+02  0.10139895781E+03  0.00000000000E+00 0. -1.
</event>
<event>
 7    1  0.2530765E-009  0.1315832E+03  0.7561462E-02  0.1225125E+00
          2   -1    0    0  501    0  0.00000000000E+00  0.00000000000E+00  0.12392080342E+03  0.12392080342E+03  0.00000000000E+00 0. -1.
         -2   -1    0    0    0  501 -0.00000000000E+00 -0.00000000000E+00 -0.22548555676E+03  0.22548555676E+03  0.00000000000E+00 0.  1.
         25    2    1    2    0    0 -0.95039328002E+02 -0.10397722395E+02  0.33787082089E+02  0.16102815084E+03  0.12509161422E+03 0.  0.
          5    1    3    3  502    0 -0.83037775545E+01  0.37904516525E+02  0.46661394308E+02  0.60831432774E+02  0.41800000000E+01 0. -1.
         -5    1    3    3    0  502 -0.86735550448E+02 -0.48302238920E+02 -0.12874312218E+02  0.10019671807E+03  0.41800000000E+01 0. -1.
        -11    1    1    2    0    0  0.63193623481E+02 -0.32725769491E+02 -0.47832930794E+02  0.85746132891E+02  0.00000000000E+00 0. -1.
         11    1    1    2    0    0  0.31845704522E+02  0.43123491886E+02 -0.87518904628E+02  0.10263207645E+03  0.00000000000E+00 0.  1.
</event>
<event>
 7    1  0.2530765E-009  0.9381941E+02  0.7561462E-02  0.1293857E+00
         -2   -1    0    0    0  501 -0.00000000000E+00  0.00000000000E+00  0.94825420379E+01  0.94825420379E+01  0.00000000000E+00 0.  1.
          2   -1    0    0  501    0  0.00000000000E+00 -0.00000000000E+00 -0.13970500798E+04  0.13970500798E+04  0.00000000000E+00 0. -1.
         25    2    1    2    0    0  0.25000763089E+02  0.19559295319E+02 -0.96321945954E+03  0.97182676046E+03  0.12509165014E+03 0.  0.
          5    1    3    3  502    0  0.11926027004E+02  0.54598010181E+02 -0.86230424121E+03  0.86412339954E+03  0.41800000000E+01 0.  1.
         -5    1    3    3    0  502  0.13074736084E+02 -0.35038714861E+02 -0.10091521833E+03  0.10770336092E+03  0.41800000000E+01 0.  1.
        -11    1    1    2    0    0  0.30301206033E+02  0.91543743512E+01 -0.12546819927E+03  0.12939951578E+03  0.00000000000E+00 0.  1.
         11    1    1    2    0    0 -0.55301969122E+02 -0.28713669671E+02 -0.29887987900E+03  0.30530634564E+03  0.00000000000E+00 0. -1.
</event>
<event>
 7    1  0.2530765E-009  0.1161537E+03  0.7561462E-02  0.1249581E+00
          3   -1    0    0  501    0  0.00000000000E+00  0.00000000000E+00  0.43809493823E+03  0.43809493823E+03  0.00000000000E+00 0. -1.
         -3   -1    0    0    0  501 -0.00000000000E+00 -0.00000000000E+00 -0.45975090293E+02  0.45975090293E+02  0.00000000000E+00 0.  1.
         25    2    1    2    0    0 -0.25921319946E+02  0.77662171068E+02  0.14390439675E+03  0.20751061315E+03  0.12509536971E+03 0.  0.
          5    1    3    3  502    0 -0.37149463296E+02  0.87408213289E+02  0.41131191300E+02  0.10358342373E+03  0.41800000000E+01 0. -1.
         -5    1    3    3    0  502  0.11228143350E+02 -0.97460422212E+01  0.10277320545E+03  0.10392718942E+03  0.41800000000E+01 0. -1.
        -11    1    1    2    0    0 -0.19372612989E+02 -0.73842304120E+02  0.16242830463E+03  0.17947405984E+03  0.00000000000E+00 0. -1.
         11    1    1    2    0    0  0.45293932935E+02 -0.38198669480E+01  0.85787146557E+02  0.97085355531E+02  0.00000000000E+00 0.  1.
</event>
<event>
 7    1  0.2530765E-009  0.6709029E+02  0.7561462E-02  0.1370277E+00
          1   -1    0    0  501    0  0.00000000000E+00  0.00000000000E+00  0.49042015760E+03  0.49042015760E+03  0.00000000000E+00 0. -1.
         -1   -1    0    0    0  501 -0.00000000000E+00 -0.00000000000E+00 -0.26808200795E+02  0.26808200795E+02  0.00000000000E+00 0.  1.
         25    2    1    2    0    0 -0.13616698294E+02 -0.37233337795E+02  0.24586371707E+03  0.27869119804E+03  0.12509228823E+03 0.  0.
          5    1    3    3  502    0  0.15768588889E+00 -0.19569398401E+02  0.25378080819E+03  0.25456857077E+03  0.41800000000E+01 0.  1.
         -5    1    3    3    0  502 -0.13774384183E+02 -0.17663939394E+02 -0.79170911180E+01  0.24122627268E+02  0.41800000000E+01 0.  1.
        -11    1    1    2    0    0 -0.28272385777E+02  0.40471420888E+02  0.75451787556E+02  0.90167821043E+02  0.00000000000E+00 0. -1.
         11    1    1    2    0    0  0.41889084071E+02 -0.32380830935E+01  0.14229645218E+03  0.14836933932E+03  0.00000000000E+00 0.  1.
</event>
<event>
 7    1  0.2530765E-009  0.1007123E+03  0.7561462E-02  0.1278805E+00
          2   -1    0    0  501    0  0.00000000000E+00  0.00000000000E+00  0.11565854086E+04  0.11565854086E+04  0.00000000000E+00 0. -1.
         -2   -1    0    0    0  501 -0.00000000000E+00 -0.00000000000E+00 -0.17978758434E+02  0.17978758434E+02  0.00000000000E+00 0.  1.
         25    2    1    2    0    0  0.15609948975E+02 -0.31858601298E+02  0.10194718371E+04  0.10277299866E+04  0.12508979846E+03 0.  0.
          5    1    3    3  502    0 -0.50344427314E+02 -0.37292694618E+02  0.55711110649E+03  0.56063853222E+03  0.41800000000E+01 0. -1.
         -5    1    3    3    0  502  0.65954376289E+02  0.54340933206E+01  0.46236073061E+03  0.46709145435E+03  0.41800000000E+01 0. -1.
        -11    1    1    2    0    0  0.24460607781E+02  0.15999208961E+02  0.12441308505E+02  0.31766053858E+02  0.00000000000E+00 0.  1.
         11    1    1    2    0    0 -0.40070556755E+02  0.15859392336E+02  0.10669350454E+03  0.11506812658E+03  0.00000000000E+00 0. -1.
</event>
<event>
 7    1  0.2530765E-009  0.7823396E+02  0.7561462E-02  0.1334139E+00
         -2   -1    0    0    0  501 -0.00000000000E+00  0.00000000000E+00  0.12681807174E+03  0.12681807174E+03  0.00000000000E+00 0.  1.
          2   -1    0    0  501    0  0.00000000000E+00 -0.00000000000E+00 -0.11978374946E+03  0.11978374946E+03  0.00000000000E+00 0. -1.
         25    2    1    2    0    0  0.24740231701E+01 -0.57599836180E+02  0.19688307528E+02  0.13913831236E+03  0.12509188061E+03 0.  0.
          5    1    3    3  502    0  0.32286549262E+02 -0.42247403803E+02 -0.42608794807E+02  0.68265995827E+02  0.41800000000E+01 0. -1.
         -5    1    3    3    0  502 -0.29812526092E+02 -0.15352432377E+02  0.62297102335E+02  0.70872316536E+02  0.41800000000E+01 0. -1.
        -11    1    1    2    0    0 -0.16774519807E+02  0.97594890762E+01  0.33986298300E+02  0.39136946916E+02  0.00000000000E+00 0.  1.
         11    1    1    2    0    0  0.14300496637E+02  0.47840347104E+02 -0.46640283543E+02  0.68326561922E+02  0.00000000000E+00 0. -1.
</event>
<event>
 7    1  0.2530765E-009  0.8891412E+02  0.7561462E-02  0.1305503E+00
          1   -1    0    0  501    0  0.00000000000E+00  0.00000000000E+00  0.10097542372E+04  0.10097542372E+04  0.00000000000E+00 0. -1.
         -1   -1    0    0    0  501 -0.00000000000E+00 -0.00000000000E+00 -0.19928860158E+02  0.19928860158E+02  0.00000000000E+00 0.  1.
         25    2    1    2    0    0  0.40414680975E+02  0.48136780444E+02  0.72921431119E+03  0.74253066928E+03  0.12509111517E+03 0.  0.
          5    1    3    3  502    0  0.24407610553E+01  0.23604631112E+02  0.18528098521E+02  0.30395702974E+02  0.41800000000E+01 0. -1.
         -5    1    3    3    0  502  0.37973919920E+02  0.24532149332E+02  0.71068621267E+03  0.71213496630E+03  0.41800000000E+01 0. -1.
        -11    1    1    2    0    0  0.28316759037E+02 -0.14143620017E+02  0.14506852351E+03  0.14848150505E+03  0.00000000000E+00 0. -1.
         11    1    1    2    0    0 -0.68731440012E+02 -0.33993160427E+02  0.11554254230E+03  0.13867092299E+03  0.00000000000E+00 0.  1.
</event>
<event>
 7    1  0.2530765E-009  0.1053502E+03  0.7561462E-02  0.1269431E+00
         -2   -1    0    0    0  501 -0.00000000000E+00  0.00000000000E+00  0.33021396250E+02  0.33021396250E+02  0.00000000000E+00 0.  1.
          2   -1    0    0  501    0  0.00000000000E+00 -0.00000000000E+00 -0.41267957700E+03  0.41267957700E+03  0.00000000000E+00 0. -1.
         25    2    1    2    0    0  0.11760380705E+02  0.31783059926E+02 -0.28023611776E+03  0.30875285449E+03  0.12509026342E+03 0.  0.
          5    1    3    3  502    0 -0.23423896366E+02 -0.37253862845E+02 -0.55227866248E+02  0.70739796636E+02  0.41800000000E+01 0.  1.
         -5    1    3    3    0  502  0.35184277071E+02  0.69036922771E+02 -0.22500825151E+03  0.23801305785E+03  0.41800000000E+01 0.  1.
        -11    1    1    2    0    0  0.22313194835E+02 -0.46658103270E+02 -0.34615279726E+02  0.62234032932E+02  0.00000000000E+00 0.  1.
         11    1    1    2    0    0 -0.34073575540E+02  0.14875043344E+02 -0.64806783268E+02  0.74714085835E+02  0.00000000000E+00 0. -1.
</event>
<event>
 7    1  0.2530765E-009  0.9227030E+02  0.7561462E-02  0.1297445E+00
         -1   -1    0    0    0  501 -0.00000000000E+00  0.00000000000E+00  0.57200211610E+02  0.57200211610E+02  0.00000000000E+00 0.  1.
          1   -1    0    0  501    0  0.00000000000E+00 -0.00000000000E+00 -0.26777072804E+03  0.26777072804E+03  0.00000000000E+00 0. -1.
         25    2    1    2    0    0 -0.44884531812E+02  0.38574963146E+02 -0.10339600791E+03  0.17274164965E+03  0.12508514737E+03 0.  0.
          5    1    3    3  502    0  0.14146582112E+02  0.15088206748E+02  0.23001369161E+02  0.31214021715E+02  0.41800000000E+01 0.  1.
         -5    1    3    3    0  502 -0.59031113925E+02  0.23486756398E+02 -0.12639737708E+03  0.14152762793E+03  0.41800000000E+01 0.  1.
        -11    1    1    2    0    0 -0.23200590050E+02 -0.44945085436E+01 -0.55190385425E+02  0.60037043807E+02  0.00000000000E+00 0.  1.
         11    1    1    2    0    0  0.68085121862E+02 -0.34080454603E+02 -0.51984123095E+02  0.92192246197E+02  0.00000000000E+00 0. -1.
</event>
<event>
 7    1  0.2530765E-009  0.8756610E+02  0.7561462E-02  0.1308855E+00
         -3   -1    0    0    0  501 -0.00000000000E+00  0.00000000000E+00  0.17084262313E+03  0.17084262313E+03  0.00000000000E+00 0.  1.
          3   -1    0    0  501    0  0.00000000000E+00 -0.00000000000E+00 -0.94427692860E+02  0.94427692860E+02  0.00000000000E+00 0. -1.
         25    2    1    2    0    0  0.55847058703E+01  0.33308002419E+02 -0.14520694606E+02  0.13037958093E+03  0.12508945834E+03 0.  0.
          5    1    3    3  502    0  0.49686359456E+02  0.18344509542E+02 -0.49006386165E+02  0.72279690310E+02  0.41800000000E+01 0. -1.
         -5    1    3    3    0  502 -0.44101653585E+02  0.14963492877E+02  0.34485691560E+02  0.58099890623E+02  0.41800000000E+01 0. -1.
        -11    1    1    2    0    0  0.29220182596E+02 -0.35171281578E+01  0.83426853931E+02  0.88465977744E+02  0.00000000000E+00 0.  1.
         11    1    1    2    0    0 -0.34804888466E+02 -0.29790874261E+02  0.75087709442E+01  0.46424757312E+02  0.00000000000E+00 0. -1.
</event>
<event>
 7    1  0.2530765E-009  0.7522929E+02  0.7561462E-02  0.1343162E+00
          1   -1    0    0  501    0  0.00000000000E+00  0.00000000000E+00  0.38492898720E+02  0.38492898720E+02  0.00000000000E+00 0. -1.
         -1   -1    0    0    0  501 -0.00000000000E+00 -0.00000000000E+00 -0.35750514760E+03  0.35750514760E+03  0.00000000000E+00 0.  1.
         25    2    1    2    0    0 -0.28089263610E+02 -0.10279897986E+02 -0.12589464332E+03  0.17997173372E+03  0.12508269540E+03 0.  0.
          5    1    3    3  502    0 -0.40571357162E+02  0.54121015935E+01 -0.14574972589E+03  0.15144563666E+03  0.41800000000E+01 0. -1.
         -5    1    3    3    0  502  0.12482093552E+02 -0.15691999579E+02  0.19855082566E+02  0.28526097068E+02  0.41800000000E+01 0. -1.
        -11    1    1    2    0    0 -0.29624993987E+02 -0.24677460379E+01 -0.28753714662E+02  0.41358265753E+02  0.00000000000E+00 0.  1.
         11    1    1    2    0    0  0.57714257597E+02  0.12747644024E+02 -0.16436389090E+03  0.17466804685E+03  0.00000000000E+00 0. -1.
</event>
<event>
 7    1  0.2530765E-009  0.1159072E+03  0.7561462E-02  0.1250006E+00
         -2   -1    0    0    0  501 -0.00000000000E+00  0.00000000000E+00  0.61808974195E+02  0.61808974195E+02  0.00000000000E+00 0. -1.
          2   -1    0    0  501    0  0.00000000000E+00 -0.00000000000E+00 -0.34335557218E+03  0.34335557218E+03  0.00000000000E+00 0.  1.
         25    2    1    2    0    0 -0.84859361951E+02 -0.38864870580E+02 -0.11928929987E+03  0.19644073421E+03  0.12508970987E+03 0.  0.
          5    1    3    3  502    0 -0.10336229465E+03 -0.27926154062E+02 -0.40308923424E+02  0.11448107155E+03  0.41800000000E+01 0. -1.
         -5    1    3    3    0  502  0.18502932701E+02 -0.10938716517E+02 -0.78980376451E+02  0.81959662651E+02  0.41800000000E+01 0. -1.
        -11    1    1    2    0    0  0.51170253661E+02 -0.21511116308E+00 -0.15971439964E+02  0.53605298498E+02  0.00000000000E+00 0. -1.
         11    1    1    2    0    0  0.33689108290E+02  0.39079981743E+02 -0.14628585815E+03  0.15511851368E+03  0.00000000000E+00 0.  1.
</event>
<event>
 7    1  0.2530765E-009  0.1383559E+03  0.7561462E-02  0.1215558E+00
          3   -1    0    0  501    0  0.00000000000E+00  0.00000000000E+00  0.20108095774E+03  0.20108095774E+03  0.00000000000E+00 0. -1.
         -3   -1    0    0    0  501 -0.00000000000E+00 -0.00000000000E+00 -0.16324603679E+03  0.16324603679E+03  0.00000000000E+00 0.  1.
         25    2    1    2    0    0  0.44075178723E+02 -0.13060949824E+03  0.76338499292E+02  0.20118764168E+03  0.12508972093E+03 0.  0.
          5    1    3    3  502    0  0.11547457979E+02 -0.20200782691E+02 -0.34182724737E+02  0.41561357985E+02  0.41800000000E+01 0. -1.
         -5    1    3    3    0  502  0.32527720744E+02 -0.11040871555E+03  0.11052122403E+03  0.15962628370E+03  0.41800000000E+01 0. -1.
        -11    1    1    2    0    0 -0.35922159486E+02  0.11061630444E+03  0.30150155082E+01  0.11634199014E+03  0.00000000000E+00 0. -1.
         11    1    1    2    0    0 -0.81530192368E+01  0.19993193797E+02 -0.41518593859E+02  0.46797362714E+02  0.00000000000E+00 0.  1.
</event>
<event>
 7    1  0.2530765E-009  0.9360383E+02  0.7561462E-02  0.1294352E+00
          2   -1    0    0  501    0  0.00000000000E+00  0.00000000000E+00  0.48163030655E+03  0.48163030655E+03  0.00000000000E+00 0.  1.
         -2   -1    0    0    0  501 -0.00000000000E+00 -0.00000000000E+00 -0.29210858515E+02  0.29210858515E+02  0.00000000000E+00 0. -1.
         25    2    1    2    0    0 -0.31370826134E+01 -0.50131324071E+02  0.23607673432E+03  0.27185233765E+03  0.12509387699E+03 0.  0.
          5    1    3    3  502    0 -0.13532455990E+02  0.15258646684E+02  0.18986071487E+03  0.19099873589E+03  0.41800000000E+01 0. -1.
         -5    1    3    3    0  502  0.10395373376E+02 -0.65389970755E+02  0.46216019449E+02  0.80853601755E+02  0.41800000000E+01 0. -1.
        -11    1    1    2    0    0 -0.23634064598E+02 -0.16107879541E+02  0.44656147791E+02  0.53030220896E+02  0.00000000000E+00 0. -1.
         11    1    1    2    0    0  0.26771147211E+02  0.66239203612E+02  0.17168656593E+03  0.18595860652E+03  0.00000000000E+00 0.  1.
</event>
<event>
 7    1  0.2530765E-009  0.1018687E+03  0.7561462E-02  0.1276415E+00
          3   -1    0    0  501    0  0.00000000000E+00  0.00000000000E+00  0.38564359371E+02  0.38564359371E+02  0.00000000000E+00 0. -1.
         -3   -1    0    0    0  501 -0.00000000000E+00 -0.00000000000E+00 -0.37638995416E+03  0.37638995416E+03  0.00000000000E+00 0.  1.
         25    2    1    2    0    0  0.21047971659E+02  0.22595831955E+02 -0.12025327883E+03  0.17624355553E+03  0.12508937231E+03 0.  0.
          5    1    3    3  502    0  0.68120889838E+02  0.12874959236E+02 -0.33805103884E+02  0.77242978039E+02  0.41800000000E+01 0.  1.
         -5    1    3    3    0  502 -0.47072918180E+02  0.97208727191E+01 -0.86448174948E+02  0.99000577494E+02  0.41800000000E+01 0.  1.
        -11    1    1    2    0    0 -0.12227362216E+02 -0.52993324203E+02 -0.18683852823E+03  0.19459300200E+03  0.00000000000E+00 0.  1.
         11    1    1    2    0    0 -0.88206094429E+01  0.30397492248E+02 -0.30733787722E+02  0.44117755991E+02  0.00000000000E+00 0. -1.
</event>
<event>
 7    1  0.2530765E-009  0.1454967E+03  0.7561462E-02  0.1206118E+00
          1   -1    0    0  501    0  0.00000000000E+00  0.00000000000E+00  0.29264688416E+03  0.29264688416E+03  0.00000000000E+00 0. -1.
         -1   -1    0    0    0  501 -0.00000000000E+00 -0.00000000000E+00 -0.17203996018E+03  0.17203996018E+03  0.00000000000E+00 0.  1.
         25    2    1    2    0    0 -0.11952889393E+03 -0.71384827565E+02  0.20543664529E+03  0.27791379290E+03  0.12509560730E+03 0.  0.
          5    1    3    3  502    0  0.62858485330E+01 -0.64996860967E+01 -0.13735109782E+02  0.16967128569E+02  0.41800000000E+01 0.  1.
         -5    1    3    3    0  502 -0.12581474246E+03 -0.64885141469E+02  0.21917175507E+03  0.26094666433E+03  0.41800000000E+01 0.  1.
        -11    1    1    2    0    0  0.80179627860E+02  0.43891581372E+02 -0.24640487055E+01  0.91440227335E+02  0.00000000000E+00 0.  1.
         11    1    1    2    0    0  0.39349266071E+02  0.27493246194E+02 -0.82365672607E+02  0.95332824099E+02  0.00000000000E+00 0. -1.
</event>
<event>
 7    1  0.2530765E-009  0.1385256E+03  0.7561462E-02  0.1215327E+00
          1   -1    0    0  501    0  0.00000000000E+00  0.00000000000E+00  0.19741225192E+03  0.19741225192E+03  0.00000000000E+00 0. -1.
         -1   -1    0    0    0  501 -0.00000000000E+00 -0.00000000000E+00 -0.19735785558E+03  0.19735785558E+03  0.00000000000E+00 0.  1.
         25    2    1    2    0    0 -0.13005305585E+03 -0.39642988517E+02 -0.94252140296E+02  0.20740119620E+03  0.12508567607E+03 0.  0.
          5    1    3    3  502    0 -0.83139905322E+02 -0.22969359316E+02 -0.12259693618E+03  0.14995771565E+03  0.41800000000E+01 0.  1.
         -5    1    3    3    0  502 -0.46913150530E+02 -0.16673629200E+02  0.28344795881E+02  0.57443480543E+02  0.41800000000E+01 0.  1.
        -11    1    1    2    0    0  0.10593294470E+03  0.16324600935E+02  0.10704562022E+03  0.15148282469E+03  0.00000000000E+00 0. -1.
         11    1    1    2    0    0  0.24120111153E+02  0.23318387582E+02 -0.12739083592E+02  0.35886086611E+02  0.00000000000E+00 0.  1.
</event>
<event>
 7    1  0.2530765E-009  0.1446601E+03  0.7561462E-02  0.1207192E+00
         -1   -1    0    0    0  501 -0.00000000000E+00  0.00000000000E+00  0.59856242713E+03  0.59856242713E+03  0.00000000000E+00 0.  1.
          1   -1    0    0  501    0  0.00000000000E+00 -0.00000000000E+00 -0.39420886927E+02  0.39420886927E+02  0.00000000000E+00 0. -1.
         25    2    1    2    0    0 -0.79022337169E+02 -0.73534370104E+02  0.29685002399E+03  0.33973404222E+03  0.12508976513E+03 0.  0.
          5    1    3    3  502    0  0.12938819136E+02 -0.62178814923E+02  0.69764797637E+02  0.94436314282E+02  0.41800000000E+01 0. -1.
         -5    1    3    3    0  502 -0.91961156305E+02 -0.11355555181E+02  0.22708522635E+03  0.24529772794E+03  0.41800000000E+01 0. -1.
        -11    1    1    2    0    0 -0.87329046789E+01 -0.89344914734E+01  0.71842915438E+02  0.72921144126E+02  0.00000000000E+00 0.  1.
         11    1    1    2    0    0  0.87755241848E+02  0.82468861578E+02  0.19044860077E+03  0.22532812771E+03  0.00000000000E+00 0. -1.
</event>
<event>
 7    1  0.2530765E-009  0.2065545E+03  0.7561462E-02  0.1144324E+00
          4   -1    0    0  501    0  0.00000000000E+00  0.00000000000E+00  0.11970418941E+03  0.11970418941E+03  0.00000000000E+00 0. -1.
         -4   -1    0    0    0  501 -0.00000000000E+00 -0.00000000000E+00 -0.38057009127E+03  0.38057009127E+03  0.00000000000E+00 0.  1.
         25    2    1    2    0    0  0.89336874060E+02 -0.15761824594E+03 -0.10182191375E+03  0.24256863458E+03  0.12508897571E+03 0.  0.
          5    1    3    3  502    0  0.11921041642E+03 -0.10497355792E+03 -0.65603920867E+02  0.17190671330E+03  0.41800000000E+01 0. -1.
         -5    1    3    3    0  502 -0.29873542364E+02 -0.52644688020E+02 -0.36217992888E+02  0.70661921280E+02  0.41800000000E+01 0. -1.
        -11    1    1    2    0    0 -0.82729036177E+02  0.78178084474E+02 -0.54393579544E+02  0.12615295405E+03  0.00000000000E+00 0. -1.
         11    1    1    2    0    0 -0.66078378836E+01  0.79440161462E+02 -0.10465040856E+03  0.13155269205E+03  0.00000000000E+00 0.  1.
</event>
<event>
 7    1  0.2530765E-009  0.1236240E+03  0.7561462E-02  0.1237235E+00
          1   -1    0    0  501    0  0.00000000000E+00  0.00000000000E+00  0.27142738528E+03  0.27142738528E+03  0.00000000000E+00 0. -1.
         -1   -1    0    0    0  501 -0.00000000000E+00 -0.00000000000E+00 -0.76482615789E+02  0.76482615789E+02  0.00000000000E+00 0.  1.
         25    2    1    2    0    0 -0.71959961318E+02 -0.44992154562E+02  0.14911092001E+03  0.21233293998E+03  0.12509468786E+03 0.  0.
          5    1    3    3  502    0  0.13895716632E+02  0.32316056458E+02  0.38827357789E+02  0.52559057817E+02  0.41800000000E+01 0.  1.
         -5    1    3    3    0  502 -0.85855677949E+02 -0.77308211020E+02  0.11028356222E+03  0.15977388217E+03  0.41800000000E+01 0.  1.
        -11    1    1    2    0    0 -0.38981861930E+01  0.13549596441E+02 -0.23964634625E+02  0.27804516397E+02  0.00000000000E+00 0.  1.
         11    1    1    2    0    0  0.75858147510E+02  0.31442558120E+02  0.69798484109E+02  0.10777254469E+03  0.00000000000E+00 0. -1.
</event>
<event>
 7    1  0.2530765E-009  0.1225070E+03  0.7561462E-02  0.1239018E+00
         -1   -1    0    0    0  501 -0.00000000000E+00  0.00000000000E+00  0.11205140699E+03  0.11205140699E+03  0.00000000000E+00 0.  1.
          1   -1    0    0  501    0  0.00000000000E+00 -0.00000000000E+00 -0.17413000253E+03  0.17413000253E+03  0.00000000000E+00 0. -1.
         25    2    1    2    0    0 -0.67694646115E+02  0.35521478996E+02 -0.77882359732E+02  0.16600328790E+03  0.12508832501E+03 0.  0.
          5    1    3    3  502    0 -0.10363543169E+03  0.34032603115E+02 -0.67445814651E+02  0.12831574763E+03  0.41800000000E+01 0. -1.
         -5    1    3    3    0  502  0.35940785571E+02  0.14888758812E+01 -0.10436545081E+02  0.37687540276E+02  0.41800000000E+01 0. -1.
        -11    1    1    2    0    0 -0.12312726458E+02 -0.55483826616E+00  0.29337009553E+02  0.31820924057E+02  0.00000000000E+00 0.  1.
         11    1    1    2    0    0  0.80007372573E+02 -0.34966640730E+02 -0.13533245362E+02  0.88357197556E+02  0.00000000000E+00 0. -1.
</event>
<event>
 7    1  0.2530765E-009  0.1130276E+03  0.7561462E-02  0.1255064E+00
          1   -1    0    0  501    0  0.00000000000E+00  0.00000000000E+00  0.21477599324E+03  0.21477599324E+03  0.00000000000E+00 0. -1.
         -1   -1    0    0    0  501 -0.00000000000E+00 -0.00000000000E+00 -0.77305873207E+02  0.77305873207E+02  0.00000000000E+00 0.  1.
         25    2    1    2    0    0 -0.59703394073E+02  0.30353599187E+02  0.97569873956E+02  0.17220893261E+03  0.12510075906E+03 0.  0.
          5    1    3    3  502    0  0.11047910378E+02  0.57899428418E+02  0.17146163169E+02  0.61529370599E+02  0.41800000000E+01 0.  1.
         -5    1    3    3    0  502 -0.70751304450E+02 -0.27545829232E+02  0.80423710787E+02  0.11067956201E+03  0.41800000000E+01 0.  1.
        -11    1    1    2    0    0  0.53148307703E+02  0.64524329107E+01  0.57488008314E+02  0.78557288663E+02  0.00000000000E+00 0. -1.
         11    1    1    2    0    0  0.65550863702E+01 -0.36806032097E+02 -0.17587762236E+02  0.41315645179E+02  0.00000000000E+00 0.  1.
</event>
<event>
 7    1  0.2530765E-009  0.1225854E+03  0.7561462E-02  0.1238892E+00
         -3   -1    0    0    0  501 -0.00000000000E+00  0.00000000000E+00  0.27304457310E+03  0.27304457310E+03  0.00000000000E+00 0.  1.
          3   -1    0    0  501    0  0.00000000000E+00 -0.00000000000E+00 -0.68082249296E+02  0.68082249296E+02  0.00000000000E+00 0. -1.
         25    2    1    2    0    0  0.19627147772E+02  0.72930090585E+02  0.12164701752E+03  0.19013452177E+03  0.12509642862E+03 0.  0.
          5    1    3    3  502    0  0.47310348081E+02  0.73525108655E+01  0.10706162939E+03  0.11735413644E+03  0.41800000000E+01 0.  1.
         -5    1    3    3    0  502 -0.27683200308E+02  0.65577579720E+02  0.14585388124E+02  0.72780385324E+02  0.41800000000E+01 0.  1.
        -11    1    1    2    0    0  0.26490541168E+02 -0.75102598757E+02  0.55883310850E+02  0.97288712310E+02  0.00000000000E+00 0. -1.
         11    1    1    2    0    0 -0.46117688941E+02  0.21725081714E+01  0.27431995440E+02  0.53703588323E+02  0.00000000000E+00 0.  1.
</event>
<event>
 7    1  0.2530765E-009  0.1562843E+03  0.7561462E-02  0.1192957E+00
         -1   -1    0    0    0  501 -0.00000000000E+00  0.00000000000E+00  0.42386304731E+02  0.42386304731E+02  0.00000000000E+00 0.  1.
          1   -1    0    0  501    0  0.00000000000E+00 -0.00000000000E+00 -0.99542425519E+03  0.99542425519E+03  0.00000000000E+00 0. -1.
         25    2    1    2    0    0  0.84120662134E+02  0.12454624369E+03 -0.73019263775E+03  0.75592246393E+03  0.12509768442E+03 0.  0.
          5    1    3    3  502    0  0.46339761510E+02  0.95811483839E+02 -0.67347358591E+03  0.68184408573E+03  0.41800000000E+01 0. -1.
         -5    1    3    3    0  502  0.37780900623E+02  0.28734759849E+02 -0.56719051837E+02  0.74078378200E+02  0.41800000000E+01 0. -1.
        -11    1    1    2    0    0 -0.71307359376E+02 -0.61785505656E+02 -0.74213612253E+02  0.12004102821E+03  0.00000000000E+00 0.  1.
         11    1    1    2    0    0 -0.12813302758E+02 -0.62760738032E+02 -0.14863170046E+03  0.16184706777E+03  0.00000000000E+00 0. -1.
</event>
<event>
 7    1  0.2530765E-009  0.1259019E+03  0.7561462E-02  0.1233666E+00
         -3   -1    0    0    0  501 -0.00000000000E+00  0.00000000000E+00  0.48543476553E+02  0.48543476553E+02  0.00000000000E+00 0.  1.
          3   -1    0    0  501    0  0.00000000000E+00 -0.00000000000E+00 -0.53262339571E+03  0.53262339571E+03  0.00000000000E+00 0. -1.
         25    2    1    2    0    0  0.58684763575E+02  0.68283227228E+02 -0.12062894201E+03  0.19571779427E+03  0.12509041829E+03 0.  0.
          5    1    3    3  502    0 -0.90662598536E+01  0.65276613601E+02 -0.10802830867E+03  0.12661287938E+03  0.41800000000E+01 0.  1.
         -5    1    3    3    0  502  0.67751023429E+02  0.30066136269E+01 -0.12600633340E+02  0.69104914888E+02  0.41800000000E+01 0.  1.
        -11    1    1    2    0    0 -0.58961256352E+02 -0.10319709432E+02 -0.26062927249E+03  0.26741455426E+03  0.00000000000E+00 0.  1.
         11    1    1    2    0    0  0.27649277624E+00 -0.57963517796E+02 -0.10282170466E+03  0.11803452373E+03  0.00000000000E+00 0. -1.
</event>
<event>
 7    1  0.3239641E-009  0.1236741E+03  0.7561462E-02  0.1237156E+00
         -1   -1    0    0    0  501 -0.00000000000E+00  0.00000000000E+00  0.49780269089E+02  0.49780269089E+02  0.00000000000E+00 0.  1.
          1   -1    0    0  501    0  0.00000000000E+00 -0.00000000000E+00 -0.41441064650E+03  0.41441064650E+03  0.00000000000E+00 0. -1.
         25    2    1    2    0    0  0.58464609881E+02 -0.60937612966E+02 -0.26355307308E+03  0.30370919533E+03  0.12509016633E+03 0.  0.
          5    1    3    3  502    0  0.96657096177E+02 -0.29607174225E+02 -0.18365586266E+03  0.20968101320E+03  0.41800000000E+01 0.  1.
         -5    1    3    3    0  502 -0.38192486295E+02 -0.31330438741E+02 -0.79897210416E+02  0.94028182123E+02  0.41800000000E+01 0.  1.
        -11    1    1    2    0    0 -0.16902246218E+02 -0.58894307516E+01  0.12837355222E+02  0.22026552406E+02  0.00000000000E+00 0.  1.
         11    1    1    2    0    0 -0.41562363663E+02  0.66827043718E+02 -0.11391465955E+03  0.13845516786E+03  0.00000000000E+00 0. -1.
</event>
<event>
 7    1  0.2530765E-009  0.1285958E+03  0.7561462E-02  0.1229554E+00
         -2   -1    0    0    0  501 -0.00000000000E+00  0.00000000000E+00  0.89574485304E+02  0.89574485304E+02  0.00000000000E+00 0.  1.
          2   -1    0    0  501    0  0.00000000000E+00 -0.00000000000E+00 -0.27394088808E+03  0.27394088808E+03  0.00000000000E+00 0. -1.
         25    2    1    2    0    0 -0.37932274290E+02 -0.10503017535E+03 -0.87669598078E+02  0.18921716790E+03  0.12508790123E+03 0.  0.
          5    1    3    3  502    0 -0.63471250498E+00 -0.10422590485E+03 -0.10487912245E+03  0.14792073833E+03  0.41800000000E+01 0. -1.
         -5    1    3    3    0  502 -0.37297561785E+02 -0.80427050033E+00  0.17209524372E+02  0.41296429570E+02  0.41800000000E+01 0. -1.
        -11    1    1    2    0    0 -0.29619106118E+01  0.27745000573E+02 -0.80728363241E+02  0.85414440248E+02  0.00000000000E+00 0. -1.
         11    1    1    2    0    0  0.40894184902E+02  0.77285174779E+02 -0.15968441453E+02  0.88883765232E+02  0.00000000000E+00 0.  1.
</event>
<event>
 7    1  0.2530765E-009  0.1688522E+03  0.7561462E-02  0.1179050E+00
          4   -1    0    0  501    0  0.00000000000E+00  0.00000000000E+00  0.14033869897E+03  0.14033869897E+03  0.00000000000E+00 0. -1.
         -4   -1    0    0    0  501 -0.00000000000E+00 -0.00000000000E+00 -0.24245430315E+03  0.24245430315E+03  0.00000000000E+00 0.  1.
         25    2    1    2    0    0  0.10744030108E+03 -0.75158160782E+02 -0.12674357156E+03  0.22114265239E+03  0.12509185563E+03 0.  0.
          5    1    3    3  502    0  0.41932710629E+02 -0.99891257683E+02 -0.58121539998E+02  0.12301301311E+03  0.41800000000E+01 0.  1.
         -5    1    3    3    0  502  0.65507590449E+02  0.24733096902E+02 -0.68622031566E+02  0.98129639280E+02  0.41800000000E+01 0.  1.
        -11    1    1    2    0    0 -0.47176017708E+02 -0.16042614051E+02  0.14354445460E+02  0.51855493603E+02  0.00000000000E+00 0. -1.
         11    1    1    2    0    0 -0.60264283370E+02  0.91200774832E+02  0.10273521921E+02  0.10979485613E+03  0.00000000000E+00 0.  1.
</event>
<event>
 7    1  0.2530765E-009  0.1007217E+03  0.7561462E-02  0.1278786E+00
          1   -1    0    0  501    0  0.00000000000E+00  0.00000000000E+00  0.40086511482E+03  0.40086511482E+03  0.00000000000E+00 0. -1.
         -1   -1    0    0    0  501 -0.00000000000E+00 -0.00000000000E+00 -0.34674531477E+02  0.34674531477E+02  0.00000000000E+00 0.  1.
         25    2    1    2    0    0  0.36899848154E+02 -0.10477772847E+02  0.25805341381E+03  0.28932785977E+03  0.12509062133E+03 0.  0.
          5    1    3    3  502    0 -0.34119008694E+02  0.31926391723E+02  0.11196258830E+03  0.12139396534E+03  0.41800000000E+01 0. -1.
         -5    1    3    3    0  502  0.71018856848E+02 -0.42404164570E+02  0.14609082551E+03  0.16793389443E+03  0.41800000000E+01 0. -1.
        -11    1    1    2    0    0 -0.50784238527E+02  0.20311093859E+02  0.11540535641E+03  0.12771051525E+03  0.00000000000E+00 0. -1.
         11    1    1    2    0    0  0.13884390373E+02 -0.98333210123E+01 -0.72681868798E+01  0.18501271272E+02  0.00000000000E+00 0.  1.
</event>
<event>
 7    1  0.2530765E-009  0.1139280E+03  0.7561462E-02  0.1253464E+00
         -1   -1    0    0    0  501 -0.00000000000E+00  0.00000000000E+00  0.34454674678E+02  0.34454674678E+02  0.00000000000E+00 0.  1.
          1   -1    0    0  501    0  0.00000000000E+00 -0.00000000000E+00 -0.41207436324E+03  0.41207436324E+03  0.00000000000E+00 0. -1.
         25    2    1    2    0    0 -0.22319557069E+02 -0.36865160050E+02 -0.24467687313E+03  0.27815895740E+03  0.12509368764E+03 0.  0.
          5    1    3    3  502    0 -0.73490295382E+02 -0.29604626925E+02 -0.16518415884E+03  0.18324992820E+03  0.41800000000E+01 0. -1.
         -5    1    3    3    0  502  0.51170738313E+02 -0.72605331250E+01 -0.79492714283E+02  0.94909029206E+02  0.41800000000E+01 0. -1.
        -11    1    1    2    0    0 -0.11201422604E+02  0.56645659429E+02 -0.10702554128E+03  0.12160867192E+03  0.00000000000E+00 0. -1.
         11    1    1    2    0    0  0.33520979673E+02 -0.19780499380E+02 -0.25917274155E+02  0.46761408592E+02  0.00000000000E+00 0.  1.
</event>
<event>
 7    1  0.2530765E-009  0.1156044E+03  0.7561462E-02  0.1250530E+00
         -2   -1    0    0    0  501 -0.00000000000E+00  0.00000000000E+00  0.93582725879E+02  0.93582725879E+02  0.00000000000E+00 0.  1.
          2   -1    0    0  501    0  0.00000000000E+00 -0.00000000000E+00 -0.25750481364E+03  0.25750481364E+03  0.00000000000E+00 0. -1.
         25    2    1    2    0    0  0.85132783810E+02  0.70796821115E+02 -0.68464958014E+02  0.18053969936E+03  0.12508937529E+03 0.  0.
          5    1    3    3  502    0  0.83662094327E+02  0.46599002793E+02 -0.10133168133E+03  0.13948618258E+03  0.41800000000E+01 0.  1.
         -5    1    3    3    0  502  0.14706894827E+01  0.24197818322E+02  0.32866723315E+02  0.41053516787E+02  0.41800000000E+01 0.  1.
        -11    1    1    2    0    0 -0.20690506445E+02 -0.18640493147E+02 -0.81947376769E+02  0.86550202778E+02  0.00000000000E+00 0. -1.
         11    1    1    2    0    0 -0.64442277365E+02 -0.52156327968E+02 -0.13509752976E+02  0.83997637375E+02  0.00000000000E+00 0.  1.
</event>
<event>
 7    1  0.2530765E-009  0.1286831E+03  0.7561462E-02  0.1229423E+00
          1   -1    0    0  501    0  0.00000000000E+00  0.00000000000E+00  0.48070820505E+02  0.48070820505E+02  0.00000000000E+00 0. -1.
         -1   -1    0    0    0  501 -0.00000000000E+00 -0.00000000000E+00 -0.64603227506E+03  0.64603227506E+03  0.00000000000E+00 0.  1.
         25    2    1    2    0    0 -0.90105661512E+02 -0.91280983904E+02 -0.21333242389E+03  0.27858710889E+03  0.12509518736E+03 0.  0.
          5    1    3    3  502    0 -0.50680330284E+02 -0.48534400422E+02 -0.20856239839E+03  0.22009050485E+03  0.41800000000E+01 0. -1.
         -5    1    3    3    0  502 -0.39425331229E+02 -0.42746583481E+02 -0.47700255025E+01  0.58496604048E+02  0.41800000000E+01 0. -1.
        -11    1    1    2    0    0  0.58054186949E+02  0.66348654628E+02 -0.35356215549E+03  0.36438802174E+03  0.00000000000E+00 0.  1.
         11    1    1    2    0    0  0.32051474563E+02  0.24932329276E+02 -0.31066875174E+02  0.51127964930E+02  0.00000000000E+00 0. -1.
</event>
<event>
 7    1  0.2530765E-009  0.6841099E+02  0.7561462E-02  0.1365581E+00
         -1   -1    0    0    0  501 -0.00000000000E+00  0.00000000000E+00  0.44433929089E+03  0.44433929089E+03  0.00000000000E+00 0.  1.
          1   -1    0    0  501    0  0.00000000000E+00 -0.00000000000E+00 -0.27782421250E+02  0.27782421250E+02  0.00000000000E+00 0. -1.
         25    2    1    2    0    0  0.12711237525E+02  0.20042871718E+02  0.22120600987E+03  0.25523024776E+03  0.12508832201E+03 0.  0.
          5    1    3    3  502    0  0.83724684262E+01 -0.16475962568E+02 -0.97623690890E+01  0.21315060880E+02  0.41800000000E+01 0. -1.
         -5    1    3    3    0  502  0.43387690991E+01  0.36518834286E+02  0.23096837896E+03  0.23391518688E+03  0.41800000000E+01 0. -1.
        -11    1    1    2    0    0  0.18013366524E+02 -0.40243487373E+02  0.48669441546E+02  0.65671410750E+02  0.00000000000E+00 0. -1.
         11    1    1    2    0    0 -0.30724604049E+02  0.20200615655E+02  0.14668141822E+03  0.15122005362E+03  0.00000000000E+00 0.  1.
</event>
<event>
 7    1  0.2530765E-009  0.1254408E+03  0.7561462E-02  0.1234382E+00
          1   -1    0    0  501    0  0.00000000000E+00  0.00000000000E+00  0.22971150081E+03  0.22971150081E+03  0.00000000000E+00 0. -1.
         -1   -1    0    0    0  501 -0.00000000000E+00 -0.00000000000E+00 -0.10145483492E+03  0.10145483492E+03  0.00000000000E+00 0.  1.
         25    2    1    2    0    0  0.96531086498E+02 -0.54206118904E+02  0.59834548075E+02  0.17743877609E+03  0.12509113530E+03 0.  0.
          5    1    3    3  502    0  0.58688284898E+02 -0.73435161068E+02  0.85934776732E+02  0.12743349606E+03  0.41800000000E+01 0.  1.
         -5    1    3    3    0  502  0.37842801600E+02  0.19229042164E+02 -0.26100228657E+02  0.50005280035E+02  0.41800000000E+01 0.  1.
        -11    1    1    2    0    0 -0.83402481502E+02  0.56586788918E+02  0.19033773125E+02  0.10256862639E+03  0.00000000000E+00 0.  1.
         11    1    1    2    0    0 -0.13128604996E+02 -0.23806700142E+01  0.49388344697E+02  0.51158933245E+02  0.00000000000E+00 0. -1.
</event>
<event>
 7    1  0.2530765E-009  0.1449689E+03  0.7561462E-02  0.1206795E+00
         -2   -1    0    0    0  501 -0.00000000000E+00  0.00000000000E+00  0.19889316254E+02  0.19889316254E+02  0.00000000000E+00 0.  1.
          2   -1    0    0  501    0  0.00000000000E+00 -0.00000000000E+00 -0.11838454986E+04  0.11838454986E+04  0.00000000000E+00 0. -1.
         25    2    1    2    0    0 -0.59266311088E+02  0.88719239394E+02 -0.63361385225E+03  0.65459750421E+03  0.12509108552E+03 0.  0.
          5    1    3    3  502    0 -0.89264248404E+02  0.43854533593E+02 -0.28677763389E+03  0.30356253039E+03  0.41800000000E+01 0.  1.
         -5    1    3    3    0  502  0.29997937316E+02  0.44864705801E+02 -0.34683621837E+03  0.35103497382E+03  0.41800000000E+01 0.  1.
        -11    1    1    2    0    0  0.40140879615E+01  0.16735963357E+02 -0.27887308131E+02  0.32770525270E+02  0.00000000000E+00 0.  1.
         11    1    1    2    0    0  0.55252223126E+02 -0.10545520275E+03 -0.50245502193E+03  0.51636678535E+03  0.00000000000E+00 0. -1.
</event>
<event>
 7    1  0.2530765E-009  0.8611359E+02  0.7561462E-02  0.1312546E+00
         -1   -1    0    0    0  501 -0.00000000000E+00  0.00000000000E+00  0.11655759742E+02  0.11655759742E+02  0.00000000000E+00 0.  1.
          1   -1    0    0  501    0  0.00000000000E+00 -0.00000000000E+00 -0.11046129193E+04  0.11046129193E+04  0.00000000000E+00 0. -1.
         25    2    1    2    0    0  0.24673587349E+01  0.29451531992E+02 -0.59710790905E+03  0.61078516204E+03  0.12508868264E+03 0.  0.
          5    1    3    3  502    0 -0.15459855775E+02 -0.17619259011E+02 -0.18972265397E+02  0.30444452417E+02  0.41800000000E+01 0. -1.
         -5    1    3    3    0  502  0.17927214510E+02  0.47070791003E+02 -0.57813564365E+03  0.58034070962E+03  0.41800000000E+01 0. -1.
        -11    1    1    2    0    0  0.37897078266E+02  0.12259790289E+02 -0.22290312737E+03  0.22643386494E+03  0.00000000000E+00 0. -1.
         11    1    1    2    0    0 -0.40364437000E+02 -0.41711322281E+02 -0.27294612316E+03  0.27904965208E+03  0.00000000000E+00 0.  1.
</event>
<event>
 7    1  0.2530765E-009  0.9288884E+02  0.7561462E-02  0.1296003E+00
         -1   -1    0    0    0  501 -0.00000000000E+00  0.00000000000E+00  0.37109786405E+02  0.37109786405E+02  0.00000000000E+00 0.  1.
          1   -1    0    0  501    0  0.00000000000E+00 -0.00000000000E+00 -0.44170318103E+03  0.44170318103E+03  0.00000000000E+00 0. -1.
         25    2    1    2    0    0  0.10900550728E+02  0.58939221131E+02 -0.27856531103E+03  0.31119128012E+03  0.12509487008E+03 0.  0.
          5    1    3    3  502    0  0.24000540634E+02  0.80567877829E+02 -0.99611266641E+02  0.13041121781E+03  0.41800000000E+01 0.  1.
         -5    1    3    3    0  502 -0.13099989907E+02 -0.21628656698E+02 -0.17895404439E+03  0.18078006231E+03  0.41800000000E+01 0.  1.
        -11    1    1    2    0    0  0.11375009479E+02 -0.51118617850E+02 -0.13305467592E+03  0.14298968744E+03  0.00000000000E+00 0. -1.
         11    1    1    2    0    0 -0.22275560206E+02 -0.78206032807E+01  0.70265923203E+01  0.24631999874E+02  0.00000000000E+00 0.  1.
</event>
<event>
 7    1  0.2530765E-009  0.1041739E+03  0.7561462E-02  0.1271756E+00
          2   -1    0    0  501    0  0.00000000000E+00  0.00000000000E+00  0.76472485183E+02  0.76472485183E+02  0.00000000000E+00 0. -1.
         -2   -1    0    0    0  501 -0.00000000000E+00 -0.00000000000E+00 -0.14698792056E+03  0.14698792056E+03  0.00000000000E+00 0.  1.
         25    2    1    2    0    0  0.99476980905E+01 -0.21839996376E+01 -0.29083012589E+02  0.12882848557E+03  0.12508889048E+03 0.  0.
          5    1    3    3  502    0 -0.26619554646E+02  0.52701132188E+02 -0.17629630765E+02  0.61759908552E+02  0.41800000000E+01 0.  1.
         -5    1    3    3    0  502  0.36567252737E+02 -0.54885131825E+02 -0.11453381824E+02  0.67068577019E+02  0.41800000000E+01 0.  1.
        -11    1    1    2    0    0  0.23561839920E+02 -0.28954792696E+02 -0.85529170914E+01  0.38297424343E+02  0.00000000000E+00 0.  1.
         11    1    1    2    0    0 -0.33509538011E+02  0.31138792334E+02 -0.32879505700E+02  0.56334495833E+02  0.00000000000E+00 0. -1.
</event>
<event>
 7    1  0.2530765E-009  0.1926516E+03  0.7561462E-02  0.1156091E+00
         -1   -1    0    0    0  501 -0.00000000000E+00  0.00000000000E+00  0.15439871799E+03  0.15439871799E+03  0.00000000000E+00 0.  1.
          1   -1    0    0  501    0  0.00000000000E+00 -0.00000000000E+00 -0.30171732038E+03  0.30171732038E+03  0.00000000000E+00 0. -1.
         25    2    1    2    0    0  0.13173074598E+03  0.11739319542E+03 -0.10603959289E+02  0.21655103023E+03  0.12509097879E+03 0.  0.
          5    1    3    3  502    0  0.14265127699E+03  0.76511546642E+02  0.21393398674E+02  0.16333570799E+03  0.41800000000E+01 0. -1.
         -5    1    3    3    0  502 -0.10920531015E+02  0.40881648775E+02 -0.31997357963E+02  0.53215322238E+02  0.41800000000E+01 0. -1.
        -11    1    1    2    0    0 -0.73652156429E+02 -0.90967413977E+02 -0.13073947822E+03  0.17547798072E+03  0.00000000000E+00 0. -1.
         11    1    1    2    0    0 -0.58078589550E+02 -0.26425781440E+02 -0.59751648762E+01  0.64087027425E+02  0.00000000000E+00 0.  1.
</event>
<event>
 7    1  0.2530765E-009  0.1079814E+03  0.7561462E-02  0.1264354E+00
         -1   -1    0    0    0  501 -0.00000000000E+00  0.00000000000E+00  0.19240237558E+02  0.19240237558E+02  0.00000000000E+00 0.  1.
          1   -1    0    0  501    0  0.00000000000E+00 -0.00000000000E+00 -0.67759592599E+03  0.67759592599E+03  0.00000000000E+00 0. -1.
         25    2    1    2    0    0  0.22061452770E+02 -0.17930634862E+02 -0.45509165453E+03  0.47282593148E+03  0.12509089533E+03 0.  0.
          5    1    3    3  502    0  0.53681415628E+02 -0.52208694406E+02 -0.34727620001E+03  0.35528252652E+03  0.41800000000E+01 0. -1.
         -5    1    3    3    0  502 -0.31619962858E+02  0.34278059544E+02 -0.10781545452E+03  0.11754340497E+03  0.41800000000E+01 0. -1.
        -11    1    1    2    0    0  0.30587600676E+02  0.26900664577E+02 -0.86424125067E+02  0.95542537455E+02  0.00000000000E+00 0.  1.
         11    1    1    2    0    0 -0.52649053447E+02 -0.89700297145E+01 -0.11683990883E+03  0.12846769461E+03  0.00000000000E+00 0. -1.
</event>
<event>
 7    1  0.2530765E-009  0.5796579E+02  0.7561462E-02  0.1406572E+00
         -1   -1    0    0    0  501 -0.00000000000E+00  0.00000000000E+00  0.16944247506E+03  0.16944247506E+03  0.00000000000E+00 0.  1.
          1   -1    0    0  501    0  0.00000000000E+00 -0.00000000000E+00 -0.82921831277E+02  0.82921831277E+02  0.00000000000E+00 0. -1.
         25    2    1    2    0    0  0.16783282811E+02 -0.33004684159E+01  0.27887322554E+00  0.12624651629E+03  0.12508210676E+03 0.  0.
          5    1    3    3  502    0 -0.15016804210E+01  0.20285942201E+02 -0.57470470527E+02  0.61107298072E+02  0.41800000000E+01 0.  1.
         -5    1    3    3    0  502  0.18284963232E+02 -0.23586410617E+02  0.57749343752E+02  0.65139218218E+02  0.41800000000E+01 0.  1.
        -11    1    1    2    0    0 -0.18037837556E+02 -0.28215759284E+02 -0.84065328430E+00  0.33499244075E+02  0.00000000000E+00 0. -1.
         11    1    1    2    0    0  0.12545547445E+01  0.31516227700E+02  0.87082423838E+02  0.92618545970E+02  0.00000000000E+00 0.  1.
</event>
<event>
 7    1  0.2530765E-009  0.8831728E+02  0.7561462E-02  0.1306979E+00
          1   -1    0    0  501    0  0.00000000000E+00  0.00000000000E+00  0.31686564591E+02  0.31686564591E+02  0.00000000000E+00 0. -1.
         -1   -1    0    0    0  501 -0.00000000000E+00 -0.00000000000E+00 -0.39535494877E+03  0.39535494877E+03  0.00000000000E+00 0.  1.
         25    2    1    2    0    0 -0.20447760565E+02  0.16787934951E+02 -0.19940270903E+03  0.23687296160E+03  0.12508962345E+03 0.  0.
          5    1    3    3  502    0 -0.11778828990E+02  0.53122098992E+02 -0.27883247366E+02  0.61283326422E+02  0.41800000000E+01 0. -1.
         -5    1    3    3    0  502 -0.86689315751E+01 -0.36334164040E+02 -0.17151946167E+03  0.17558963518E+03  0.41800000000E+01 0. -1.
        -11    1    1    2    0    0 -0.30236420452E+02  0.22805236438E+01 -0.20659337799E+02  0.36691281637E+02  0.00000000000E+00 0. -1.
         11    1    1    2    0    0  0.50684181018E+02 -0.19068458595E+02 -0.14360633735E+03  0.15347727012E+03  0.00000000000E+00 0.  1.
</event>
<event>
 7    1  0.2530765E-009  0.2334521E+03  0.7561462E-02  0.1124233E+00
          1   -1    0    0  501    0  0.00000000000E+00  0.00000000000E+00  0.32827488037E+03  0.32827488037E+03  0.00000000000E+00 0. -1.
         -1   -1    0    0    0  501 -0.00000000000E+00 -0.00000000000E+00 -0.21613365246E+03  0.21613365246E+03  0.00000000000E+00 0.  1.
         25    2    1    2    0    0 -0.17319382524E+03 -0.14821037706E+03  0.13212139580E+03  0.29166111028E+03  0.12509085919E+03 0.  0.
          5    1    3    3  502    0 -0.16296056962E+03 -0.15391696864E+03  0.15009596729E+03  0.26980150534E+03  0.41800000000E+01 0.  1.
         -5    1    3    3    0  502 -0.10233255619E+02  0.57065915747E+01 -0.17974571493E+02  0.21859604944E+02  0.41800000000E+01 0.  1.
        -11    1    1    2    0    0  0.34972403824E+01  0.12497476025E+02  0.27430333400E+02  0.30345358587E+02  0.00000000000E+00 0. -1.
         11    1    1    2    0    0  0.16969658486E+03  0.13571290104E+03 -0.47410501290E+02  0.22240206396E+03  0.00000000000E+00 0.  1.
</event>
<event>
 7    1  0.2530765E-009  0.1013692E+03  0.7561462E-02  0.1277443E+00
          2   -1    0    0  501    0  0.00000000000E+00  0.00000000000E+00  0.58203381828E+03  0.58203381828E+03  0.00000000000E+00 0. -1.
         -2   -1    0    0    0  501 -0.00000000000E+00 -0.00000000000E+00 -0.24296352851E+02  0.24296352851E+02  0.00000000000E+00 0.  1.
         25    2    1    2    0    0  0.12332394938E+02 -0.34045525523E+02  0.39035377059E+03  0.41150153866E+03  0.12508502841E+03 0.  0.
          5    1    3    3  502    0  0.53666006530E+02  0.23293937039E+02  0.15495949624E+03  0.16568815780E+03  0.41800000000E+01 0.  1.
         -5    1    3    3    0  502 -0.41333611592E+02 -0.57339462561E+02  0.23539427435E+03  0.24581338086E+03  0.41800000000E+01 0.  1.
        -11    1    1    2    0    0 -0.36081646886E+02  0.60824845503E+01  0.14969036472E+03  0.15409765459E+03  0.00000000000E+00 0. -1.
         11    1    1    2    0    0  0.23749251948E+02  0.27963040972E+02  0.17693330122E+02  0.40730977883E+02  0.00000000000E+00 0.  1.
</event>
<event>
 7    1  0.2530765E-009  0.1009740E+03  0.7561462E-02  0.1278261E+00
         -1   -1    0    0    0  501 -0.00000000000E+00  0.00000000000E+00  0.31343164787E+03  0.31343164787E+03  0.00000000000E+00 0.  1.
          1   -1    0    0  501    0  0.00000000000E+00 -0.00000000000E+00 -0.41926737959E+02  0.41926737959E+02  0.00000000000E+00 0. -1.
         25    2    1    2    0    0 -0.22867374386E+02  0.24119807818E+02  0.12324794779E+03  0.17872898518E+03  0.12509720847E+03 0.  0.
          5    1    3    3  502    0 -0.62804148786E+02  0.16992843339E+02  0.20755340832E+02  0.68420570025E+02  0.41800000000E+01 0.  1.
         -5    1    3    3    0  502  0.39936774399E+02  0.71269644792E+01  0.10249260696E+03  0.11030841515E+03  0.41800000000E+01 0.  1.
        -11    1    1    2    0    0  0.34346011756E+02  0.26929869076E+02  0.64877672088E+02  0.78191935054E+02  0.00000000000E+00 0. -1.
         11    1    1    2    0    0 -0.11478637370E+02 -0.51049676894E+02  0.83379290027E+02  0.98437465592E+02  0.00000000000E+00 0.  1.
</event>
<event>
 7    1  0.2530765E-009  0.7662071E+02  0.7561462E-02  0.1338924E+00
          1   -1    0    0  501    0  0.00000000000E+00  0.00000000000E+00  0.13484794468E+03  0.13484794468E+03  0.00000000000E+00 0. -1.
         -1   -1    0    0    0  501 -0.00000000000E+00 -0.00000000000E+00 -0.15329135905E+03  0.15329135905E+03  0.00000000000E+00 0.  1.
         25    2    1    2    0    0  0.10455868636E+02 -0.17983528509E+02  0.78966050740E+02  0.14938781498E+03  0.12509336356E+03 0.  0.
          5    1    3    3  502    0 -0.21591336131E+02  0.64681593186E+01 -0.27304845637E+02  0.35651786437E+02  0.41800000000E+01 0.  1.
         -5    1    3    3    0  502  0.32047204767E+02 -0.24451687828E+02  0.10627089638E+03  0.11373602854E+03  0.41800000000E+01 0.  1.
        -11    1    1    2    0    0 -0.14767771251E+02 -0.34292878415E+02 -0.70549150188E+02  0.79820242858E+02  0.00000000000E+00 0.  1.
         11    1    1    2    0    0  0.43119026153E+01  0.52276406924E+02 -0.26860314923E+02  0.58931245896E+02  0.00000000000E+00 0. -1.
</event>
<event>
 7    1  0.2530765E-009  0.1786955E+03  0.7561462E-02  0.1169072E+00
          2   -1    0    0  501    0  0.00000000000E+00  0.00000000000E+00  0.92040230200E+03  0.92040230200E+03  0.00000000000E+00 0. -1.
         -2   -1    0    0    0  501 -0.00000000000E+00 -0.00000000000E+00 -0.36147291368E+02  0.36147291368E+02  0.00000000000E+00 0.  1.
         25    2    1    2    0    0 -0.85634649410E+02 -0.11728324254E+03  0.51722992183E+03  0.55160075633E+03  0.12509176703E+03 0.  0.
          5    1    3    3  502    0 -0.95093205461E+02 -0.30755688966E+02  0.33483561351E+03  0.34945813855E+03  0.41800000000E+01 0.  1.
         -5    1    3    3    0  502  0.94585560510E+01 -0.86527553573E+02  0.18239430833E+03  0.20214261777E+03  0.41800000000E+01 0.  1.
        -11    1    1    2    0    0  0.36738850546E+02 -0.63340714078E+01  0.98509154854E+02  0.10532766583E+03  0.00000000000E+00 0. -1.
         11    1    1    2    0    0  0.48895798864E+02  0.12361731395E+03  0.26851593395E+03  0.29962117121E+03  0.00000000000E+00 0.  1.
</event>
<event>
 7    1  0.2530765E-009  0.1533512E+03  0.7561462E-02  0.1196414E+00
         -2   -1    0    0    0  501 -0.00000000000E+00  0.00000000000E+00  0.13592780039E+04  0.13592780039E+04  0.00000000000E+00 0.  1.
          2   -1    0    0  501    0  0.00000000000E+00 -0.00000000000E+00 -0.24459681181E+02  0.24459681181E+02  0.00000000000E+00 0. -1.
         25    2    1    2    0    0 -0.46023632305E+01  0.13441535923E+03  0.48961168384E+03  0.52292782169E+03  0.12508091463E+03 0.  0.
          5    1    3    3  502    0 -0.21685243489E+01 -0.35427512324E+01 -0.60242977099E+01  0.84272265333E+01  0.41800000000E+01 0. -1.
         -5    1    3    3    0  502 -0.24338388816E+01  0.13795811046E+03  0.49563598155E+03  0.51450059516E+03  0.41800000000E+01 0. -1.
        -11    1    1    2    0    0 -0.33900613072E+02 -0.14589379539E+02  0.16788387094E+03  0.17189268653E+03  0.00000000000E+00 0.  1.
         11    1    1    2    0    0  0.38502976303E+02 -0.11982597969E+03  0.67732276790E+03  0.68891717682E+03  0.00000000000E+00 0. -1.
</event>
<event>
 7    1  0.2530765E-009  0.1046790E+03  0.7561462E-02  0.1270753E+00
         -1   -1    0    0    0  501 -0.00000000000E+00  0.00000000000E+00  0.46802485279E+02  0.46802485279E+02  0.00000000000E+00 0.  1.
          1   -1    0    0  501    0  0.00000000000E+00 -0.00000000000E+00 -0.25475674291E+03  0.25475674291E+03  0.00000000000E+00 0. -1.
         25    2    1    2    0    0  0.13317119000E+02  0.25119956925E+00 -0.12923884237E+03  0.18035584739E+03  0.12509254394E+03 0.  0.
          5    1    3    3  502    0  0.65381548070E+02 -0.19901149445E+02 -0.57883492793E+02  0.89659208758E+02  0.41800000000E+01 0. -1.
         -5    1    3    3    0  502 -0.52064429070E+02  0.20152349015E+02 -0.71355349579E+02  0.90696638630E+02  0.41800000000E+01 0. -1.
        -11    1    1    2    0    0 -0.23913030352E+02 -0.38439779120E+02 -0.65110035237E+02  0.79301742275E+02  0.00000000000E+00 0. -1.
         11    1    1    2    0    0  0.10595911351E+02  0.38188579551E+02 -0.13605380022E+02  0.41901638524E+02  0.00000000000E+00 0.  1.
</event>
<event>
 7    1  0.2530765E-009  0.1452692E+03  0.7561462E-02  0.1206410E+00
          4   -1    0    0  501    0  0.00000000000E+00  0.00000000000E+00  0.41971492761E+03  0.41971492761E+03  0.00000000000E+00 0. -1.
         -4   -1    0    0    0  501 -0.00000000000E+00 -0.00000000000E+00 -0.59019022265E+02  0.59019022265E+02  0.00000000000E+00 0.  1.
         25    2    1    2    0    0  0.60573042067E+02 -0.77292381235E+02  0.26726572468E+03  0.31099746596E+03  0.12508097628E+03 0.  0.
          5    1    3    3  502    0  0.77031490321E+02 -0.47068340670E+01  0.89612578915E+02  0.11833803906E+03  0.41800000000E+01 0.  1.
         -5    1    3    3    0  502 -0.16458448254E+02 -0.72585547168E+02  0.17765314576E+03  0.19265942691E+03  0.41800000000E+01 0.  1.
        -11    1    1    2    0    0 -0.85711322537E+02  0.42197890430E+02  0.71416347341E+02  0.11927861265E+03  0.00000000000E+00 0. -1.
         11    1    1    2    0    0  0.25138280470E+02  0.35094490805E+02  0.22013833330E+02  0.48457871267E+02  0.00000000000E+00 0.  1.
</event>
<event>
 7    1  0.2530765E-009  0.1480210E+03  0.7561462E-02  0.1202926E+00
         -2   -1    0    0    0  501 -0.00000000000E+00  0.00000000000E+00  0.32243264908E+02  0.32243264908E+02  0.00000000000E+00 0.  1.
          2   -1    0    0  501    0  0.00000000000E+00 -0.00000000000E+00 -0.75906432184E+03  0.75906432184E+03  0.00000000000E+00 0. -1.
         25    2    1    2    0    0  0.10157737241E+03  0.77951325389E+01 -0.27015394661E+03  0.31465366349E+03  0.12508015989E+03 0.  0.
          5    1    3    3  502    0  0.82711342728E+02 -0.52431652453E+02 -0.16796996874E+03  0.19447783214E+03  0.41800000000E+01 0.  1.
         -5    1    3    3    0  502  0.18866029683E+02  0.60226784992E+02 -0.10218397787E+03  0.12017583135E+03  0.41800000000E+01 0.  1.
        -11    1    1    2    0    0 -0.89072298302E+02  0.30764602125E+02 -0.28138330638E+03  0.29674382921E+03  0.00000000000E+00 0.  1.
         11    1    1    2    0    0 -0.12505074109E+02 -0.38559734664E+02 -0.17528380394E+03  0.17991009405E+03  0.00000000000E+00 0. -1.
</event>
<event>
 7    1  0.3224602E-009  0.1239261E+03  0.7561462E-02  0.1236757E+00
         -1   -1    0    0    0  501 -0.00000000000E+00  0.00000000000E+00  0.25082332828E+02  0.25082332828E+02  0.00000000000E+00 0.  1.
          1   -1    0    0  501    0  0.00000000000E+00 -0.00000000000E+00 -0.10342301739E+04  0.10342301739E+04  0.00000000000E+00 0. -1.
         25    2    1    2    0    0 -0.70607761484E+02  0.82397083542E+02 -0.69839105036E+03  0.71775584286E+03  0.12509458569E+03 0.  0.
          5    1    3    3  502    0 -0.74650384006E+02  0.92445097358E+02 -0.69576823669E+03  0.70585387117E+03  0.41800000000E+01 0.  1.
         -5    1    3    3    0  502  0.40426225222E+01 -0.10048013817E+02 -0.26228136754E+01  0.11901971689E+02  0.41800000000E+01 0.  1.
        -11    1    1    2    0    0  0.53582309930E+02 -0.28223735293E+02 -0.63048693148E+02  0.87422999714E+02  0.00000000000E+00 0.  1.
         11    1    1    2    0    0  0.17025451553E+02 -0.54173348249E+02 -0.24770809757E+03  0.25413366417E+03  0.00000000000E+00 0. -1.
</event>
<event>
 7    1  0.2530765E-009  0.1162678E+03  0.7561462E-02  0.1249384E+00
          3   -1    0    0  501    0  0.00000000000E+00  0.00000000000E+00  0.13292219772E+02  0.13292219772E+02  0.00000000000E+00 0. -1.
         -3   -1    0    0    0  501 -0.00000000000E+00 -0.00000000000E+00 -0.11496977152E+04  0.11496977152E+04  0.00000000000E+00 0.  1.
         25    2    1    2    0    0  0.56049304623E+02 -0.68803646085E+01 -0.70274528786E+03  0.71602156233E+03  0.12508826540E+03 0.  0.
          5    1    3    3  502    0  0.82548744708E+02 -0.40499050027E+02 -0.53440451064E+03  0.54227310619E+03  0.41800000000E+01 0. -1.
         -5    1    3    3    0  502 -0.26499440085E+02  0.33618685418E+02 -0.16834077722E+03  0.17374845614E+03  0.41800000000E+01 0. -1.
        -11    1    1    2    0    0 -0.83240911544E+01  0.39049712544E+02 -0.89136494679E+02  0.97670288353E+02  0.00000000000E+00 0. -1.
         11    1    1    2    0    0 -0.47725213469E+02 -0.32169347935E+02 -0.34452371285E+03  0.34929808425E+03  0.00000000000E+00 0.  1.
</event>
<event>
 7    1  0.2530765E-009  0.9079831E+02  0.7561462E-02  0.1300930E+00
         -1   -1    0    0    0  501 -0.00000000000E+00  0.00000000000E+00  0.15407726956E+03  0.15407726956E+03  0.00000000000E+00 0.  1.
          1   -1    0    0  501    0  0.00000000000E+00 -0.00000000000E+00 -0.10581125732E+03  0.10581125732E+03  0.00000000000E+00 0. -1.
         25    2    1    2    0    0  0.55402817458E+02  0.12922438439E+02 -0.10048724654E+02  0.13778920379E+03  0.12509366976E+03 0.  0.
          5    1    3    3  502    0  0.36622826661E+02  0.47747209931E+02 -0.52240615007E+02  0.79797128678E+02  0.41800000000E+01 0. -1.
         -5    1    3    3    0  502  0.18779990797E+02 -0.34824771491E+02  0.42191890353E+02  0.57992075108E+02  0.41800000000E+01 0. -1.
        -11    1    1    2    0    0 -0.48169019381E+01 -0.28231079944E+02  0.62835952003E+02  0.69054712245E+02  0.00000000000E+00 0.  1.
         11    1    1    2    0    0 -0.50585915520E+02  0.15308641505E+02 -0.45212151043E+01  0.53044610845E+02  0.00000000000E+00 0. -1.
</event>
<event>
 7    1  0.2530765E-009  0.9893577E+02  0.7561462E-02  0.1282550E+00
         -1   -1    0    0    0  501 -0.00000000000E+00  0.00000000000E+00  0.58089135395E+02  0.58089135395E+02  0.00000000000E+00 0.  1.
          1   -1    0    0  501    0  0.00000000000E+00 -0.00000000000E+00 -0.60469481992E+03  0.60469481992E+03  0.00000000000E+00 0. -1.
         25    2    1    2    0    0 -0.60556011671E+02  0.24181057074E+02 -0.53092960557E+03  0.54935045969E+03  0.12509167605E+03 0.  0.
          5    1    3    3  502    0 -0.74634958520E+02 -0.26636274122E+02 -0.21827509556E+03  0.23225278873E+03  0.41800000000E+01 0.  1.
         -5    1    3    3    0  502  0.14078946849E+02  0.50817331197E+02 -0.31265451002E+03  0.31709767096E+03  0.41800000000E+01 0.  1.
        -11    1    1    2    0    0  0.13420360420E+02 -0.21608311655E+01 -0.49531033943E+02  0.51362423897E+02  0.00000000000E+00 0. -1.
         11    1    1    2    0    0  0.47135651250E+02 -0.22020225909E+02  0.33854954992E+02  0.62071071727E+02  0.00000000000E+00 0.  1.
</event>
<event>
 7    1  0.2530765E-009  0.1049767E+03  0.7561462E-02  0.1270166E+00
          1   -1    0    0  501    0  0.00000000000E+00  0.00000000000E+00  0.22814554938E+02  0.22814554938E+02  0.00000000000E+00 0. -1.
         -1   -1    0    0    0  501 -0.00000000000E+00 -0.00000000000E+00 -0.89009725295E+03  0.89009725295E+03  0.00000000000E+00 0.  1.
         25    2    1    2    0    0  0.38514452344E+02  0.34095117289E+02 -0.71933874784E+03  0.73194418983E+03  0.12509285676E+03 0.  0.
          5    1    3    3  502    0  0.68221744515E+02  0.56806922264E+02 -0.60698775560E+03  0.61345973029E+03  0.41800000000E+01 0. -1.
         -5    1    3    3    0  502 -0.29707292172E+02 -0.22711804975E+02 -0.11235099224E+03  0.11848445954E+03  0.41800000000E+01 0. -1.
        -11    1    1    2    0    0 -0.52613820393E+02 -0.72262593853E+01 -0.34014901639E+02  0.63066999727E+02  0.00000000000E+00 0. -1.
         11    1    1    2    0    0  0.14099368049E+02 -0.26868857904E+02 -0.11392904854E+03  0.11790061834E+03  0.00000000000E+00 0.  1.
</event>
<event>
 7    1  0.2530765E-009  0.1531677E+03  0.7561462E-02  0.1196634E+00
         -3   -1    0    0    0  501 -0.00000000000E+00  0.00000000000E+00  0.23885722630E+03  0.23885722630E+03  0.00000000000E+00 0.  1.
          3   -1    0    0  501    0  0.00000000000E+00 -0.00000000000E+00 -0.14169573358E+03  0.14169573358E+03  0.00000000000E+00 0. -1.
         25    2    1    2    0    0  0.12846580492E+03  0.34192435199E+02 -0.13958537742E+02  0.18308457383E+03  0.12511009049E+03 0.  0.
          5    1    3    3  502    0  0.33421700014E+02  0.51572873509E+02  0.38918799757E+02  0.72862313224E+02  0.41800000000E+01 0.  1.
         -5    1    3    3    0  502  0.95044104903E+02 -0.17380438310E+02 -0.52877337498E+02  0.11022226061E+03  0.41800000000E+01 0.  1.
        -11    1    1    2    0    0 -0.76774367309E+02  0.13197257911E+02  0.99528583483E+02  0.12638991266E+03  0.00000000000E+00 0.  1.
         11    1    1    2    0    0 -0.51691437608E+02 -0.47389693109E+02  0.11591446979E+02  0.71078473380E+02  0.00000000000E+00 0. -1.
</event>
<event>
 7    1  0.2530765E-009  0.1007840E+03  0.7561462E-02  0.1278656E+00
         -3   -1    0    0    0  501 -0.00000000000E+00  0.00000000000E+00  0.99767818868E+02  0.99767818868E+02  0.00000000000E+00 0.  1.
          3   -1    0    0  501    0  0.00000000000E+00 -0.00000000000E+00 -0.16416973898E+03  0.16416973898E+03  0.00000000000E+00 0. -1.
         25    2    1    2    0    0  0.13145554636E+02 -0.43927941770E+02 -0.86368050291E+02  0.15878057327E+03  0.12509740470E+03 0.  0.
          5    1    3    3  502    0 -0.39463908180E+02 -0.99119699762E+01  0.11512025540E+02  0.42492897402E+02  0.41800000000E+01 0.  1.
         -5    1    3    3    0  502  0.52609462815E+02 -0.34015971793E+02 -0.97880075832E+02  0.11628767587E+03  0.41800000000E+01 0.  1.
        -11    1    1    2    0    0  0.19468625195E+02  0.58867490737E+02 -0.19646280800E+01  0.62034414612E+02  0.00000000000E+00 0. -1.
         11    1    1    2    0    0 -0.32614179831E+02 -0.14939548968E+02  0.23930758258E+02  0.43122569963E+02  0.00000000000E+00 0.  1.
</event>
<event>
 7    1  0.2530765E-009  0.1424842E+03  0.7561462E-02  0.1210025E+00
          1   -1    0    0  501    0  0.00000000000E+00  0.00000000000E+00  0.54596228062E+03  0.54596228062E+03  0.00000000000E+00 0. -1.
         -1   -1    0    0    0  501 -0.00000000000E+00 -0.00000000000E+00 -0.11780901833E+03  0.11780901833E+03  0.00000000000E+00 0.  1.
         25    2    1    2    0    0  0.50035268911E+02  0.95242501899E+02  0.48258977625E+03  0.51001439804E+03  0.12508849572E+03 0.  0.
          5    1    3    3  502    0  0.62252743145E+02 -0.60142352803E+01  0.19687254254E+03  0.20661037114E+03  0.41800000000E+01 0. -1.
         -5    1    3    3    0  502 -0.12217474235E+02  0.10125673718E+03  0.28571723371E+03  0.30340402690E+03  0.41800000000E+01 0. -1.
        -11    1    1    2    0    0  0.11519751099E+02 -0.11497132293E+02  0.20096639522E+02  0.25860464737E+02  0.00000000000E+00 0.  1.
         11    1    1    2    0    0 -0.61555020010E+02 -0.83745369606E+02 -0.74533153481E+02  0.12789643618E+03  0.00000000000E+00 0. -1.
</event>
<event>
 7    1  0.2530765E-009  0.1212344E+03  0.7561462E-02  0.1241074E+00
         -1   -1    0    0    0  501 -0.00000000000E+00  0.00000000000E+00  0.30112459683E+03  0.30112459683E+03  0.00000000000E+00 0.  1.
          1   -1    0    0  501    0  0.00000000000E+00 -0.00000000000E+00 -0.51045224075E+02  0.51045224075E+02  0.00000000000E+00 0. -1.
         25    2    1    2    0    0 -0.55709297667E+02 -0.20207095851E+02  0.15438716239E+03  0.20735050515E+03  0.12508790311E+03 0.  0.
          5    1    3    3  502    0 -0.15349336696E+01  0.48912833886E+02  0.41747992359E+02  0.64460752447E+02  0.41800000000E+01 0.  1.
         -5    1    3    3    0  502 -0.54174363997E+02 -0.69119929737E+02  0.11263917003E+03  0.14288975270E+03  0.41800000000E+01 0.  1.
        -11    1    1    2    0    0  0.40822341048E+01  0.47062838572E+02  0.25642729046E+02  0.53750581045E+02  0.00000000000E+00 0.  1.
         11    1    1    2    0    0  0.51627063562E+02 -0.26855742721E+02  0.70049481322E+02  0.91068734715E+02  0.00000000000E+00 0. -1.
</event>
<event>
 7    1  0.2530765E-009  0.9882250E+02  0.7561462E-02  0.1282792E+00
         -1   -1    0    0    0  501 -0.00000000000E+00  0.00000000000E+00  0.71261663344E+03  0.71261663344E+03  0.00000000000E+00 0.  1.
          1   -1    0    0  501    0  0.00000000000E+00 -0.00000000000E+00 -0.37774645041E+02  0.37774645041E+02  0.00000000000E+00 0. -1.
         25    2    1    2    0    0  0.39569260564E+02  0.67754056863E+02  0.58509814569E+03  0.60344340265E+03  0.12509101289E+03 0.  0.
          5    1    3    3  502    0  0.30183256860E+02  0.76862063614E+01  0.48662676092E+03  0.48764042450E+03  0.41800000000E+01 0. -1.
         -5    1    3    3    0  502  0.93860037038E+01  0.60067850501E+02  0.98471384775E+02  0.11580297815E+03  0.41800000000E+01 0. -1.
        -11    1    1    2    0    0 -0.51252733223E+02 -0.18234535676E+02  0.77379039728E+02  0.94587825556E+02  0.00000000000E+00 0.  1.
         11    1    1    2    0    0  0.11683472659E+02 -0.49519521187E+02  0.12364802974E+02  0.52360050273E+02  0.00000000000E+00 0. -1.
</event>
<event>
 7    1  0.2530765E-009  0.9277908E+02  0.7561462E-02  0.1296258E+00
         -1   -1    0    0    0  501 -0.00000000000E+00  0.00000000000E+00  0.78447132443E+02  0.78447132443E+02  0.00000000000E+00 0.  1.
          1   -1    0    0  501    0  0.00000000000E+00 -0.00000000000E+00 -0.27766084766E+03  0.27766084766E+03  0.00000000000E+00 0. -1.
         25    2    1    2    0    0  0.24513263359E+00  0.57290008361E+02 -0.22034072518E+03  0.25976773914E+03  0.12508812086E+03 0.  0.
          5    1    3    3  502    0  0.43130321859E+02 -0.10197752397E+02 -0.13762537575E+03  0.14464589613E+03  0.41800000000E+01 0.  1.
         -5    1    3    3    0  502 -0.42885189225E+02  0.67487760758E+02 -0.82715349427E+02  0.11512184301E+03  0.41800000000E+01 0.  1.
        -11    1    1    2    0    0 -0.10272648563E+02 -0.36029337704E+02  0.47835368056E+02  0.60760702110E+02  0.00000000000E+00 0.  1.
         11    1    1    2    0    0  0.10027515929E+02 -0.21260670658E+02 -0.26708358092E+02  0.35579538846E+02  0.00000000000E+00 0. -1.
</event>
<event>
 7    1  0.2530765E-009  0.2756131E+03  0.7561462E-02  0.1098109E+00
         -2   -1    0    0    0  501 -0.00000000000E+00  0.00000000000E+00  0.86690887425E+02  0.86690887425E+02  0.00000000000E+00 0.  1.
          2   -1    0    0  501    0  0.00000000000E+00 -0.00000000000E+00 -0.16123881543E+04  0.16123881543E+04  0.00000000000E+00 0. -1.
         25    2    1    2    0    0  0.49011131893E+01 -0.27019431010E+03 -0.13044576723E+04  0.13380157875E+04  0.12508973852E+03 0.  0.
          5    1    3    3  502    0  0.40257554545E+02 -0.12170077299E+03 -0.82268009277E+03  0.83261741291E+03  0.41800000000E+01 0.  1.
         -5    1    3    3    0  502 -0.35356441356E+02 -0.14849353711E+03 -0.48177757954E+03  0.50539837461E+03  0.41800000000E+01 0.  1.
        -11    1    1    2    0    0 -0.34200468616E+01  0.84160014404E+02 -0.19148949927E+02  0.86378741762E+02  0.00000000000E+00 0. -1.
         11    1    1    2    0    0 -0.14810663277E+01  0.18603429569E+03 -0.20209064468E+03  0.27468451248E+03  0.00000000000E+00 0.  1.
</event>
<event>
 7    1  0.2530765E-009  0.1371676E+03  0.7561462E-02  0.1217192E+00
          2   -1    0    0  501    0  0.00000000000E+00  0.00000000000E+00  0.11140535420E+04  0.11140535420E+04  0.00000000000E+00 0. -1.
         -2   -1    0    0    0  501 -0.00000000000E+00 -0.00000000000E+00 -0.18256411639E+02  0.18256411639E+02  0.00000000000E+00 0.  1.
         25    2    1    2    0    0  0.82237249296E+02  0.47430257543E+02  0.61646001629E+03  0.63614647652E+03  0.12508714327E+03 0.  0.
          5    1    3    3  502    0 -0.10455570781E+02  0.60228192108E+02  0.29617464772E+03  0.30244610832E+03  0.41800000000E+01 0.  1.
         -5    1    3    3    0  502  0.92692820076E+02 -0.12797934565E+02  0.32028536857E+03  0.33370036820E+03  0.41800000000E+01 0.  1.
        -11    1    1    2    0    0 -0.40576089729E+02 -0.62988618631E+02  0.38014157749E+03  0.38745529299E+03  0.00000000000E+00 0. -1.
         11    1    1    2    0    0 -0.41661159567E+02  0.15558361089E+02  0.99195536608E+02  0.10870818414E+03  0.00000000000E+00 0.  1.
</event>
<event>
 7    1  0.2530765E-009  0.9581178E+02  0.7561462E-02  0.1289358E+00
         -1   -1    0    0    0  501 -0.00000000000E+00  0.00000000000E+00  0.28680443724E+03  0.28680443724E+03  0.00000000000E+00 0.  1.
          1   -1    0    0  501    0  0.00000000000E+00 -0.00000000000E+00 -0.65003243178E+02  0.65003243178E+02  0.00000000000E+00 0. -1.
         25    2    1    2    0    0  0.58060295765E+02  0.32870355055E+02  0.59571500776E+02  0.15377259712E+03  0.12508313130E+03 0.  0.
          5    1    3    3  502    0  0.77511573326E+02  0.52997714096E+02  0.76155415810E+02  0.12097074628E+03  0.41800000000E+01 0.  1.
         -5    1    3    3    0  502 -0.19451277561E+02 -0.20127359042E+02 -0.16583915034E+02  0.32801850841E+02  0.41800000000E+01 0.  1.
        -11    1    1    2    0    0 -0.19001146425E+02 -0.21411070068E+02 -0.21340002098E+01  0.28705947882E+02  0.00000000000E+00 0. -1.
         11    1    1    2    0    0 -0.39059149340E+02 -0.11459284987E+02  0.16436369350E+03  0.16932913541E+03  0.00000000000E+00 0.  1.
</event>
<event>
 7    1  0.2530765E-009  0.7060996E+02  0.7561462E-02  0.1358031E+00
          1   -1    0    0  501    0  0.00000000000E+00  0.00000000000E+00  0.61842189738E+02  0.61842189738E+02  0.00000000000E+00 0. -1.
         -1   -1    0    0    0  501 -0.00000000000E+00 -0.00000000000E+00 -0.20808692639E+03  0.20808692639E+03  0.00000000000E+00 0.  1.
         25    2    1    2    0    0 -0.45668835252E+02  0.35717781161E+02 -0.65712262170E+02  0.15272344972E+03  0.12507976771E+03 0.  0.
          5    1    3    3  502    0 -0.81171293471E+01 -0.12406584288E+02 -0.86685857285E+02  0.88043860523E+02  0.41800000000E+01 0. -1.
         -5    1    3    3    0  502 -0.37551705905E+02  0.48124365449E+02  0.20973595116E+02  0.64679589195E+02  0.41800000000E+01 0. -1.
        -11    1    1    2    0    0  0.10223487089E+02  0.43719341033E+01 -0.58145903372E+02  0.59199489652E+02  0.00000000000E+00 0.  1.
         11    1    1    2    0    0  0.35445348163E+02 -0.40089715265E+02 -0.22386571114E+02  0.58006176763E+02  0.00000000000E+00 0. -1.
</event>
<event>
 7    1  0.2530765E-009  0.1226810E+03  0.7561462E-02  0.1238739E+00
          3   -1    0    0  501    0  0.00000000000E+00  0.00000000000E+00  0.59971900410E+02  0.59971900410E+02  0.00000000000E+00 0. -1.
         -3   -1    0    0    0  501 -0.00000000000E+00 -0.00000000000E+00 -0.35406722807E+03  0.35406722807E+03  0.00000000000E+00 0.  1.
         25    2    1    2    0    0 -0.10214941077E+02  0.69752171472E+02 -0.69054679169E+02  0.15932943543E+03  0.12509040664E+03 0.  0.
          5    1    3    3  502    0 -0.58087654992E+02  0.11881786115E+02 -0.34819240930E+01  0.59539471775E+02  0.41800000000E+01 0.  1.
         -5    1    3    3    0  502  0.47872713915E+02  0.57870385356E+02 -0.65572755076E+02  0.99789963659E+02  0.41800000000E+01 0.  1.
        -11    1    1    2    0    0  0.48078606940E+02 -0.40251205932E+02 -0.17250842640E+03  0.18355072651E+03  0.00000000000E+00 0.  1.
         11    1    1    2    0    0 -0.37863665862E+02 -0.29500965540E+02 -0.52532222086E+02  0.71158966530E+02  0.00000000000E+00 0. -1.
</event>
<event>
 7    1  0.2530765E-009  0.1365016E+03  0.7561462E-02  0.1218115E+00
         -3   -1    0    0    0  501 -0.00000000000E+00  0.00000000000E+00  0.56043776957E+02  0.56043776957E+02  0.00000000000E+00 0.  1.
          3   -1    0    0  501    0  0.00000000000E+00 -0.00000000000E+00 -0.39429630694E+03  0.39429630694E+03  0.00000000000E+00 0. -1.
         25    2    1    2    0    0 -0.85972594493E+02  0.11962748163E+02 -0.10743078382E+03  0.18634158211E+03  0.12508963812E+03 0.  0.
          5    1    3    3  502    0 -0.38409118677E+02  0.64607130043E+02 -0.29453990262E+02  0.80835336284E+02  0.41800000000E+01 0. -1.
         -5    1    3    3    0  502 -0.47563475817E+02 -0.52644381880E+02 -0.77976793558E+02  0.10550624583E+03  0.41800000000E+01 0. -1.
        -11    1    1    2    0    0  0.87278843035E+02 -0.41810692748E+02 -0.15795244157E+03  0.18524228531E+03  0.00000000000E+00 0.  1.
         11    1    1    2    0    0 -0.13062485414E+01  0.29847944585E+02 -0.72869304597E+02  0.78756216476E+02  0.00000000000E+00 0. -1.
</event>
<event>
 7    1  0.2530765E-009  0.1430277E+03  0.7561462E-02  0.1209312E+00
         -2   -1    0    0    0  501 -0.00000000000E+00  0.00000000000E+00  0.18700451079E+02  0.18700451079E+02  0.00000000000E+00 0.  1.
          2   -1    0    0  501    0  0.00000000000E+00 -0.00000000000E+00 -0.15421394840E+04  0.15421394840E+04  0.00000000000E+00 0. -1.
         25    2    1    2    0    0  0.96495708677E+02 -0.87918443826E+02 -0.10498384543E+04  0.10652930089E+04  0.12508932866E+03 0.  0.
          5    1    3    3  502    0  0.17871576987E+02 -0.51049584726E+02 -0.12357234446E+03  0.13495573378E+03  0.41800000000E+01 0. -1.
         -5    1    3    3    0  502  0.78624131690E+02 -0.36868859099E+02 -0.92626610988E+03  0.93033727517E+03  0.41800000000E+01 0. -1.
        -11    1    1    2    0    0 -0.72935853417E+02  0.24061406203E+02 -0.22237185250E+03  0.23526119690E+03  0.00000000000E+00 0.  1.
         11    1    1    2    0    0 -0.23559855261E+02  0.63857037623E+02 -0.25122872613E+03  0.26028572928E+03  0.00000000000E+00 0. -1.
</event>
<event>
 7    1  0.2530765E-009  0.1255147E+03  0.7561462E-02  0.1234267E+00
         -3   -1    0    0    0  501 -0.00000000000E+00  0.00000000000E+00  0.40742554327E+03  0.40742554327E+03  0.00000000000E+00 0.  1.
          3   -1    0    0  501    0  0.00000000000E+00 -0.00000000000E+00 -0.52158144449E+02  0.52158144449E+02  0.00000000000E+00 0. -1.
         25    2    1    2    0    0  0.13418659642E+02  0.97061160458E+02  0.25008187710E+03  0.29629217897E+03  0.12508869159E+03 0.  0.
          5    1    3    3  502    0 -0.43742714096E+02  0.80483602863E+02  0.19320928828E+03  0.21386523056E+03  0.41800000000E+01 0.  1.
         -5    1    3    3    0  502  0.57161373738E+02  0.16577557595E+02  0.56872588828E+02  0.82426948405E+02  0.41800000000E+01 0.  1.
        -11    1    1    2    0    0  0.38151834538E+01 -0.36615950545E+02  0.91968242828E+02  0.99062814153E+02  0.00000000000E+00 0.  1.
         11    1    1    2    0    0 -0.17233843095E+02 -0.60445209913E+02  0.13217278893E+02  0.64228694604E+02  0.00000000000E+00 0. -1.
</event>
<event>
 7    1  0.2530765E-009  0.8306887E+02  0.7561462E-02  0.1320561E+00
         -1   -1    0    0    0  501 -0.00000000000E+00  0.00000000000E+00  0.10912729281E+02  0.10912729281E+02  0.00000000000E+00 0.  1.
          1   -1    0    0  501    0  0.00000000000E+00 -0.00000000000E+00 -0.86029742797E+03  0.86029742797E+03  0.00000000000E+00 0. -1.
         25    2    1    2    0    0  0.29358647467E+02 -0.18664617513E+02 -0.61950788005E+03  0.63296748236E+03  0.12509005622E+03 0.  0.
          5    1    3    3  502    0 -0.12157053595E+02  0.35469993823E+02 -0.42742050267E+03  0.42908236146E+03  0.41800000000E+01 0. -1.
         -5    1    3    3    0  502  0.41515701062E+02 -0.54134611336E+02 -0.19208737737E+03  0.20388512090E+03  0.41800000000E+01 0. -1.
        -11    1    1    2    0    0 -0.30589364810E+02 -0.93754688809E+01 -0.88470967305E+02  0.94078269075E+02  0.00000000000E+00 0.  1.
         11    1    1    2    0    0  0.12307173432E+01  0.28040086394E+02 -0.14140585134E+03  0.14416440581E+03  0.00000000000E+00 0. -1.
</event>
<event>
 7    1  0.2530765E-009  0.9248069E+02  0.7561462E-02  0.1296953E+00
          3   -1    0    0  501    0  0.00000000000E+00  0.00000000000E+00  0.50230300593E+03  0.50230300593E+03  0.00000000000E+00 0. -1.
         -3   -1    0    0    0  501 -0.00000000000E+00 -0.00000000000E+00 -0.27358303333E+02  0.27358303333E+02  0.00000000000E+00 0.  1.
         25    2    1    2    0    0  0.39326342357E+02  0.17762030834E+02  0.34580820850E+03  0.37025912811E+03  0.12508578633E+03 0.  0.
          5    1    3    3  502    0 -0.37768311259E+02 -0.20210902547E+02  0.79585395535E+02  0.90477806669E+02  0.41800000000E+01 0.  1.
         -5    1    3    3    0  502  0.77094653616E+02  0.37972933381E+02  0.26622281296E+03  0.27978132144E+03  0.41800000000E+01 0.  1.
        -11    1    1    2    0    0 -0.64462950811E+01 -0.21819428117E+02 -0.32055525504E+01  0.22976460363E+02  0.00000000000E+00 0.  1.
         11    1    1    2    0    0 -0.32880047276E+02  0.40573972830E+01  0.13234204665E+03  0.13642572079E+03  0.00000000000E+00 0. -1.
</event>
<event>
 7    1  0.2530765E-009  0.7764739E+02  0.7561462E-02  0.1335864E+00
         -2   -1    0    0    0  501 -0.00000000000E+00  0.00000000000E+00  0.43874502206E+02  0.43874502206E+02  0.00000000000E+00 0.  1.
          2   -1    0    0  501    0  0.00000000000E+00 -0.00000000000E+00 -0.27600526714E+03  0.27600526714E+03  0.00000000000E+00 0. -1.
         25    2    1    2    0    0 -0.12231896563E+02  0.72586459361E+01 -0.12247164071E+03  0.17564085141E+03  0.12509236056E+03 0.  0.
          5    1    3    3  502    0  0.88531597231E+01 -0.27276805569E+02  0.14748879703E+02  0.32517755329E+02  0.41800000000E+01 0. -1.
         -5    1    3    3    0  502 -0.21085056286E+02  0.34535451505E+02 -0.13722052041E+03  0.14312309608E+03  0.41800000000E+01 0. -1.
        -11    1    1    2    0    0  0.47766085157E+02 -0.13319071892E+02 -0.33107333708E+02  0.59624593185E+02  0.00000000000E+00 0.  1.
         11    1    1    2    0    0 -0.35534188593E+02  0.60604259559E+01 -0.76551790518E+02  0.84614324752E+02  0.00000000000E+00 0. -1.
</event>
<event>
 7    1  0.2530765E-009  0.5672871E+02  0.7561462E-02  0.1412096E+00
         -2   -1    0    0    0  501 -0.00000000000E+00  0.00000000000E+00  0.43832450152E+02  0.43832450152E+02  0.00000000000E+00 0.  1.
          2   -1    0    0  501    0  0.00000000000E+00 -0.00000000000E+00 -0.44005078620E+03  0.44005078620E+03  0.00000000000E+00 0. -1.
         25    2    1    2    0    0 -0.35265857902E+02 -0.30101795216E+02 -0.34429854351E+03  0.36924040556E+03  0.12508873343E+03 0.  0.
          5    1    3    3  502    0 -0.18673552872E+02 -0.22779456237E+02 -0.34882084048E+03  0.35008721250E+03  0.41800000000E+01 0. -1.
         -5    1    3    3    0  502 -0.16592305030E+02 -0.73223389794E+01  0.45222969785E+01  0.19153193058E+02  0.41800000000E+01 0. -1.
        -11    1    1    2    0    0 -0.63081255743E+01  0.21808392736E+02  0.20590609373E+02  0.30649170239E+02  0.00000000000E+00 0.  1.
         11    1    1    2    0    0  0.41573983476E+02  0.82934024807E+01 -0.72510401913E+02  0.83993660549E+02  0.00000000000E+00 0. -1.
</event>
<event>
 7    1  0.2530765E-009  0.1237774E+03  0.7561462E-02  0.1236992E+00
          1   -1    0    0  501    0  0.00000000000E+00  0.00000000000E+00  0.59404792977E+03  0.59404792977E+03  0.00000000000E+00 0. -1.
         -1   -1    0    0    0  501 -0.00000000000E+00 -0.00000000000E+00 -0.30326051357E+02  0.30326051357E+02  0.00000000000E+00 0.  1.
         25    2    1    2    0    0  0.23814601039E+02  0.76936008800E+02  0.30805169729E+03  0.34209572860E+03  0.12508938663E+03 0.  0.
          5    1    3    3  502    0  0.69014485202E+02  0.76300225001E+02  0.22515979233E+03  0.24758660704E+03  0.41800000000E+01 0. -1.
         -5    1    3    3    0  502 -0.45199884163E+02  0.63578379935E+00  0.82891904965E+02  0.94509121560E+02  0.41800000000E+01 0. -1.
        -11    1    1    2    0    0 -0.39982749753E+02 -0.31305805168E+02  0.20883597887E+03  0.21492124089E+03  0.00000000000E+00 0. -1.
         11    1    1    2    0    0  0.16168148714E+02 -0.45630203632E+02  0.46834202243E+02  0.67357011633E+02  0.00000000000E+00 0.  1.
</event>
<event>
 7    1  0.2530765E-009  0.6127298E+02  0.7561462E-02  0.1392566E+00
         -3   -1    0    0    0  501 -0.00000000000E+00  0.00000000000E+00  0.82226210235E+02  0.82226210235E+02  0.00000000000E+00 0.  1.
          3   -1    0    0  501    0  0.00000000000E+00 -0.00000000000E+00 -0.18202018721E+03  0.18202018721E+03  0.00000000000E+00 0. -1.
         25    2    1    2    0    0  0.14429795223E+02 -0.22700828963E+02  0.18178846107E+01  0.12795591141E+03  0.12508342790E+03 0.  0.
          5    1    3    3  502    0  0.40726355281E+01 -0.19484022425E+02  0.62729917906E+02  0.65944889799E+02  0.41800000000E+01 0.  1.
         -5    1    3    3    0  502  0.10357159695E+02 -0.32168065376E+01 -0.60912033296E+02  0.62011021613E+02  0.41800000000E+01 0.  1.
        -11    1    1    2    0    0 -0.31540766767E+02  0.49555244346E+02 -0.70601891322E+02  0.91843177584E+02  0.00000000000E+00 0.  1.
         11    1    1    2    0    0  0.17110971544E+02 -0.26854415384E+02 -0.31009970266E+02  0.44447308452E+02  0.00000000000E+00 0. -1.
</event>
<event>
 7    1  0.2530765E-009  0.1106409E+03  0.7561462E-02  0.1259388E+00
         -1   -1    0    0    0  501 -0.00000000000E+00  0.00000000000E+00  0.73202851529E+03  0.73202851529E+03  0.00000000000E+00 0.  1.
          1   -1    0    0  501    0  0.00000000000E+00 -0.00000000000E+00 -0.24511384394E+02  0.24511384394E+02  0.00000000000E+00 0. -1.
         25    2    1    2    0    0  0.24511540207E+02  0.72848787877E+02  0.37470761038E+03  0.40244383311E+03  0.12508990381E+03 0.  0.
          5    1    3    3  502    0 -0.60794100775E+01 -0.10018700262E+02 -0.43705645488E+01  0.13187411281E+02  0.41800000000E+01 0.  1.
         -5    1    3    3    0  502  0.30590950284E+02  0.82867488139E+02  0.37907817493E+03  0.38925642183E+03  0.41800000000E+01 0.  1.
        -11    1    1    2    0    0 -0.49545706593E+02 -0.70975716377E+01  0.12251286779E+03  0.13234256813E+03  0.00000000000E+00 0. -1.
         11    1    1    2    0    0  0.25034166386E+02 -0.65751216240E+02  0.21029665273E+03  0.22175349845E+03  0.00000000000E+00 0.  1.
</event>
<event>
 7    1  0.2530765E-009  0.1227279E+03  0.7561462E-02  0.1238664E+00
         -2   -1    0    0    0  501 -0.00000000000E+00  0.00000000000E+00  0.25810361700E+03  0.25810361700E+03  0.00000000000E+00 0.  1.
          2   -1    0    0  501    0  0.00000000000E+00 -0.00000000000E+00 -0.83924581881E+02  0.83924581881E+02  0.00000000000E+00 0. -1.
         25    2    1    2    0    0 -0.24189902234E+02 -0.82326799628E+02  0.40288286363E+02  0.15695151619E+03  0.12509108325E+03 0.  0.
          5    1    3    3  502    0  0.21827339403E+02  0.60441727588E+01  0.51681201932E+02  0.56580772378E+02  0.41800000000E+01 0. -1.
         -5    1    3    3    0  502 -0.46017241637E+02 -0.88370972387E+02 -0.11392915569E+02  0.10037074381E+03  0.41800000000E+01 0. -1.
        -11    1    1    2    0    0 -0.31888267687E+02  0.15475666311E+02  0.17278108470E+02  0.39432104891E+02  0.00000000000E+00 0. -1.
         11    1    1    2    0    0  0.56078169921E+02  0.66851133318E+02  0.11661264029E+03  0.14564457780E+03  0.00000000000E+00 0.  1.
</event>
<event>
 7    1  0.2530765E-009  0.1106105E+03  0.7561462E-02  0.1259444E+00
          1   -1    0    0  501    0  0.00000000000E+00  0.00000000000E+00  0.21647190785E+03  0.21647190785E+03  0.00000000000E+00 0. -1.
         -1   -1    0    0    0  501 -0.00000000000E+00 -0.00000000000E+00 -0.73250563278E+02  0.73250563278E+02  0.00000000000E+00 0.  1.
         25    2    1    2    0    0  0.46396177378E+01  0.38126270147E+02  0.13725479593E+02  0.13157092067E+03  0.12508948735E+03 0.  0.
          5    1    3    3  502    0 -0.30772346301E+02  0.73878703790E+02  0.12111998652E+02  0.81050435421E+02  0.41800000000E+01 0. -1.
         -5    1    3    3    0  502  0.35411964038E+02 -0.35752433644E+02  0.16134809402E+01  0.50520485244E+02  0.41800000000E+01 0. -1.
        -11    1    1    2    0    0  0.87688778598E+01  0.24769963923E+02  0.42490738207E+02  0.49959054885E+02  0.00000000000E+00 0.  1.
         11    1    1    2    0    0 -0.13408495598E+02 -0.62896234070E+02  0.87005126769E+02  0.10819249557E+03  0.00000000000E+00 0. -1.
</event>
<event>
 7    1  0.2530765E-009  0.9683933E+02  0.7561462E-02  0.1287086E+00
          2   -1    0    0  501    0  0.00000000000E+00  0.00000000000E+00  0.27944164073E+03  0.27944164073E+03  0.00000000000E+00 0. -1.
         -2   -1    0    0    0  501 -0.00000000000E+00 -0.00000000000E+00 -0.69529468538E+02  0.69529468538E+02  0.00000000000E+00 0.  1.
         25    2    1    2    0    0  0.47551143218E+02  0.10324483827E+02  0.21724881155E+03  0.25536674013E+03  0.12508964648E+03 0.  0.
          5    1    3    3  502    0  0.68508437666E+02 -0.32110521448E+02  0.80292361327E+02  0.11040302218E+03  0.41800000000E+01 0.  1.
         -5    1    3    3    0  502 -0.20957294448E+02  0.42435005275E+02  0.13695645022E+03  0.14496371795E+03  0.41800000000E+01 0.  1.
        -11    1    1    2    0    0 -0.18462472561E+02 -0.30033121047E+02 -0.34397581146E+02  0.49254896625E+02  0.00000000000E+00 0.  1.
         11    1    1    2    0    0 -0.29088670658E+02  0.19708637219E+02  0.27060941783E+02  0.44349472509E+02  0.00000000000E+00 0. -1.
</event>
<event>
 7    1  0.2530765E-009  0.1079425E+03  0.7561462E-02  0.1264428E+00
          1   -1    0    0  501    0  0.00000000000E+00  0.00000000000E+00  0.10507822573E+03  0.10507822573E+03  0.00000000000E+00 0. -1.
         -1   -1    0    0    0  501 -0.00000000000E+00 -0.00000000000E+00 -0.13924412659E+03  0.13924412659E+03  0.00000000000E+00 0.  1.
         25    2    1    2    0    0 -0.46406244615E+02 -0.73015374529E+01 -0.48201854046E+02  0.14205060590E+03  0.12509238153E+03 0.  0.
          5    1    3    3  502    0  0.42377448766E+02 -0.13072414403E+01 -0.27131111377E+02  0.50508678944E+02  0.41800000000E+01 0. -1.
         -5    1    3    3    0  502 -0.88783693381E+02 -0.59942960127E+01 -0.21070742669E+02  0.91541926961E+02  0.41800000000E+01 0. -1.
        -11    1    1    2    0    0  0.40211703850E+02 -0.27586153510E+02 -0.20401890641E+02  0.52860326652E+02  0.00000000000E+00 0.  1.
         11    1    1    2    0    0  0.61945407643E+01  0.34887690963E+02  0.34437843822E+02  0.49411419764E+02  0.00000000000E+00 0. -1.
</event>
<event>
 7    1  0.2530765E-009  0.9566820E+02  0.7561462E-02  0.1289678E+00
         -1   -1    0    0    0  501 -0.00000000000E+00  0.00000000000E+00  0.42033192613E+02  0.42033192613E+02  0.00000000000E+00 0.  1.
          1   -1    0    0  501    0  0.00000000000E+00 -0.00000000000E+00 -0.31246050661E+03  0.31246050661E+03  0.00000000000E+00 0. -1.
         25    2    1    2    0    0 -0.15190383226E+02 -0.34721571913E+02 -0.12621925959E+03  0.18170022811E+03  0.12508931251E+03 0.  0.
          5    1    3    3  502    0  0.37803057826E+02  0.25248375891E+02 -0.70888594666E+02  0.84316172351E+02  0.41800000000E+01 0.  1.
         -5    1    3    3    0  502 -0.52993441053E+02 -0.59969947804E+02 -0.55330664924E+02  0.97384055754E+02  0.41800000000E+01 0.  1.
        -11    1    1    2    0    0 -0.20086947841E+02  0.15505909729E+02 -0.24963397075E+01  0.25498047416E+02  0.00000000000E+00 0.  1.
         11    1    1    2    0    0  0.35277331068E+02  0.19215662184E+02 -0.14171171470E+03  0.14729542370E+03  0.00000000000E+00 0. -1.
</event>
<event>
 7    1  0.2530765E-009  0.1226384E+03  0.7561462E-02  0.1238807E+00
          2   -1    0    0  501    0  0.00000000000E+00  0.00000000000E+00  0.59373953046E+03  0.59373953046E+03  0.00000000000E+00 0. -1.
         -2   -1    0    0    0  501 -0.00000000000E+00 -0.00000000000E+00 -0.64549768627E+02  0.64549768627E+02  0.00000000000E+00 0.  1.
         25    2    1    2    0    0 -0.88865640927E+02 -0.58320414434E+02  0.71588163935E+02  0.17908268377E+03  0.12508944613E+03 0.  0.
          5    1    3    3  502    0 -0.53087604259E+02 -0.31247178125E+02 -0.29483612155E+02  0.68421017622E+02  0.41800000000E+01 0. -1.
         -5    1    3    3    0  502 -0.35778036668E+02 -0.27073236309E+02  0.10107177609E+03  0.11066166615E+03  0.41800000000E+01 0. -1.
        -11    1    1    2    0    0  0.78446699244E+02 -0.79081556121E+00  0.31214597941E+03  0.32185341768E+03  0.00000000000E+00 0. -1.
         11    1    1    2    0    0  0.10418941683E+02  0.59111229996E+02  0.14545561849E+03  0.15735319764E+03  0.00000000000E+00 0.  1.
</event>
<event>
 7    1  0.2530765E-009  0.1645643E+03  0.7561462E-02  0.1183638E+00
         -2   -1    0    0    0  501 -0.00000000000E+00  0.00000000000E+00  0.37778400583E+02  0.37778400583E+02  0.00000000000E+00 0. -1.
          2   -1    0    0  501    0  0.00000000000E+00 -0.00000000000E+00 -0.83946922400E+03  0.83946922400E+03  0.00000000000E+00 0.  1.
         25    2    1    2    0    0 -0.97500387091E+02 -0.89445648163E+02 -0.30779628908E+03  0.35762195639E+03  0.12509220064E+03 0.  0.
          5    1    3    3  502    0 -0.94011912454E+02 -0.16320196098E+02 -0.23774001902E+03  0.25620768436E+03  0.41800000000E+01 0. -1.
         -5    1    3    3    0  502 -0.34884746370E+01 -0.73125452066E+02 -0.70056270060E+02  0.10141427202E+03  0.41800000000E+01 0. -1.
        -11    1    1    2    0    0  0.56999427381E+02 -0.53066859433E+01 -0.20773289464E+03  0.21547633549E+03  0.00000000000E+00 0. -1.
         11    1    1    2    0    0  0.40500959711E+02  0.94752334106E+02 -0.28616163970E+03  0.30414933271E+03  0.00000000000E+00 0.  1.
</event>
<event>
 7    1  0.3837078E-009  0.1181451E+03  0.7561462E-02  0.1246189E+00
          1   -1    0    0  501    0  0.00000000000E+00  0.00000000000E+00  0.16052979702E+03  0.16052979702E+03  0.00000000000E+00 0. -1.
         -1   -1    0    0    0  501 -0.00000000000E+00 -0.00000000000E+00 -0.13579051572E+03  0.13579051572E+03  0.00000000000E+00 0.  1.
         25    2    1    2    0    0  0.93717118126E+02 -0.33773462379E+02  0.75374936946E+01  0.16008617610E+03  0.12508886831E+03 0.  0.
          5    1    3    3  502    0  0.81256529563E+02  0.14578003855E+02 -0.39274247965E+02  0.91515467251E+02  0.41800000000E+01 0. -1.
         -5    1    3    3    0  502  0.12460588563E+02 -0.48351466234E+02  0.46811741659E+02  0.68570708845E+02  0.41800000000E+01 0. -1.
        -11    1    1    2    0    0 -0.77369296417E+02  0.15320261319E+02 -0.28863330028E+02  0.83986964794E+02  0.00000000000E+00 0.  1.
         11    1    1    2    0    0 -0.16347821709E+02  0.18453201059E+02  0.46065117632E+02  0.52247171850E+02  0.00000000000E+00 0. -1.
</event>
<event>
 7    1  0.2530765E-009  0.1648198E+03  0.7561462E-02  0.1183360E+00
          2   -1    0    0  501    0  0.00000000000E+00  0.00000000000E+00  0.84880823178E+03  0.84880823178E+03  0.00000000000E+00 0. -1.
         -2   -1    0    0    0  501 -0.00000000000E+00 -0.00000000000E+00 -0.46518546106E+02  0.46518546106E+02  0.00000000000E+00 0.  1.
         25    2    1    2    0    0 -0.13688799968E+03  0.28822991059E+02  0.62195329120E+03  0.64964776862E+03  0.12508891868E+03 0.  0.
          5    1    3    3  502    0  0.11427023399E+02 -0.25133347812E+02  0.13063163613E+03  0.13358277881E+03  0.41800000000E+01 0. -1.
         -5    1    3    3    0  502 -0.14831502308E+03  0.53956338872E+02  0.49132165506E+03  0.51606498981E+03  0.41800000000E+01 0. -1.
        -11    1    1    2    0    0  0.38358719242E+02 -0.23876067710E+02  0.12422042451E+03  0.13218234306E+03  0.00000000000E+00 0. -1.
         11    1    1    2    0    0  0.98529280441E+02 -0.49469233492E+01  0.56115969975E+02  0.11349666621E+03  0.00000000000E+00 0.  1.
</event>
<event>
 7    1  0.2530765E-009  0.1108086E+03  0.7561462E-02  0.1259080E+00
          2   -1    0    0  501    0  0.00000000000E+00  0.00000000000E+00  0.10962858725E+03  0.10962858725E+03  0.00000000000E+00 0. -1.
         -2   -1    0    0    0  501 -0.00000000000E+00 -0.00000000000E+00 -0.12310574380E+03  0.12310574380E+03  0.00000000000E+00 0.  1.
         25    2    1    2    0    0 -0.36022019195E+02  0.15653678502E+02  0.88341760788E+01  0.13141069421E+03  0.12509238334E+03 0.  0.
          5    1    3    3  502    0  0.38064872028E+02  0.29055265692E+02 -0.18064936323E+02  0.51351312265E+02  0.41800000000E+01 0. -1.
         -5    1    3    3    0  502 -0.74086891223E+02 -0.13401587190E+02  0.26899112402E+02  0.80059381950E+02  0.41800000000E+01 0. -1.
        -11    1    1    2    0    0  0.65577677153E+02 -0.19311475353E+02 -0.20995396786E+02  0.71513435851E+02  0.00000000000E+00 0.  1.
         11    1    1    2    0    0 -0.29555657958E+02  0.36577968511E+01 -0.13159358460E+01  0.29810200977E+02  0.00000000000E+00 0. -1.
</event>
<event>
 7    1  0.2530765E-009  0.1753982E+03  0.7561462E-02  0.1172333E+00
         -1   -1    0    0    0  501 -0.00000000000E+00  0.00000000000E+00  0.36479845366E+02  0.36479845366E+02  0.00000000000E+00 0.  1.
          1   -1    0    0  501    0  0.00000000000E+00 -0.00000000000E+00 -0.99169135216E+03  0.99169135216E+03  0.00000000000E+00 0. -1.
         25    2    1    2    0    0  0.14633237081E+03 -0.33098695291E+02 -0.62461481368E+03  0.65444655897E+03  0.12509175312E+03 0.  0.
          5    1    3    3  502    0  0.79697796877E+02 -0.75655659862E+02 -0.27925300403E+03  0.30012535773E+03  0.41800000000E+01 0. -1.
         -5    1    3    3    0  502  0.66634573929E+02  0.42556964571E+02 -0.34536180966E+03  0.35432120124E+03  0.41800000000E+01 0. -1.
        -11    1    1    2    0    0 -0.56252154829E+02  0.43313224514E+02 -0.21740499622E+03  0.22870346024E+03  0.00000000000E+00 0. -1.
         11    1    1    2    0    0 -0.90080215977E+02 -0.10214529223E+02 -0.11319169689E+03  0.14502117832E+03  0.00000000000E+00 0.  1.
</event>
<event>
 7    1  0.2530765E-009  0.1739512E+03  0.7561462E-02  0.1173789E+00
         -2   -1    0    0    0  501 -0.00000000000E+00  0.00000000000E+00  0.26645574231E+02  0.26645574231E+02  0.00000000000E+00 0. -1.
          2   -1    0    0  501    0  0.00000000000E+00 -0.00000000000E+00 -0.13679874809E+04  0.13679874809E+04  0.00000000000E+00 0.  1.
         25    2    1    2    0    0 -0.14636145105E+03 -0.52791366279E+02 -0.78183299210E+03  0.80691670611E+03  0.12507254036E+03 0.  0.
          5    1    3    3  502    0  0.11179688743E+02  0.13809918300E+02 -0.18927432062E+03  0.19015241289E+03  0.41800000000E+01 0. -1.
         -5    1    3    3    0  502 -0.15754113980E+03 -0.66601284580E+02 -0.59255867148E+03  0.61676429321E+03  0.41800000000E+01 0. -1.
        -11    1    1    2    0    0  0.21179675966E+02  0.20050503929E+02 -0.27108588172E+02  0.39818047849E+02  0.00000000000E+00 0. -1.
         11    1    1    2    0    0  0.12518177509E+03  0.32740862351E+02 -0.53240032638E+03  0.54789830116E+03  0.00000000000E+00 0.  1.
</event>
<event>
 7    1  0.2530765E-009  0.6852242E+02  0.7561462E-02  0.1365191E+00
         -2   -1    0    0    0  501 -0.00000000000E+00  0.00000000000E+00  0.59475586596E+02  0.59475586596E+02  0.00000000000E+00 0.  1.
          2   -1    0    0  501    0  0.00000000000E+00 -0.00000000000E+00 -0.22133121471E+03  0.22133121471E+03  0.00000000000E+00 0. -1.
         25    2    1    2    0    0 -0.13688286074E+02  0.20123107194E+02 -0.12605057463E+03  0.17924872493E+03  0.12509616063E+03 0.  0.
          5    1    3    3  502    0  0.14590736216E+02  0.14499731401E+01 -0.14110944205E+03  0.14193075439E+03  0.41800000000E+01 0. -1.
         -5    1    3    3    0  502 -0.28279022290E+02  0.18673134054E+02  0.15058867423E+02  0.37317970538E+02  0.41800000000E+01 0. -1.
        -11    1    1    2    0    0  0.48759726339E+02 -0.19673384539E+02 -0.16555549941E+01  0.52605074225E+02  0.00000000000E+00 0.  1.
         11    1    1    2    0    0 -0.35071440265E+02 -0.44972265483E+00 -0.34149498491E+02  0.48953002154E+02  0.00000000000E+00 0. -1.
</event>
<event>
 7    1  0.2530765E-009  0.1280788E+03  0.7561462E-02  0.1230335E+00
          1   -1    0    0  501    0  0.00000000000E+00  0.00000000000E+00  0.56491527577E+03  0.56491527577E+03  0.00000000000E+00 0. -1.
         -1   -1    0    0    0  501 -0.00000000000E+00 -0.00000000000E+00 -0.46510129330E+02  0.46510129330E+02  0.00000000000E+00 0.  1.
         25    2    1    2    0    0  0.61047218862E+02 -0.59426241591E+02  0.11919497313E+03  0.19264727691E+03  0.12508913047E+03 0.  0.
          5    1    3    3  502    0  0.97269523765E+01 -0.77327572674E+02  0.21803466859E+02  0.81037217779E+02  0.41800000000E+01 0. -1.
         -5    1    3    3    0  502  0.51320266485E+02  0.17901331083E+02  0.97391506269E+02  0.11161005913E+03  0.41800000000E+01 0. -1.
        -11    1    1    2    0    0  0.16001328884E+02  0.41515568747E+02  0.18928712333E+03  0.19444587945E+03  0.00000000000E+00 0. -1.
         11    1    1    2    0    0 -0.77048547746E+02  0.17910672844E+02  0.20992304998E+03  0.22433224874E+03  0.00000000000E+00 0.  1.
</event>
<event>
 7    1  0.2530765E-009  0.2102682E+03  0.7561462E-02  0.1141354E+00
          1   -1    0    0  501    0  0.00000000000E+00  0.00000000000E+00  0.24067383135E+03  0.24067383135E+03  0.00000000000E+00 0. -1.
         -1   -1    0    0    0  501 -0.00000000000E+00 -0.00000000000E+00 -0.22754792936E+03  0.22754792936E+03  0.00000000000E+00 0.  1.
         25    2    1    2    0    0 -0.37549959540E+02 -0.17998707649E+03 -0.87438446517E+02  0.23895256134E+03  0.12508995755E+03 0.  0.
          5    1    3    3  502    0  0.23600029423E+02 -0.15214439720E+03 -0.71308315633E+02  0.16972691969E+03  0.41800000000E+01 0.  1.
         -5    1    3    3    0  502 -0.61149988964E+02 -0.27842679288E+02 -0.16130130884E+02  0.69225641655E+02  0.41800000000E+01 0.  1.
        -11    1    1    2    0    0  0.50989678801E+02  0.61232471411E+02  0.12142441067E+02  0.80602740490E+02  0.00000000000E+00 0.  1.
         11    1    1    2    0    0 -0.13439719261E+02  0.11875460508E+03  0.88421907437E+02  0.14866645888E+03  0.00000000000E+00 0. -1.
</event>
<event>
 7    1  0.2530765E-009  0.8367438E+02  0.7561462E-02  0.1318936E+00
          2   -1    0    0  501    0  0.00000000000E+00  0.00000000000E+00  0.10966842401E+04  0.10966842401E+04  0.00000000000E+00 0. -1.
         -2   -1    0    0    0  501 -0.00000000000E+00 -0.00000000000E+00 -0.27029941443E+02  0.27029941443E+02  0.00000000000E+00 0.  1.
         25    2    1    2    0    0 -0.16038985147E+01 -0.15497550353E+02  0.10027018988E+04  0.10105943527E+04  0.12508837339E+03 0.  0.
          5    1    3    3  502    0 -0.19305780081E+02 -0.55770425811E+02  0.26296351275E+03  0.26953726083E+03  0.41800000000E+01 0. -1.
         -5    1    3    3    0  502  0.17701881567E+02  0.40272875458E+02  0.73973838607E+03  0.74105709182E+03  0.41800000000E+01 0. -1.
        -11    1    1    2    0    0  0.22919615080E+02 -0.14554007412E+02 -0.90821991511E+01  0.28628905474E+02  0.00000000000E+00 0.  1.
         11    1    1    2    0    0 -0.21315716566E+02  0.30051557766E+02  0.76034599002E+02  0.84490923431E+02  0.00000000000E+00 0. -1.
</event>
<event>
 7    1  0.2530765E-009  0.1465219E+03  0.7561462E-02  0.1204813E+00
          2   -1    0    0  501    0  0.00000000000E+00  0.00000000000E+00  0.14682775032E+03  0.14682775032E+03  0.00000000000E+00 0. -1.
         -2   -1    0    0    0  501 -0.00000000000E+00 -0.00000000000E+00 -0.17289831825E+03  0.17289831825E+03  0.00000000000E+00 0.  1.
         25    2    1    2    0    0  0.53972880105E+02 -0.86834397722E+02 -0.69690293666E+02  0.17595620565E+03  0.12510221765E+03 0.  0.
          5    1    3    3  502    0 -0.27551135404E+02  0.10845400732E+02  0.18001933812E+01  0.29956649935E+02  0.41800000000E+01 0.  1.
         -5    1    3    3    0  502  0.81524015509E+02 -0.97679798453E+02 -0.71490487047E+02  0.14599955571E+03  0.41800000000E+01 0.  1.
        -11    1    1    2    0    0 -0.69441459459E+02  0.95526443924E+02  0.43980931785E+02  0.12602277628E+03  0.00000000000E+00 0.  1.
         11    1    1    2    0    0  0.15468579354E+02 -0.86920462029E+01 -0.36120604603E+00  0.17747086641E+02  0.00000000000E+00 0. -1.
</event>
<event>
 7    1  0.2530765E-009  0.1003055E+03  0.7561462E-02  0.1279655E+00
          3   -1    0    0  501    0  0.00000000000E+00  0.00000000000E+00  0.53688448824E+03  0.53688448824E+03  0.00000000000E+00 0. -1.
         -3   -1    0    0    0  501 -0.00000000000E+00 -0.00000000000E+00 -0.26744743021E+02  0.26744743021E+02  0.00000000000E+00 0.  1.
         25    2    1    2    0    0  0.17115865843E+02  0.45957289020E+02  0.38313734326E+03  0.40601185363E+03  0.12508547560E+03 0.  0.
          5    1    3    3  502    0  0.60863093301E+02  0.29914923653E+02  0.32166137072E+03  0.32875937796E+03  0.41800000000E+01 0. -1.
         -5    1    3    3    0  502 -0.43747227458E+02  0.16042365367E+02  0.61475972540E+02  0.77252475666E+02  0.41800000000E+01 0. -1.
        -11    1    1    2    0    0  0.18782273148E+02 -0.46318613949E+02  0.41786968172E+02  0.65148587796E+02  0.00000000000E+00 0.  1.
         11    1    1    2    0    0 -0.35898138991E+02  0.36132492850E+00  0.85215433787E+02  0.92468789839E+02  0.00000000000E+00 0. -1.
</event>
<event>
 7    1  0.2530765E-009  0.1055185E+03  0.7561462E-02  0.1269101E+00
          2   -1    0    0  501    0  0.00000000000E+00  0.00000000000E+00  0.19548619860E+03  0.19548619860E+03  0.00000000000E+00 0. -1.
         -2   -1    0    0    0  501 -0.00000000000E+00 -0.00000000000E+00 -0.77184806072E+02  0.77184806072E+02  0.00000000000E+00 0.  1.
         25    2    1    2    0    0 -0.45199011869E+02  0.32459916065E+02  0.78585815825E+02  0.15785926555E+03  0.12508885021E+03 0.  0.
          5    1    3    3  502    0 -0.56658583136E+02  0.69583000932E+02  0.77702513057E+02  0.11877349030E+03  0.41800000000E+01 0. -1.
         -5    1    3    3    0  502  0.11459571267E+02 -0.37123084867E+02  0.88330276813E+00  0.39085775257E+02  0.41800000000E+01 0. -1.
        -11    1    1    2    0    0  0.37115569583E+02  0.10376365684E+02  0.56252784707E+02  0.68188050695E+02  0.00000000000E+00 0. -1.
         11    1    1    2    0    0  0.80834422865E+01 -0.42836281749E+02 -0.16537208007E+02  0.46623688421E+02  0.00000000000E+00 0.  1.
</event>
<event>
 7    1  0.2530765E-009  0.1168377E+03  0.7561462E-02  0.1248407E+00
         -2   -1    0    0    0  501 -0.00000000000E+00  0.00000000000E+00  0.33247100639E+02  0.33247100639E+02  0.00000000000E+00 0.  1.
          2   -1    0    0  501    0  0.00000000000E+00 -0.00000000000E+00 -0.65530033479E+03  0.65530033479E+03  0.00000000000E+00 0. -1.
         25    2    1    2    0    0  0.52698412825E+02 -0.62459494194E+02 -0.47373441060E+03  0.49673902878E+03  0.12508820809E+03 0.  0.
          5    1    3    3  502    0  0.25665358852E+01  0.17587447597E+02 -0.28562440782E+03  0.28620740760E+03  0.41800000000E+01 0.  1.
         -5    1    3    3    0  502  0.50131876940E+02 -0.80046941791E+02 -0.18811000277E+03  0.21053162119E+03  0.41800000000E+01 0.  1.
        -11    1    1    2    0    0 -0.25180816897E+02  0.82871757358E+02 -0.11546691313E+03  0.14434129601E+03  0.00000000000E+00 0. -1.
         11    1    1    2    0    0 -0.27517595929E+02 -0.20412263164E+02 -0.32851910428E+02  0.47467110634E+02  0.00000000000E+00 0.  1.
</event>
<event>
 7    1  0.2530765E-009  0.8516293E+02  0.7561462E-02  0.1315007E+00
          1   -1    0    0  501    0  0.00000000000E+00  0.00000000000E+00  0.43495129365E+02  0.43495129365E+02  0.00000000000E+00 0. -1.
         -1   -1    0    0    0  501 -0.00000000000E+00 -0.00000000000E+00 -0.32998743272E+03  0.32998743272E+03  0.00000000000E+00 0.  1.
         25    2    1    2    0    0 -0.33697442180E+02  0.36602657229E+02 -0.14298381250E+03  0.19638227119E+03  0.12508538553E+03 0.  0.
          5    1    3    3  502    0 -0.25557884010E+02 -0.15719883807E+02 -0.13993656807E+03  0.14317833519E+03  0.41800000000E+01 0.  1.
         -5    1    3    3    0  502 -0.81395581697E+01  0.52322541036E+02 -0.30472444285E+01  0.53203936004E+02  0.41800000000E+01 0.  1.
        -11    1    1    2    0    0  0.47314849721E+02 -0.49274359534E+02 -0.14301474520E+03  0.15849250725E+03  0.00000000000E+00 0.  1.
         11    1    1    2    0    0 -0.13617407542E+02  0.12671702305E+02 -0.49374565806E+00  0.18607783646E+02  0.00000000000E+00 0. -1.
</event>
<event>
 7    1  0.2530765E-009  0.1251309E+03  0.7561462E-02  0.1234865E+00
          2   -1    0    0  501    0  0.00000000000E+00  0.00000000000E+00  0.75392411624E+02  0.75392411624E+02  0.00000000000E+00 0.  1.
         -2   -1    0    0    0  501 -0.00000000000E+00 -0.00000000000E+00 -0.35381431323E+03  0.35381431323E+03  0.00000000000E+00 0. -1.
         25    2    1    2    0    0 -0.76812643891E+02  0.32647375382E+02 -0.26569801585E+03  0.30530291349E+03  0.12509356489E+03 0.  0.
          5    1    3    3  502    0 -0.66330178342E+01 -0.42097397999E+02 -0.46136086693E+02  0.62945998596E+02  0.41800000000E+01 0. -1.
         -5    1    3    3    0  502 -0.70179626057E+02  0.74744773382E+02 -0.21956192915E+03  0.24235691489E+03  0.41800000000E+01 0. -1.
        -11    1    1    2    0    0  0.53094727919E+02  0.11852423551E+02 -0.39101117857E+02  0.66995727435E+02  0.00000000000E+00 0. -1.
         11    1    1    2    0    0  0.23717915972E+02 -0.44499798933E+02  0.26377232102E+02  0.56908083929E+02  0.00000000000E+00 0.  1.
</event>
<event>
 7    1  0.2530765E-009  0.1246136E+03  0.7561462E-02  0.1235674E+00
         -2   -1    0    0    0  501 -0.00000000000E+00  0.00000000000E+00  0.65078533492E+02  0.65078533492E+02  0.00000000000E+00 0.  1.
          2   -1    0    0  501    0  0.00000000000E+00 -0.00000000000E+00 -0.30418064345E+03  0.30418064345E+03  0.00000000000E+00 0. -1.
         25    2    1    2    0    0 -0.66217951010E+02  0.54424470100E+02 -0.10611747459E+03  0.18508116353E+03  0.12508908305E+03 0.  0.
          5    1    3    3  502    0 -0.98854544836E+02  0.41386420977E+02 -0.49059738037E+02  0.11793806498E+03  0.41800000000E+01 0.  1.
         -5    1    3    3    0  502  0.32636593826E+02  0.13038049124E+02 -0.57057736555E+02  0.67143098545E+02  0.41800000000E+01 0.  1.
        -11    1    1    2    0    0  0.11310506389E+01 -0.39875915327E+02 -0.54563800521E+01  0.40263382644E+02  0.00000000000E+00 0.  1.
         11    1    1    2    0    0  0.65086900371E+02 -0.14548554774E+02 -0.12752825531E+03  0.14391463077E+03  0.00000000000E+00 0. -1.
</event>
<event>
 7    1  0.2530765E-009  0.2048765E+03  0.7561462E-02  0.1145689E+00
          1   -1    0    0  501    0  0.00000000000E+00  0.00000000000E+00  0.32205370149E+04  0.32205370149E+04  0.00000000000E+00 0. -1.
         -1   -1    0    0    0  501 -0.00000000000E+00 -0.00000000000E+00 -0.20997911800E+02  0.20997911800E+02  0.00000000000E+00 0.  1.
         25    2    1    2    0    0 -0.74970170593E+01 -0.19796129326E+03  0.24408962176E+04  0.24521148590E+04  0.12509219690E+03 0.  0.
          5    1    3    3  502    0 -0.60974637062E+01 -0.13552442946E+03  0.21631191438E+04  0.21673730535E+04  0.41800000000E+01 0.  1.
         -5    1    3    3    0  502 -0.13995533530E+01 -0.62436863799E+02  0.27777707380E+03  0.28474180557E+03  0.41800000000E+01 0.  1.
        -11    1    1    2    0    0  0.27980383963E+02  0.25801516510E+02  0.74605434062E+02  0.83753154762E+02  0.00000000000E+00 0.  1.
         11    1    1    2    0    0 -0.20483366904E+02  0.17215977675E+03  0.68403745143E+03  0.70566691293E+03  0.00000000000E+00 0. -1.
</event>
<event>
 7    1  0.2530765E-009  0.9386211E+02  0.7561462E-02  0.1293760E+00
          1   -1    0    0  501    0  0.00000000000E+00  0.00000000000E+00  0.12517315212E+03  0.12517315212E+03  0.00000000000E+00 0. -1.
         -1   -1    0    0    0  501 -0.00000000000E+00 -0.00000000000E+00 -0.17408914086E+03  0.17408914086E+03  0.00000000000E+00 0.  1.
         25    2    1    2    0    0  0.53654520157E+02  0.30839408218E+02 -0.10518060770E+03  0.17475719755E+03  0.12508893327E+03 0.  0.
          5    1    3    3  502    0  0.59641557165E+02 -0.26643867444E+02 -0.95846875609E+02  0.11606509802E+03  0.41800000000E+01 0.  1.
         -5    1    3    3    0  502 -0.59870370073E+01  0.57483275662E+02 -0.93337320905E+01  0.58692099534E+02  0.41800000000E+01 0.  1.
        -11    1    1    2    0    0 -0.29339526002E+02 -0.26676986109E+02  0.80616574199E+02  0.89841534990E+02  0.00000000000E+00 0. -1.
         11    1    1    2    0    0 -0.24314994155E+02 -0.41624221087E+01 -0.24351955234E+02  0.34663560439E+02  0.00000000000E+00 0.  1.
</event>
<event>
 7    1  0.2530765E-009  0.1031405E+03  0.7561462E-02  0.1273827E+00
          1   -1    0    0  501    0  0.00000000000E+00  0.00000000000E+00  0.25352614722E+03  0.25352614722E+03  0.00000000000E+00 0. -1.
         -1   -1    0    0    0  501 -0.00000000000E+00 -0.00000000000E+00 -0.62490833883E+02  0.62490833883E+02  0.00000000000E+00 0.  1.
         25    2    1    2    0    0 -0.53036899030E+01  0.60283864891E+02  0.13090173983E+03  0.19090792080E+03  0.12509314626E+03 0.  0.
          5    1    3    3  502    0  0.23242494728E+02 -0.19380340379E+02  0.93368364118E+02  0.98239172291E+02  0.41800000000E+01 0. -1.
         -5    1    3    3    0  502 -0.28546184631E+02  0.79664205269E+02  0.37533375708E+02  0.92668748509E+02  0.41800000000E+01 0. -1.
        -11    1    1    2    0    0  0.35020644198E+02 -0.18149746708E+02 -0.74111048766E+01  0.40134564917E+02  0.00000000000E+00 0.  1.
         11    1    1    2    0    0 -0.29716954295E+02 -0.42134118182E+02  0.67544678391E+02  0.84974495389E+02  0.00000000000E+00 0. -1.
</event>
<event>
 7    1  0.2530765E-009  0.1169587E+03  0.7561462E-02  0.1248200E+00
          4   -1    0    0  501    0  0.00000000000E+00  0.00000000000E+00  0.82992559157E+02  0.82992559157E+02  0.00000000000E+00 0. -1.
         -4   -1    0    0    0  501 -0.00000000000E+00 -0.00000000000E+00 -0.24701332251E+03  0.24701332251E+03  0.00000000000E+00 0.  1.
         25    2    1    2    0    0  0.37774844604E+02 -0.58889375783E+02 -0.32777140221E+02  0.14702585795E+03  0.12508942610E+03 0.  0.
          5    1    3    3  502    0  0.30757880678E+02 -0.83904181216E+02  0.16680292641E+02  0.91003645047E+02  0.41800000000E+01 0. -1.
         -5    1    3    3    0  502  0.70169639266E+01  0.25014805433E+02 -0.49457432862E+02  0.56022212906E+02  0.41800000000E+01 0. -1.
        -11    1    1    2    0    0  0.29231053299E+02  0.45497313804E+00 -0.67573113827E+02  0.73625995340E+02  0.00000000000E+00 0.  1.
         11    1    1    2    0    0 -0.67005897903E+02  0.58434402645E+02 -0.63670509305E+02  0.10935402837E+03  0.00000000000E+00 0. -1.
</event>
<event>
 7    1  0.2530765E-009  0.1143574E+03  0.7561462E-02  0.1252707E+00
         -1   -1    0    0    0  501 -0.00000000000E+00  0.00000000000E+00  0.19278403218E+03  0.19278403218E+03  0.00000000000E+00 0.  1.
          1   -1    0    0  501    0  0.00000000000E+00 -0.00000000000E+00 -0.72564102871E+02  0.72564102871E+02  0.00000000000E+00 0. -1.
         25    2    1    2    0    0  0.36182896405E+02 -0.29565187377E+02  0.51519647860E+02  0.14312475367E+03  0.12508844352E+03 0.  0.
          5    1    3    3  502    0  0.77258631924E+02  0.78515569922E+01  0.31777211636E+02  0.84010753676E+02  0.41800000000E+01 0.  1.
         -5    1    3    3    0  502 -0.41075735519E+02 -0.37416744369E+02  0.19742436224E+02  0.59113999997E+02  0.41800000000E+01 0.  1.
        -11    1    1    2    0    0  0.13658208600E+02 -0.20466304063E+02  0.13601830872E+01  0.24642775051E+02  0.00000000000E+00 0.  1.
         11    1    1    2    0    0 -0.49841105005E+02  0.50031491440E+02  0.67340098365E+02  0.97580606329E+02  0.00000000000E+00 0. -1.
</event>
<event>
 7    1  0.2530765E-009  0.2622244E+03  0.7561462E-02  0.1105814E+00
          2   -1    0    0  501    0  0.00000000000E+00  0.00000000000E+00  0.71706377525E+03  0.71706377525E+03  0.00000000000E+00 0. -1.
         -2   -1    0    0    0  501 -0.00000000000E+00 -0.00000000000E+00 -0.98560803025E+02  0.98560803025E+02  0.00000000000E+00 0.  1.
         25    2    1    2    0    0 -0.70542722833E+02  0.22973181292E+03  0.37892097364E+03  0.46581299228E+03  0.12509059875E+03 0.  0.
          5    1    3    3  502    0  0.75674971907E+01  0.17549440082E+03  0.24232875456E+03  0.29932632597E+03  0.41800000000E+01 0. -1.
         -5    1    3    3    0  502 -0.78110220024E+02  0.54237412101E+02  0.13659221909E+03  0.16648666631E+03  0.41800000000E+01 0. -1.
        -11    1    1    2    0    0  0.49696505516E+01 -0.15104941319E+03  0.12502079293E+03  0.19613980043E+03  0.00000000000E+00 0. -1.
         11    1    1    2    0    0  0.65573072282E+02 -0.78682399736E+02  0.11456120566E+03  0.15367178556E+03  0.00000000000E+00 0.  1.
</event>
<event>
 7    1  0.2530765E-009  0.5320332E+03  0.7561462E-02  0.1005740E+00
         -1   -1    0    0    0  501 -0.00000000000E+00  0.00000000000E+00  0.31396059789E+03  0.31396059789E+03  0.00000000000E+00 0.  1.
          1   -1    0    0  501    0  0.00000000000E+00 -0.00000000000E+00 -0.92106540215E+03  0.92106540215E+03  0.00000000000E+00 0. -1.
         25    2    1    2    0    0  0.25927866798E+03  0.44899596188E+03 -0.24140401949E+03  0.58544539334E+03  0.12509039333E+03 0.  0.
          5    1    3    3  502    0  0.26925382384E+03  0.40377138426E+03 -0.23230670960E+03  0.53806396657E+03  0.41800000000E+01 0.  1.
         -5    1    3    3    0  502 -0.99751558576E+01  0.45224577622E+02 -0.90973098912E+01  0.47381426769E+02  0.41800000000E+01 0.  1.
        -11    1    1    2    0    0 -0.50038592753E+02 -0.18079670132E+02 -0.13162035915E+02  0.54808525123E+02  0.00000000000E+00 0.  1.
         11    1    1    2    0    0 -0.20924007523E+03 -0.43091629175E+03 -0.35253874886E+03  0.59477208158E+03  0.00000000000E+00 0. -1.
</event>
<event>
 7    1  0.2530765E-009  0.4097225E+03  0.7561462E-02  0.1040464E+00
         -2   -1    0    0    0  501 -0.00000000000E+00  0.00000000000E+00  0.23490241431E+03  0.23490241431E+03  0.00000000000E+00 0.  1.
          2   -1    0    0  501    0  0.00000000000E+00 -0.00000000000E+00 -0.81074869527E+03  0.81074869527E+03  0.00000000000E+00 0. -1.
         25    2    1    2    0    0 -0.34249877316E+03  0.21538945787E+03 -0.14479937847E+03  0.44756382032E+03  0.12509390504E+03 0.  0.
          5    1    3    3  502    0 -0.16134567430E+03  0.52484108878E+02 -0.10792002600E+03  0.20112486846E+03  0.41800000000E+01 0.  1.
         -5    1    3    3    0  502 -0.18115309886E+03  0.16290534899E+03 -0.36879352469E+02  0.24643895186E+03  0.41800000000E+01 0.  1.
        -11    1    1    2    0    0  0.96720231170E+02 -0.79624189019E+02 -0.80337152933E+02  0.14882497349E+03  0.00000000000E+00 0. -1.
         11    1    1    2    0    0  0.24577854199E+03 -0.13576526885E+03 -0.35070974955E+03  0.44926231576E+03  0.00000000000E+00 0.  1.
</event>
<event>
 7    1  0.2530765E-009  0.1533221E+03  0.7561462E-02  0.1196449E+00
          2   -1    0    0  501    0  0.00000000000E+00  0.00000000000E+00  0.10862106314E+04  0.10862106314E+04  0.00000000000E+00 0. -1.
         -2   -1    0    0    0  501 -0.00000000000E+00 -0.00000000000E+00 -0.22903712772E+02  0.22903712772E+02  0.00000000000E+00 0.  1.
         25    2    1    2    0    0 -0.11065103068E+03  0.18623619663E+02  0.62944647782E+03  0.65149153615E+03  0.12509142030E+03 0.  0.
          5    1    3    3  502    0 -0.13707162390E+03  0.17445982747E+02  0.56578378447E+03  0.58242746807E+03  0.41800000000E+01 0.  1.
         -5    1    3    3    0  502  0.26420593224E+02  0.11776369159E+01  0.63662693349E+02  0.69064068078E+02  0.41800000000E+01 0.  1.
        -11    1    1    2    0    0  0.36292830250E+02 -0.49277150109E+02  0.13677157979E+03  0.14983948775E+03  0.00000000000E+00 0.  1.
         11    1    1    2    0    0  0.74358200426E+02  0.30653530446E+02  0.29708886103E+03  0.30778332029E+03  0.00000000000E+00 0. -1.
</event>
<event>
 7    1  0.3225621E-009  0.1682223E+03  0.7561462E-02  0.1179714E+00
         -1   -1    0    0    0  501 -0.00000000000E+00  0.00000000000E+00  0.65108677146E+02  0.65108677146E+02  0.00000000000E+00 0.  1.
          1   -1    0    0  501    0  0.00000000000E+00 -0.00000000000E+00 -0.53102006011E+03  0.53102006011E+03  0.00000000000E+00 0. -1.
         25    2    1    2    0    0  0.13418028417E+03  0.68616589682E+02 -0.24640826833E+03  0.31477022979E+03  0.12510266913E+03 0.  0.
          5    1    3    3  502    0  0.11626634829E+03  0.97649459145E+01 -0.21709540369E+03  0.24649767670E+03  0.41800000000E+01 0.  1.
         -5    1    3    3    0  502  0.17913935888E+02  0.58851643767E+02 -0.29312864634E+02  0.68272553095E+02  0.41800000000E+01 0.  1.
        -11    1    1    2    0    0 -0.82981008288E+02 -0.15793233722E+02 -0.54035708344E+02  0.10027527983E+03  0.00000000000E+00 0.  1.
         11    1    1    2    0    0 -0.51199275887E+02 -0.52823355960E+02 -0.16546740629E+03  0.18108322764E+03  0.00000000000E+00 0. -1.
</event>
<event>
 7    1  0.2530765E-009  0.1072941E+03  0.7561462E-02  0.1265664E+00
          2   -1    0    0  501    0  0.00000000000E+00  0.00000000000E+00  0.51357645587E+02  0.51357645587E+02  0.00000000000E+00 0.  1.
         -2   -1    0    0    0  501 -0.00000000000E+00 -0.00000000000E+00 -0.52801804065E+03  0.52801804065E+03  0.00000000000E+00 0. -1.
         25    2    1    2    0    0  0.10511511701E+03  0.16214152224E+02 -0.35947362651E+03  0.39519709163E+03  0.12508943406E+03 0.  0.
          5    1    3    3  502    0  0.42086089738E+02  0.74894165453E+01 -0.31388432450E+03  0.31680936205E+03  0.41800000000E+01 0.  1.
         -5    1    3    3    0  502  0.63029027268E+02  0.87247356785E+01 -0.45589302009E+02  0.78387729580E+02  0.41800000000E+01 0.  1.
        -11    1    1    2    0    0 -0.72442772965E+02 -0.26424526114E+01 -0.12352972035E+02  0.73535935629E+02  0.00000000000E+00 0.  1.
         11    1    1    2    0    0 -0.32672344041E+02 -0.13571699612E+02 -0.10483379651E+03  0.11064265898E+03  0.00000000000E+00 0. -1.
</event>
<event>
 7    1  0.2530765E-009  0.1621144E+03  0.7561462E-02  0.1186330E+00
          1   -1    0    0  501    0  0.00000000000E+00  0.00000000000E+00  0.10705303011E+04  0.10705303011E+04  0.00000000000E+00 0. -1.
         -1   -1    0    0    0  501 -0.00000000000E+00 -0.00000000000E+00 -0.33498850481E+02  0.33498850481E+02  0.00000000000E+00 0.  1.
         25    2    1    2    0    0 -0.52321895335E+02 -0.12261696294E+03  0.65233394147E+03  0.67746518247E+03  0.12508797678E+03 0.  0.
          5    1    3    3  502    0  0.31947660313E+02  0.18231308244E+01  0.10387992873E+03  0.10877724394E+03  0.41800000000E+01 0. -1.
         -5    1    3    3    0  502 -0.84269555648E+02 -0.12444009377E+03  0.54845401273E+03  0.56868793853E+03  0.41800000000E+01 0. -1.
        -11    1    1    2    0    0  0.60819068896E+02  0.11546773526E+03  0.39207994698E+03  0.41322928484E+03  0.00000000000E+00 0. -1.
         11    1    1    2    0    0 -0.84971735611E+01  0.71492276789E+01 -0.73824378598E+01  0.13334684236E+02  0.00000000000E+00 0.  1.
</event>
<event>
 7    1  0.2530765E-009  0.1876884E+03  0.7561462E-02  0.1160563E+00
          1   -1    0    0  501    0  0.00000000000E+00  0.00000000000E+00  0.29555804994E+03  0.29555804994E+03  0.00000000000E+00 0. -1.
         -1   -1    0    0    0  501 -0.00000000000E+00 -0.00000000000E+00 -0.12812868681E+03  0.12812868681E+03  0.00000000000E+00 0.  1.
         25    2    1    2    0    0  0.10821086020E+03 -0.11905144769E+03  0.92115690640E+02  0.22364464623E+03  0.12509512326E+03 0.  0.
          5    1    3    3  502    0  0.47337446124E+02 -0.12640059637E+03  0.89746099272E+02  0.16214123258E+03  0.41800000000E+01 0. -1.
         -5    1    3    3    0  502  0.60873414081E+02  0.73491486742E+01  0.23695913682E+01  0.61503413656E+02  0.41800000000E+01 0. -1.
        -11    1    1    2    0    0  0.70983154946E+01  0.36207974418E+02  0.38580523131E+02  0.53384082454E+02  0.00000000000E+00 0. -1.
         11    1    1    2    0    0 -0.11530917570E+03  0.82843473275E+02  0.36733149360E+02  0.14665800805E+03  0.00000000000E+00 0.  1.
</event>
<event>
 7    1  0.2530765E-009  0.1313575E+03  0.7561462E-02  0.1225455E+00
          2   -1    0    0  501    0  0.00000000000E+00  0.00000000000E+00  0.14969622277E+03  0.14969622277E+03  0.00000000000E+00 0. -1.
         -2   -1    0    0    0  501 -0.00000000000E+00 -0.00000000000E+00 -0.15802297426E+03  0.15802297426E+03  0.00000000000E+00 0.  1.
         25    2    1    2    0    0 -0.34056556549E+02 -0.10150708863E+03  0.11396067232E+02  0.16504876313E+03  0.12509071020E+03 0.  0.
          5    1    3    3  502    0 -0.12940725058E+02  0.15721498740E+02  0.37646136780E+02  0.43003859154E+02  0.41800000000E+01 0. -1.
         -5    1    3    3    0  502 -0.21115831491E+02 -0.11722858737E+03 -0.26250069548E+02  0.12204490398E+03  0.41800000000E+01 0. -1.
        -11    1    1    2    0    0 -0.11502774661E+02  0.28230812349E-01 -0.28851254538E+02  0.31059773185E+02  0.00000000000E+00 0. -1.
         11    1    1    2    0    0  0.45559331210E+02  0.10147885781E+03  0.91284358218E+01  0.11161066071E+03  0.00000000000E+00 0.  1.
</event>
<event>
 7    1  0.2530765E-009  0.1021235E+03  0.7561462E-02  0.1275893E+00
          1   -1    0    0  501    0  0.00000000000E+00  0.00000000000E+00  0.40007141772E+03  0.40007141772E+03  0.00000000000E+00 0.  1.
         -1   -1    0    0    0  501 -0.00000000000E+00 -0.00000000000E+00 -0.31660714382E+02  0.31660714382E+02  0.00000000000E+00 0. -1.
         25    2    1    2    0    0  0.68729060231E+01 -0.26228769129E+02  0.18621564306E+03  0.22596176951E+03  0.12508904985E+03 0.  0.
          5    1    3    3  502    0 -0.35993624748E+01  0.40548471194E+02  0.13496528134E+03  0.14103273908E+03  0.41800000000E+01 0.  1.
         -5    1    3    3    0  502  0.10472268498E+02 -0.66777240323E+02  0.51250361723E+02  0.84929030427E+02  0.41800000000E+01 0.  1.
        -11    1    1    2    0    0  0.57242270298E+01  0.59630379466E+02  0.11680885953E+03  0.13127398293E+03  0.00000000000E+00 0. -1.
         11    1    1    2    0    0 -0.12597133053E+02 -0.33401610337E+02  0.65386200754E+02  0.74496379666E+02  0.00000000000E+00 0.  1.
</event>
<event>
 7    1  0.2530765E-009  0.1719765E+03  0.7561462E-02  0.1175802E+00
          2   -1    0    0  501    0  0.00000000000E+00  0.00000000000E+00  0.96885468089E+03  0.96885468089E+03  0.00000000000E+00 0. -1.
         -2   -1    0    0    0  501 -0.00000000000E+00 -0.00000000000E+00 -0.36581781404E+02  0.36581781404E+02  0.00000000000E+00 0.  1.
         25    2    1    2    0    0  0.13392284609E+03 -0.31835679473E+02  0.30715081777E+03  0.35907895835E+03  0.12508890549E+03 0.  0.
          5    1    3    3  502    0  0.15563722705E+02  0.38628224913E+02  0.11684698994E+03  0.12411712485E+03  0.41800000000E+01 0. -1.
         -5    1    3    3    0  502  0.11835912339E+03 -0.70463904386E+02  0.19030382783E+03  0.23496183349E+03  0.41800000000E+01 0. -1.
        -11    1    1    2    0    0 -0.29322921811E+02 -0.30672747342E+02  0.15613726684E+03  0.16180079502E+03  0.00000000000E+00 0.  1.
         11    1    1    2    0    0 -0.10459992428E+03  0.62508426815E+02  0.46898481488E+03  0.48455670893E+03  0.00000000000E+00 0. -1.
</event>
<event>
 7    1  0.2530765E-009  0.1211403E+03  0.7561462E-02  0.1241228E+00
          2   -1    0    0  501    0  0.00000000000E+00  0.00000000000E+00  0.61421857964E+03  0.61421857964E+03  0.00000000000E+00 0. -1.
         -2   -1    0    0    0  501 -0.00000000000E+00 -0.00000000000E+00 -0.37955380583E+02  0.37955380583E+02  0.00000000000E+00 0.  1.
         25    2    1    2    0    0 -0.34889362338E+02 -0.10657787667E+03  0.29407536811E+03  0.33867969758E+03  0.12508998371E+03 0.  0.
          5    1    3    3  502    0 -0.12659440629E+02 -0.76764323050E+02  0.29086459811E+03  0.30111909531E+03  0.41800000000E+01 0.  1.
         -5    1    3    3    0  502 -0.22229921709E+02 -0.29813553616E+02  0.32107699996E+01  0.37560602263E+02  0.41800000000E+01 0.  1.
        -11    1    1    2    0    0  0.42585570554E+02  0.35474169109E+02  0.18301257036E+03  0.19122120281E+03  0.00000000000E+00 0. -1.
         11    1    1    2    0    0 -0.76962082154E+01  0.71103707557E+02  0.99175260589E+02  0.12227305984E+03  0.00000000000E+00 0.  1.
</event>
<event>
 7    1  0.2530765E-009  0.8302777E+02  0.7561462E-02  0.1320672E+00
         -2   -1    0    0    0  501 -0.00000000000E+00  0.00000000000E+00  0.25389359399E+03  0.25389359399E+03  0.00000000000E+00 0.  1.
          2   -1    0    0  501    0  0.00000000000E+00 -0.00000000000E+00 -0.67839342480E+02  0.67839342480E+02  0.00000000000E+00 0. -1.
         25    2    1    2    0    0  0.41694948382E+02  0.17377286908E+02  0.17275998138E+03  0.21802246950E+03  0.12508935694E+03 0.  0.
          5    1    3    3  502    0 -0.23219042364E+02  0.68837037082E+01  0.14408142806E+03  0.14616237415E+03  0.41800000000E+01 0. -1.
         -5    1    3    3    0  502  0.64913990746E+02  0.10493583200E+02  0.28678553318E+02  0.71860095347E+02  0.41800000000E+01 0. -1.
        -11    1    1    2    0    0 -0.24938617959E+00 -0.31729034446E+02 -0.28849400679E+02  0.42884516319E+02  0.00000000000E+00 0. -1.
         11    1    1    2    0    0 -0.41445562202E+02  0.14351747538E+02  0.42143670815E+02  0.60825950657E+02  0.00000000000E+00 0.  1.
</event>
<event>
 7    1  0.2530765E-009  0.9994222E+02  0.7561462E-02  0.1280417E+00
         -2   -1    0    0    0  501 -0.00000000000E+00  0.00000000000E+00  0.10443952650E+02  0.10443952650E+02  0.00000000000E+00 0.  1.
          2   -1    0    0  501    0  0.00000000000E+00 -0.00000000000E+00 -0.17968888021E+04  0.17968888021E+04  0.00000000000E+00 0. -1.
         25    2    1    2    0    0  0.11425602592E+02 -0.74593257617E+02 -0.12714703681E+04  0.12798356701E+04  0.12509095557E+03 0.  0.
          5    1    3    3  502    0  0.39155162825E+02 -0.29343683668E+02 -0.10796244207E+04  0.10807407371E+04  0.41800000000E+01 0. -1.
         -5    1    3    3    0  502 -0.27729560233E+02 -0.45249573948E+02 -0.19184594734E+03  0.19909493305E+03  0.41800000000E+01 0. -1.
        -11    1    1    2    0    0  0.66835667364E+01 -0.94469108797E+01 -0.10112977278E+02  0.15368360320E+02  0.00000000000E+00 0.  1.
         11    1    1    2    0    0 -0.18109169329E+02  0.84040168496E+02 -0.50486150410E+03  0.51212872430E+03  0.00000000000E+00 0. -1.
</event>
<event>
 7    1  0.2530765E-009  0.1068666E+03  0.7561462E-02  0.1266485E+00
          2   -1    0    0  501    0  0.00000000000E+00  0.00000000000E+00  0.37436033804E+03  0.37436033804E+03  0.00000000000E+00 0. -1.
         -2   -1    0    0    0  501 -0.00000000000E+00 -0.00000000000E+00 -0.55529768011E+02  0.55529768011E+02  0.00000000000E+00 0.  1.
         25    2    1    2    0    0  0.45463015675E+02 -0.55104805070E+01  0.29572827690E+03  0.32434596886E+03  0.12509133691E+03 0.  0.
          5    1    3    3  502    0  0.11394300827E+01  0.56328918096E+02  0.11195854876E+03  0.12540508105E+03  0.41800000000E+01 0.  1.
         -5    1    3    3    0  502  0.44323585592E+02 -0.61839398603E+02  0.18376972815E+03  0.19894088781E+03  0.41800000000E+01 0.  1.
        -11    1    1    2    0    0 -0.53798202095E+02  0.25386127123E+02 -0.15374989404E+02  0.61441779744E+02  0.00000000000E+00 0.  1.
         11    1    1    2    0    0  0.83351864200E+01 -0.19875646616E+02  0.38477282528E+02  0.44102357440E+02  0.00000000000E+00 0. -1.
</event>
<event>
 7    1  0.2530765E-009  0.1171667E+03  0.7561462E-02  0.1247846E+00
         -1   -1    0    0    0  501 -0.00000000000E+00  0.00000000000E+00  0.50196908819E+02  0.50196908819E+02  0.00000000000E+00 0.  1.
          1   -1    0    0  501    0  0.00000000000E+00 -0.00000000000E+00 -0.33191134266E+03  0.33191134266E+03  0.00000000000E+00 0. -1.
         25    2    1    2    0    0 -0.63590409284E+02  0.22729142758E+02 -0.13282054286E+03  0.19455271284E+03  0.12509639238E+03 0.  0.
          5    1    3    3  502    0 -0.43126911079E+02  0.63101498914E+02 -0.12760072518E+03  0.14879901576E+03  0.41800000000E+01 0. -1.
         -5    1    3    3    0  502 -0.20463498205E+02 -0.40372356156E+02 -0.52198176810E+01  0.45753697085E+02  0.41800000000E+01 0. -1.
        -11    1    1    2    0    0  0.82998941574E+02 -0.34221601915E+02 -0.10456412857E+03  0.13781726787E+03  0.00000000000E+00 0.  1.
         11    1    1    2    0    0 -0.19408532290E+02  0.11492459156E+02 -0.44329762415E+02  0.49738270767E+02  0.00000000000E+00 0. -1.
</event>
<event>
 7    1  0.2530765E-009  0.1160366E+03  0.7561462E-02  0.1249782E+00
          2   -1    0    0  501    0  0.00000000000E+00  0.00000000000E+00  0.89847695095E+03  0.89847695095E+03  0.00000000000E+00 0. -1.
         -2   -1    0    0    0  501 -0.00000000000E+00 -0.00000000000E+00 -0.17458415362E+02  0.17458415362E+02  0.00000000000E+00 0.  1.
         25    2    1    2    0    0  0.19459584548E+02  0.48220966072E+02  0.61556936892E+03  0.63029905682E+03  0.12508923247E+03 0.  0.
          5    1    3    3  502    0 -0.23632907156E+02  0.77891807182E+02  0.32769134946E+03  0.33767549636E+03  0.41800000000E+01 0.  1.
         -5    1    3    3    0  502  0.43092491703E+02 -0.29670841110E+02  0.28787801946E+03  0.29262356047E+03  0.41800000000E+01 0.  1.
        -11    1    1    2    0    0  0.23498683471E+02  0.10158196554E+02  0.30813381824E+02  0.40060474055E+02  0.00000000000E+00 0.  1.
         11    1    1    2    0    0 -0.42958268019E+02 -0.58379162626E+02  0.23463578484E+03  0.24557583543E+03  0.00000000000E+00 0. -1.
</event>
<event>
 7    1  0.2530765E-009  0.1358858E+03  0.7561462E-02  0.1218975E+00
         -1   -1    0    0    0  501 -0.00000000000E+00  0.00000000000E+00  0.14848160209E+02  0.14848160209E+02  0.00000000000E+00 0.  1.
          1   -1    0    0  501    0  0.00000000000E+00 -0.00000000000E+00 -0.17908374437E+04  0.17908374437E+04  0.00000000000E+00 0. -1.
         25    2    1    2    0    0  0.11414884934E+02 -0.81351539904E+02 -0.14436610311E+04  0.14513970362E+04  0.12509121111E+03 0.  0.
          5    1    3    3  502    0 -0.28482177195E+02 -0.10096848038E+03 -0.10189909099E+04  0.10243855794E+04  0.41800000000E+01 0. -1.
         -5    1    3    3    0  502  0.39897062129E+02  0.19616940474E+02 -0.42467012122E+03  0.42701145673E+03  0.41800000000E+01 0. -1.
        -11    1    1    2    0    0  0.17917329910E+02  0.89823594737E+02 -0.26436881713E+03  0.27978595453E+03  0.00000000000E+00 0.  1.
         11    1    1    2    0    0 -0.29332214845E+02 -0.84720548332E+01 -0.67959435227E+02  0.74502613224E+02  0.00000000000E+00 0. -1.
</event>
<event>
 7    1  0.2530765E-009  0.1237337E+03  0.7561462E-02  0.1237062E+00
         -2   -1    0    0    0  501 -0.00000000000E+00  0.00000000000E+00  0.11543890679E+03  0.11543890679E+03  0.00000000000E+00 0.  1.
          2   -1    0    0  501    0  0.00000000000E+00 -0.00000000000E+00 -0.24366668008E+03  0.24366668008E+03  0.00000000000E+00 0. -1.
         25    2    1    2    0    0 -0.55208396062E+02  0.71667736328E+02  0.30939380111E+02  0.15744278808E+03  0.12508698914E+03 0.  0.
          5    1    3    3  502    0 -0.91913639336E+02  0.72570462364E+02  0.19783914621E+02  0.11884218435E+03  0.41800000000E+01 0.  1.
         -5    1    3    3    0  502  0.36705243274E+02 -0.90272603603E+00  0.11155465489E+02  0.38600603731E+02  0.41800000000E+01 0.  1.
        -11    1    1    2    0    0  0.55750933422E+02 -0.60963094689E+02 -0.16836397773E+03  0.18753958112E+03  0.00000000000E+00 0. -1.
         11    1    1    2    0    0 -0.54253736006E+00 -0.10704641639E+02  0.91968243257E+01  0.14123217660E+02  0.00000000000E+00 0.  1.
</event>
<event>
 7    1  0.2530765E-009  0.1129789E+03  0.7561462E-02  0.1255151E+00
          1   -1    0    0  501    0  0.00000000000E+00  0.00000000000E+00  0.64778529054E+03  0.64778529054E+03  0.00000000000E+00 0. -1.
         -1   -1    0    0    0  501 -0.00000000000E+00 -0.00000000000E+00 -0.31543876293E+02  0.31543876293E+02  0.00000000000E+00 0.  1.
         25    2    1    2    0    0  0.88327551489E+02 -0.29818711970E+02  0.32635117916E+03  0.36172398736E+03  0.12509292130E+03 0.  0.
          5    1    3    3  502    0  0.69515768253E+02 -0.46465410638E+02  0.85974983684E+02  0.12000269431E+03  0.41800000000E+01 0. -1.
         -5    1    3    3    0  502  0.18811783236E+02  0.16646698668E+02  0.24037619547E+03  0.24172129305E+03  0.41800000000E+01 0. -1.
        -11    1    1    2    0    0 -0.24600662271E+02  0.44979904834E+02  0.61811107136E+02  0.80305649792E+02  0.00000000000E+00 0. -1.
         11    1    1    2    0    0 -0.63726889218E+02 -0.15161192864E+02  0.22807912795E+03  0.23729952968E+03  0.00000000000E+00 0.  1.
</event>
<event>
 7    1  0.2530765E-009  0.7555511E+02  0.7561462E-02  0.1342161E+00
         -2   -1    0    0    0  501 -0.00000000000E+00  0.00000000000E+00  0.71101385491E+03  0.71101385491E+03  0.00000000000E+00 0. -1.
          2   -1    0    0  501    0  0.00000000000E+00 -0.00000000000E+00 -0.26346800654E+02  0.26346800654E+02  0.00000000000E+00 0.  1.
         25    2    1    2    0    0 -0.31556075670E+02 -0.31204999067E+01  0.57492381950E+03  0.58922835761E+03  0.12508851171E+03 0.  0.
          5    1    3    3  502    0 -0.43041988181E+02 -0.21026522152E+02  0.76658341047E+02  0.90491441763E+02  0.41800000000E+01 0. -1.
         -5    1    3    3    0  502  0.11485912511E+02  0.17906022246E+02  0.49826547845E+03  0.49873691585E+03  0.41800000000E+01 0. -1.
        -11    1    1    2    0    0  0.54387571246E+02 -0.95705214845E+01  0.27207832675E+02  0.61561911491E+02  0.00000000000E+00 0.  1.
         11    1    1    2    0    0 -0.22831495576E+02  0.12691021391E+02  0.82535402085E+02  0.86570386458E+02  0.00000000000E+00 0. -1.
</event>
<event>
 7    1  0.2530765E-009  0.6951012E+02  0.7561462E-02  0.1361767E+00
          1   -1    0    0  501    0  0.00000000000E+00  0.00000000000E+00  0.30564240029E+02  0.30564240029E+02  0.00000000000E+00 0. -1.
         -1   -1    0    0    0  501 -0.00000000000E+00 -0.00000000000E+00 -0.44216219832E+03  0.44216219832E+03  0.00000000000E+00 0.  1.
         25    2    1    2    0    0 -0.28238999496E+02  0.63104923012E+01 -0.29923579890E+03  0.32561559229E+03  0.12508472005E+03 0.  0.
          5    1    3    3  502    0  0.16272239327E+02 -0.20081999638E+02 -0.47769755366E+01  0.26615115582E+02  0.41800000000E+01 0. -1.
         -5    1    3    3    0  502 -0.44511238823E+02  0.26392491940E+02 -0.29445882336E+03  0.29900047670E+03  0.41800000000E+01 0. -1.
        -11    1    1    2    0    0  0.22456739147E+02  0.22349984299E+02 -0.11351154296E+03  0.11785031742E+03  0.00000000000E+00 0.  1.
         11    1    1    2    0    0  0.57822603492E+01 -0.28660476601E+02  0.11493835698E+01  0.29260528640E+02  0.00000000000E+00 0. -1.
</event>
<event>
 7    1  0.2530765E-009  0.1132383E+03  0.7561462E-02  0.1254688E+00
          1   -1    0    0  501    0  0.00000000000E+00  0.00000000000E+00  0.77849299755E+02  0.77849299755E+02  0.00000000000E+00 0. -1.
         -1   -1    0    0    0  501 -0.00000000000E+00 -0.00000000000E+00 -0.29101132121E+03  0.29101132121E+03  0.00000000000E+00 0.  1.
         25    2    1    2    0    0 -0.89285853065E+01  0.73899899442E+02 -0.26018867239E+02  0.14786978505E+03  0.12509027582E+03 0.  0.
          5    1    3    3  502    0 -0.64689801718E+02  0.44089141182E+02  0.23715261917E+01  0.78432897135E+02  0.41800000000E+01 0.  1.
         -5    1    3    3    0  502  0.55761216411E+02  0.29810758260E+02 -0.28390393431E+02  0.69436887912E+02  0.41800000000E+01 0.  1.
        -11    1    1    2    0    0 -0.12333628230E+02 -0.54668464204E+02 -0.18376803922E+03  0.19212353215E+03  0.00000000000E+00 0.  1.
         11    1    1    2    0    0  0.21262213536E+02 -0.19231435238E+02 -0.33751149881E+01  0.28867303770E+02  0.00000000000E+00 0. -1.
</event>
<event>
 7    1  0.2530765E-009  0.8347575E+02  0.7561462E-02  0.1319467E+00
          3   -1    0    0  501    0  0.00000000000E+00  0.00000000000E+00  0.39554504978E+02  0.39554504978E+02  0.00000000000E+00 0. -1.
         -3   -1    0    0    0  501 -0.00000000000E+00 -0.00000000000E+00 -0.44219236567E+03  0.44219236567E+03  0.00000000000E+00 0.  1.
         25    2    1    2    0    0  0.18443861881E+02 -0.70655572342E+02 -0.27955864771E+03  0.31485257531E+03  0.12508685273E+03 0.  0.
          5    1    3    3  502    0  0.11229577965E+02 -0.54520718279E+02 -0.27658035402E+02  0.62298085566E+02  0.41800000000E+01 0. -1.
         -5    1    3    3    0  502  0.72142839161E+01 -0.16134854063E+02 -0.25190061230E+03  0.25255448974E+03  0.41800000000E+01 0. -1.
        -11    1    1    2    0    0 -0.25674925479E+02  0.40757186034E+01 -0.87045093037E+02  0.90844160529E+02  0.00000000000E+00 0.  1.
         11    1    1    2    0    0  0.72310635976E+01  0.66579853738E+02 -0.36034119946E+02  0.76050134812E+02  0.00000000000E+00 0. -1.
</event>
<event>
 7    1  0.2530765E-009  0.1165112E+03  0.7561462E-02  0.1248966E+00
         -1   -1    0    0    0  501 -0.00000000000E+00  0.00000000000E+00  0.21390748014E+02  0.21390748014E+02  0.00000000000E+00 0.  1.
          1   -1    0    0  501    0  0.00000000000E+00 -0.00000000000E+00 -0.74497367529E+03  0.74497367529E+03  0.00000000000E+00 0. -1.
         25    2    1    2    0    0  0.53340753968E+02  0.20181871002E+02 -0.46190796171E+03  0.48193141263E+03  0.12508548053E+03 0.  0.
          5    1    3    3  502    0 -0.70671954771E+01  0.55122734962E+02 -0.30646155996E+03  0.31148775465E+03  0.41800000000E+01 0.  1.
         -5    1    3    3    0  502  0.60407949445E+02 -0.34940863960E+02 -0.15544640174E+03  0.17044365798E+03  0.41800000000E+01 0.  1.
        -11    1    1    2    0    0 -0.73650478785E+02 -0.35675762265E+02 -0.22746147788E+03  0.24173513803E+03  0.00000000000E+00 0.  1.
         11    1    1    2    0    0  0.20309724818E+02  0.15493891263E+02 -0.34213487692E+02  0.42697872648E+02  0.00000000000E+00 0. -1.
</event>
<event>
 7    1  0.2530765E-009  0.9735125E+02  0.7561462E-02  0.1285967E+00
          1   -1    0    0  501    0  0.00000000000E+00  0.00000000000E+00  0.33960144290E+03  0.33960144290E+03  0.00000000000E+00 0. -1.
         -1   -1    0    0    0  501 -0.00000000000E+00 -0.00000000000E+00 -0.36576968646E+02  0.36576968646E+02  0.00000000000E+00 0.  1.
         25    2    1    2    0    0  0.40398607830E+00 -0.13782317759E+02  0.13977042086E+03  0.18808150463E+03  0.12509502926E+03 0.  0.
          5    1    3    3  502    0  0.27959807991E+01 -0.59106866496E+02  0.12789158755E+03  0.14097932381E+03  0.41800000000E+01 0. -1.
         -5    1    3    3    0  502 -0.23919947208E+01  0.45324548737E+02  0.11878833316E+02  0.47102180819E+02  0.41800000000E+01 0. -1.
        -11    1    1    2    0    0  0.35367129682E+02 -0.19974649379E+02  0.10026507395E+03  0.10817996827E+03  0.00000000000E+00 0.  1.
         11    1    1    2    0    0 -0.35771115760E+02  0.33756967138E+02  0.62988979443E+02  0.79916938657E+02  0.00000000000E+00 0. -1.
</event>
<event>
 7    1  0.2530765E-009  0.2204669E+03  0.7561462E-02  0.1133535E+00
          1   -1    0    0  501    0  0.00000000000E+00  0.00000000000E+00  0.15752542784E+04  0.15752542784E+04  0.00000000000E+00 0. -1.
         -1   -1    0    0    0  501 -0.00000000000E+00 -0.00000000000E+00 -0.35871091933E+02  0.35871091933E+02  0.00000000000E+00 0.  1.
         25    2    1    2    0    0  0.18247883444E+03  0.10323660129E+03  0.75639425070E+03  0.79481847558E+03  0.12509126975E+03 0.  0.
          5    1    3    3  502    0  0.10322342560E+02  0.21200912827E+02  0.28912173691E+03  0.29011184156E+03  0.41800000000E+01 0. -1.
         -5    1    3    3    0  502  0.17215649188E+03  0.82035688465E+02  0.46727251379E+03  0.50470663402E+03  0.41800000000E+01 0. -1.
        -11    1    1    2    0    0 -0.75966467576E+02 -0.91734196651E+02  0.49235582975E+03  0.50655733152E+03  0.00000000000E+00 0. -1.
         11    1    1    2    0    0 -0.10651236687E+03 -0.11502404641E+02  0.29063310602E+03  0.30974956324E+03  0.00000000000E+00 0.  1.
</event>
<event>
 7    1  0.2530765E-009  0.8530921E+02  0.7561462E-02  0.1314626E+00
          1   -1    0    0  501    0  0.00000000000E+00  0.00000000000E+00  0.15470660851E+03  0.15470660851E+03  0.00000000000E+00 0. -1.
         -1   -1    0    0    0  501 -0.00000000000E+00 -0.00000000000E+00 -0.96508544767E+02  0.96508544767E+02  0.00000000000E+00 0.  1.
         25    2    1    2    0    0  0.23301784667E+02  0.32790475882E+02 -0.73832496095E+01  0.13160287451E+03  0.12508643303E+03 0.  0.
          5    1    3    3  502    0 -0.43712853177E+01  0.41468033953E+02 -0.58929263004E+02  0.72310693631E+02  0.41800000000E+01 0. -1.
         -5    1    3    3    0  502  0.27673069985E+02 -0.86775580708E+01  0.51546013394E+02  0.59292180878E+02  0.41800000000E+01 0. -1.
        -11    1    1    2    0    0  0.35136690901E+02 -0.86768675185E+01  0.30391115722E+02  0.47259866613E+02  0.00000000000E+00 0.  1.
         11    1    1    2    0    0 -0.58438475568E+02 -0.24113608364E+02  0.35190197628E+02  0.72352412152E+02  0.00000000000E+00 0. -1.
</event>
<event>
 7    1  0.2530765E-009  0.9534406E+02  0.7561462E-02  0.1290403E+00
          1   -1    0    0  501    0  0.00000000000E+00  0.00000000000E+00  0.57188927557E+02  0.57188927557E+02  0.00000000000E+00 0. -1.
         -1   -1    0    0    0  501 -0.00000000000E+00 -0.00000000000E+00 -0.45848292382E+03  0.45848292382E+03  0.00000000000E+00 0.  1.
         25    2    1    2    0    0  0.12646956093E+02  0.10605694890E+02 -0.40205780750E+03  0.42139320033E+03  0.12509725197E+03 0.  0.
          5    1    3    3  502    0  0.24912928730E+02 -0.38547614838E+02 -0.33004124383E+03  0.33324355606E+03  0.41800000000E+01 0. -1.
         -5    1    3    3    0  502 -0.12265972637E+02  0.49153309728E+02 -0.72016563675E+02  0.88149644273E+02  0.41800000000E+01 0. -1.
        -11    1    1    2    0    0 -0.37352024391E+02  0.28863406603E+02 -0.45005106709E+01  0.47418609882E+02  0.00000000000E+00 0.  1.
         11    1    1    2    0    0  0.24705068298E+02 -0.39469101493E+02  0.52643219133E+01  0.46860041160E+02  0.00000000000E+00 0. -1.
</event>
<event>
 7    1  0.2530765E-009  0.6215067E+02  0.7561462E-02  0.1389022E+00
          2   -1    0    0  501    0  0.00000000000E+00  0.00000000000E+00  0.60320337528E+03  0.60320337528E+03  0.00000000000E+00 0. -1.
         -2   -1    0    0    0  501 -0.00000000000E+00 -0.00000000000E+00 -0.49303536173E+02  0.49303536173E+02  0.00000000000E+00 0.  1.
         25    2    1    2    0    0  0.38366545011E+01  0.44356971622E+02  0.54629115195E+03  0.56219561185E+03  0.12509045699E+03 0.  0.
          5    1    3    3  502    0  0.22761593608E+02  0.18912520847E+02  0.22452273006E+02  0.37381152356E+02  0.41800000000E+01 0.  1.
         -5    1    3    3    0  502 -0.18924939107E+02  0.25444450776E+02  0.52383887895E+03  0.52481445949E+03  0.41800000000E+01 0.  1.
        -11    1    1    2    0    0  0.19048126671E+02 -0.29598590599E+02 -0.28356910612E+02  0.45199801710E+02  0.00000000000E+00 0.  1.
         11    1    1    2    0    0 -0.22884781172E+02 -0.14758381023E+02  0.35965597770E+02  0.45111497899E+02  0.00000000000E+00 0. -1.
</event>
<event>
 7    1  0.2530765E-009  0.1132600E+03  0.7561462E-02  0.1254649E+00
          2   -1    0    0  501    0  0.00000000000E+00  0.00000000000E+00  0.23997192355E+03  0.23997192355E+03  0.00000000000E+00 0. -1.
         -2   -1    0    0    0  501 -0.00000000000E+00 -0.00000000000E+00 -0.66927321768E+02  0.66927321768E+02  0.00000000000E+00 0.  1.
         25    2    1    2    0    0  0.12271654018E+02  0.68329367433E+02  0.10606123310E+03  0.17809056453E+03  0.12509103909E+03 0.  0.
          5    1    3    3  502    0 -0.44704315491E+02  0.44317318666E+02  0.96638759844E+02  0.11540807104E+03  0.41800000000E+01 0.  1.
         -5    1    3    3    0  502  0.56975969509E+02  0.24012048766E+02  0.94224732584E+01  0.62682493487E+02  0.41800000000E+01 0.  1.
        -11    1    1    2    0    0  0.24424133990E+02 -0.60028168141E+00  0.40600696796E+02  0.47384757460E+02  0.00000000000E+00 0. -1.
         11    1    1    2    0    0 -0.36695788008E+02 -0.67729085751E+02  0.26382671880E+02  0.81423923326E+02  0.00000000000E+00 0.  1.
</event>
<event>
 7    1  0.2530765E-009  0.1344503E+03  0.7561462E-02  0.1220998E+00
          2   -1    0    0  501    0  0.00000000000E+00  0.00000000000E+00  0.26698220940E+03  0.26698220940E+03  0.00000000000E+00 0. -1.
         -2   -1    0    0    0  501 -0.00000000000E+00 -0.00000000000E+00 -0.11988639776E+03  0.11988639776E+03  0.00000000000E+00 0.  1.
         25    2    1    2    0    0  0.57280993110E+02  0.10345794687E+03  0.16391324050E+03  0.23769640162E+03  0.12508944794E+03 0.  0.
          5    1    3    3  502    0 -0.11149923840E+01  0.13159939546E+02 -0.20167251216E+02  0.24466663820E+02  0.41800000000E+01 0. -1.
         -5    1    3    3    0  502  0.58395985494E+02  0.90298007328E+02  0.18408049172E+03  0.21322973780E+03  0.41800000000E+01 0. -1.
        -11    1    1    2    0    0  0.16684807128E+02 -0.58593513046E+02 -0.14538601570E+02  0.62633485417E+02  0.00000000000E+00 0.  1.
         11    1    1    2    0    0 -0.73965800238E+02 -0.44864433829E+02 -0.22788272881E+01  0.86538720128E+02  0.00000000000E+00 0. -1.
</event>
<event>
 7    1  0.2530765E-009  0.1086287E+03  0.7561462E-02  0.1263131E+00
         -2   -1    0    0    0  501 -0.00000000000E+00  0.00000000000E+00  0.40076581330E+02  0.40076581330E+02  0.00000000000E+00 0. -1.
          2   -1    0    0  501    0  0.00000000000E+00 -0.00000000000E+00 -0.39052788545E+03  0.39052788545E+03  0.00000000000E+00 0.  1.
         25    2    1    2    0    0 -0.25757510655E+02  0.61203644794E+02 -0.15341031709E+03  0.20878471543E+03  0.12508795511E+03 0.  0.
          5    1    3    3  502    0 -0.29716944354E+02  0.88802955517E+02 -0.15434092176E+03  0.18057589601E+03  0.41800000000E+01 0. -1.
         -5    1    3    3    0  502  0.39594336988E+01 -0.27599310723E+02  0.93060467262E+00  0.28208819413E+02  0.41800000000E+01 0. -1.
        -11    1    1    2    0    0 -0.96221860048E+01 -0.59107607026E+02 -0.82657954895E+02  0.10207170607E+03  0.00000000000E+00 0. -1.
         11    1    1    2    0    0  0.35379696660E+02 -0.20960377675E+01 -0.11438303213E+03  0.11974804528E+03  0.00000000000E+00 0.  1.
</event>
<event>
 7    1  0.2530765E-009  0.1267893E+03  0.7561462E-02  0.1232299E+00
         -4   -1    0    0    0  501 -0.00000000000E+00  0.00000000000E+00  0.38373104080E+03  0.38373104080E+03  0.00000000000E+00 0. -1.
          4   -1    0    0  501    0  0.00000000000E+00 -0.00000000000E+00 -0.43173590891E+02  0.43173590891E+02  0.00000000000E+00 0.  1.
         25    2    1    2    0    0  0.10945033132E+02  0.81987144507E+02  0.20030577249E+03  0.25022241452E+03  0.12508864306E+03 0.  0.
          5    1    3    3  502    0 -0.26393694725E+02  0.10261106133E+03  0.15556672450E+03  0.18826612866E+03  0.41800000000E+01 0. -1.
         -5    1    3    3    0  502  0.37338727857E+02 -0.20623916822E+02  0.44739047988E+02  0.61956285863E+02  0.41800000000E+01 0. -1.
        -11    1    1    2    0    0 -0.35452102989E+02 -0.67425798417E+02  0.11828996639E+03  0.14069685870E+03  0.00000000000E+00 0. -1.
         11    1    1    2    0    0  0.24507069857E+02 -0.14561346090E+02  0.21961711027E+02  0.35985358469E+02  0.00000000000E+00 0.  1.
</event>
<event>
 7    1  0.2530765E-009  0.1669112E+03  0.7561462E-02  0.1181108E+00
         -1   -1    0    0    0  501 -0.00000000000E+00  0.00000000000E+00  0.24040320742E+02  0.24040320742E+02  0.00000000000E+00 0.  1.
          1   -1    0    0  501    0  0.00000000000E+00 -0.00000000000E+00 -0.12002398415E+04  0.12002398415E+04  0.00000000000E+00 0. -1.
         25    2    1    2    0    0  0.10695754649E+03 -0.72381720929E+02 -0.71973899789E+03  0.74185637737E+03  0.12509048441E+03 0.  0.
          5    1    3    3  502    0  0.11413164713E+03 -0.98187636730E+02 -0.64504570335E+03  0.66239586102E+03  0.41800000000E+01 0. -1.
         -5    1    3    3    0  502 -0.71741006390E+01  0.25805915801E+02 -0.74693294539E+02  0.79460516355E+02  0.41800000000E+01 0. -1.
        -11    1    1    2    0    0 -0.10938939508E+03  0.29699970694E+02 -0.32725151190E+03  0.34632597370E+03  0.00000000000E+00 0.  1.
         11    1    1    2    0    0  0.24318485908E+01  0.42681750235E+02 -0.12920901094E+03  0.13609781115E+03  0.00000000000E+00 0. -1.
</event>
<event>
 7    1  0.2530765E-009  0.9221364E+02  0.7561462E-02  0.1297578E+00
          4   -1    0    0  501    0  0.00000000000E+00  0.00000000000E+00  0.19457502137E+03  0.19457502137E+03  0.00000000000E+00 0. -1.
         -4   -1    0    0    0  501 -0.00000000000E+00 -0.00000000000E+00 -0.80617509520E+02  0.80617509520E+02  0.00000000000E+00 0.  1.
         25    2    1    2    0    0 -0.44680546763E+02 -0.43000768539E+02  0.49555320043E+02  0.14815284793E+03  0.12509244282E+03 0.  0.
          5    1    3    3  502    0  0.44492898649E+01 -0.67045139963E+02 -0.89928546478E+01  0.67920474142E+02  0.41800000000E+01 0.  1.
         -5    1    3    3    0  502 -0.49129836628E+02  0.24044371424E+02  0.58548174691E+02  0.80232373790E+02  0.41800000000E+01 0.  1.
        -11    1    1    2    0    0  0.26146673271E+02  0.28800264939E+02  0.86530122402E+02  0.94871312137E+02  0.00000000000E+00 0. -1.
         11    1    1    2    0    0  0.18533873492E+02  0.14200503600E+02 -0.22127930592E+02  0.32168370823E+02  0.00000000000E+00 0.  1.
</event>
<event>
 7    1  0.2530765E-009  0.9415538E+02  0.7561462E-02  0.1293090E+00
         -2   -1    0    0    0  501 -0.00000000000E+00  0.00000000000E+00  0.15433744130E+02  0.15433744130E+02  0.00000000000E+00 0.  1.
          2   -1    0    0  501    0  0.00000000000E+00 -0.00000000000E+00 -0.10135850665E+04  0.10135850665E+04  0.00000000000E+00 0. -1.
         25    2    1    2    0    0  0.53707640431E+02  0.31330206766E+02 -0.52312342377E+03  0.54145297464E+03  0.12508842773E+03 0.  0.
          5    1    3    3  502    0  0.11592489556E+02 -0.12687035828E+02 -0.42832693230E+03  0.42869194070E+03  0.41800000000E+01 0. -1.
         -5    1    3    3    0  502  0.42115150874E+02  0.44017242594E+02 -0.94796491472E+02  0.11276103393E+03  0.41800000000E+01 0. -1.
        -11    1    1    2    0    0  0.16857459093E+02 -0.35055205176E+02 -0.18618734287E+03  0.19020717122E+03  0.00000000000E+00 0. -1.
         11    1    1    2    0    0 -0.70565099523E+02  0.37249984099E+01 -0.28884055577E+03  0.29735866481E+03  0.00000000000E+00 0.  1.
</event>
<event>
 7    1  0.2530765E-009  0.9963458E+02  0.7561462E-02  0.1281066E+00
         -1   -1    0    0    0  501 -0.00000000000E+00  0.00000000000E+00  0.31805676106E+02  0.31805676106E+02  0.00000000000E+00 0.  1.
          1   -1    0    0  501    0  0.00000000000E+00 -0.00000000000E+00 -0.42395504067E+03  0.42395504067E+03  0.00000000000E+00 0. -1.
         25    2    1    2    0    0  0.50967294737E+02  0.45670550290E+01 -0.20136848407E+03  0.24251834716E+03  0.12508940487E+03 0.  0.
          5    1    3    3  502    0  0.71642612657E+02  0.31150941480E+02 -0.19197873984E+03  0.20730739025E+03  0.41800000000E+01 0.  1.
         -5    1    3    3    0  502 -0.20675317920E+02 -0.26583886451E+02 -0.93897442284E+01  0.35210956911E+02  0.41800000000E+01 0.  1.
        -11    1    1    2    0    0 -0.17609564647E+02 -0.36747908980E+02 -0.47154075698E+02  0.62321845579E+02  0.00000000000E+00 0. -1.
         11    1    1    2    0    0 -0.33357730090E+02  0.32180853951E+02 -0.14362680479E+03  0.15092052403E+03  0.00000000000E+00 0.  1.
</event>
<event>
 7    1  0.2530765E-009  0.1306056E+03  0.7561462E-02  0.1226560E+00
          1   -1    0    0  501    0  0.00000000000E+00  0.00000000000E+00  0.26049178499E+03  0.26049178499E+03  0.00000000000E+00 0. -1.
         -1   -1    0    0    0  501 -0.00000000000E+00 -0.00000000000E+00 -0.69228642736E+02  0.69228642736E+02  0.00000000000E+00 0.  1.
         25    2    1    2    0    0 -0.25600584733E+02 -0.71687999977E+02  0.11580199887E+03  0.18668697594E+03  0.12508942707E+03 0.  0.
          5    1    3    3  502    0 -0.63025578903E+02  0.83023375576E+00  0.64075002550E+02  0.89977726332E+02  0.41800000000E+01 0.  1.
         -5    1    3    3    0  502  0.37424994170E+02 -0.72518233733E+02  0.51726996320E+02  0.96709249613E+02  0.41800000000E+01 0.  1.
        -11    1    1    2    0    0 -0.29720913819E+01  0.84827570521E+02  0.72167608337E+02  0.11141235901E+03  0.00000000000E+00 0. -1.
         11    1    1    2    0    0  0.28572676115E+02 -0.13139570544E+02  0.32935350420E+01  0.31621092763E+02  0.00000000000E+00 0.  1.
</event>
<event>
 7    1  0.2530765E-009  0.9169227E+02  0.7561462E-02  0.1298805E+00
         -4   -1    0    0    0  501 -0.00000000000E+00  0.00000000000E+00  0.42294954340E+02  0.42294954340E+02  0.00000000000E+00 0.  1.
          4   -1    0    0  501    0  0.00000000000E+00 -0.00000000000E+00 -0.44090511053E+03  0.44090511053E+03  0.00000000000E+00 0. -1.
         25    2    1    2    0    0  0.53933067446E+02 -0.96580077876E+01 -0.33078998680E+03  0.35787134023E+03  0.12509127832E+03 0.  0.
          5    1    3    3  502    0 -0.34079681151E+02  0.55897413250E+01 -0.17337724640E+03  0.17683272277E+03  0.41800000000E+01 0.  1.
         -5    1    3    3    0  502  0.88012748597E+02 -0.15247749113E+02 -0.15741274041E+03  0.18103861746E+03  0.41800000000E+01 0.  1.
        -11    1    1    2    0    0 -0.18591951736E+02 -0.73038592098E+01  0.20547293415E+02  0.28656557633E+02  0.00000000000E+00 0.  1.
         11    1    1    2    0    0 -0.35341115710E+02  0.16961866997E+02 -0.88367462800E+02  0.96672167004E+02  0.00000000000E+00 0. -1.
</event>
<event>
 7    1  0.2530765E-009  0.2053412E+03  0.7561462E-02  0.1145309E+00
          1   -1    0    0  501    0  0.00000000000E+00  0.00000000000E+00  0.24831558698E+03  0.24831558698E+03  0.00000000000E+00 0. -1.
         -1   -1    0    0    0  501 -0.00000000000E+00 -0.00000000000E+00 -0.20583982489E+03  0.20583982489E+03  0.00000000000E+00 0.  1.
         25    2    1    2    0    0  0.15951858764E+03 -0.11426083576E+03  0.48814892149E+02  0.23776865678E+03  0.12509725041E+03 0.  0.
          5    1    3    3  502    0  0.11461347006E+03 -0.59128495250E+02 -0.29023992845E+02  0.13225842518E+03  0.41800000000E+01 0. -1.
         -5    1    3    3    0  502  0.44905117579E+02 -0.55132340515E+02  0.77838884994E+02  0.10551023160E+03  0.41800000000E+01 0. -1.
        -11    1    1    2    0    0 -0.13222415629E+03  0.51354634155E+02  0.19349533139E+02  0.14316050569E+03  0.00000000000E+00 0. -1.
         11    1    1    2    0    0 -0.27294431348E+02  0.62906201609E+02 -0.25688663195E+02  0.73226249394E+02  0.00000000000E+00 0.  1.
</event>
<event>
 7    1  0.2530765E-009  0.1565409E+03  0.7561462E-02  0.1192658E+00
          2   -1    0    0  501    0  0.00000000000E+00  0.00000000000E+00  0.12067794179E+03  0.12067794179E+03  0.00000000000E+00 0. -1.
         -2   -1    0    0    0  501 -0.00000000000E+00 -0.00000000000E+00 -0.27243831554E+03  0.27243831554E+03  0.00000000000E+00 0.  1.
         25    2    1    2    0    0 -0.83505004829E+02  0.95958445310E+02 -0.56196112966E+01  0.17850783882E+03  0.12510938986E+03 0.  0.
          5    1    3    3  502    0 -0.43994471967E+02  0.10625460480E+03  0.35480244845E+02  0.12042373013E+03  0.41800000000E+01 0.  1.
         -5    1    3    3    0  502 -0.39510532862E+02 -0.10296159491E+02 -0.41099856142E+02  0.58084108689E+02  0.41800000000E+01 0.  1.
        -11    1    1    2    0    0  0.12966807821E+02 -0.84509809213E+02 -0.84994617516E+02  0.12055758361E+03  0.00000000000E+00 0.  1.
         11    1    1    2    0    0  0.70538197008E+02 -0.11448636097E+02 -0.61146144937E+02  0.94050834905E+02  0.00000000000E+00 0. -1.
</event>
<event>
 7    1  0.2530765E-009  0.7992900E+02  0.7561462E-02  0.1329253E+00
         -1   -1    0    0    0  501 -0.00000000000E+00  0.00000000000E+00  0.18511297357E+02  0.18511297357E+02  0.00000000000E+00 0.  1.
          1   -1    0    0  501    0  0.00000000000E+00 -0.00000000000E+00 -0.76370690478E+03  0.76370690478E+03  0.00000000000E+00 0. -1.
         25    2    1    2    0    0  0.19830300673E+02 -0.52062207715E+02 -0.40072960987E+03  0.42348166108E+03  0.12509509481E+03 0.  0.
          5    1    3    3  502    0  0.20715887440E+02 -0.26352094507E+02 -0.39544929219E+03  0.39688940017E+03  0.41800000000E+01 0.  1.
         -5    1    3    3    0  502 -0.88558676688E+00 -0.25710113208E+02 -0.52803176779E+01  0.26592260902E+02  0.41800000000E+01 0.  1.
        -11    1    1    2    0    0 -0.46535894212E+02  0.62031678396E+01 -0.15162770186E+03  0.15872941981E+03  0.00000000000E+00 0.  1.
         11    1    1    2    0    0  0.26705593539E+02  0.45859039876E+02 -0.19283829570E+03  0.20000712125E+03  0.00000000000E+00 0. -1.
</event>
<event>
 7    1  0.2530765E-009  0.1294601E+03  0.7561462E-02  0.1228259E+00
          3   -1    0    0  501    0  0.00000000000E+00  0.00000000000E+00  0.32161144818E+03  0.32161144818E+03  0.00000000000E+00 0. -1.
         -3   -1    0    0    0  501 -0.00000000000E+00 -0.00000000000E+00 -0.75822182027E+02  0.75822182027E+02  0.00000000000E+00 0.  1.
         25    2    1    2    0    0 -0.86115464362E+02 -0.68798910274E+02  0.10819958124E+03  0.19875610986E+03  0.12509068138E+03 0.  0.
          5    1    3    3  502    0 -0.15093880663E+02 -0.45093227466E+02  0.11395125007E+03  0.12354587889E+03  0.41800000000E+01 0.  1.
         -5    1    3    3    0  502 -0.71021583699E+02 -0.23705682808E+02 -0.57516688281E+01  0.75210230972E+02  0.41800000000E+01 0.  1.
        -11    1    1    2    0    0  0.25305764042E+02 -0.17395843005E+02  0.82910572578E+01  0.31807839884E+02  0.00000000000E+00 0.  1.
         11    1    1    2    0    0  0.60809700320E+02  0.86194753279E+02  0.12929862765E+03  0.16686968046E+03  0.00000000000E+00 0. -1.
</event>
<event>
 7    1  0.2594999E-009  0.1144180E+03  0.7561462E-02  0.1252600E+00
          3   -1    0    0  501    0  0.00000000000E+00  0.00000000000E+00  0.13118161282E+03  0.13118161282E+03  0.00000000000E+00 0. -1.
         -3   -1    0    0    0  501 -0.00000000000E+00 -0.00000000000E+00 -0.16617813440E+03  0.16617813440E+03  0.00000000000E+00 0.  1.
         25    2    1    2    0    0 -0.73607506474E+02  0.20631352937E+02  0.45491482583E+02  0.15349277678E+03  0.12508732870E+03 0.  0.
          5    1    3    3  502    0  0.18451152203E+02  0.35223627263E+02  0.44990945320E+02  0.60189754077E+02  0.41800000000E+01 0. -1.
         -5    1    3    3    0  502 -0.92058658677E+02 -0.14592274326E+02  0.50053726282E+00  0.93303022700E+02  0.41800000000E+01 0. -1.
        -11    1    1    2    0    0  0.55083914830E+02  0.13503179369E+02 -0.87627138124E+02  0.10437954235E+03  0.00000000000E+00 0.  1.
         11    1    1    2    0    0  0.18523591644E+02 -0.34134532306E+02  0.71391339648E+01  0.39487428087E+02  0.00000000000E+00 0. -1.
</event>
<event>
 7    1  0.2530765E-009  0.1076307E+03  0.7561462E-02  0.1265021E+00
         -3   -1    0    0    0  501 -0.00000000000E+00  0.00000000000E+00  0.94660639896E+02  0.94660639896E+02  0.00000000000E+00 0.  1.
          3   -1    0    0  501    0  0.00000000000E+00 -0.00000000000E+00 -0.15048227521E+03  0.15048227521E+03  0.00000000000E+00 0. -1.
         25    2    1    2    0    0 -0.25002252160E+02  0.20758872518E+02  0.94090568920E+01  0.12958224646E+03  0.12508790847E+03 0.  0.
          5    1    3    3  502    0  0.28756322019E+01  0.70948485468E+02 -0.72160467141E+00  0.71133325270E+02  0.41800000000E+01 0.  1.
         -5    1    3    3    0  502 -0.27877884362E+02 -0.50189612949E+02  0.10130661563E+02  0.58448921189E+02  0.41800000000E+01 0.  1.
        -11    1    1    2    0    0  0.43475378118E+02 -0.40580809326E+02 -0.65490133183E+02  0.88463936903E+02  0.00000000000E+00 0.  1.
         11    1    1    2    0    0 -0.18473125958E+02  0.19821936808E+02  0.25944097717E+00  0.27096731742E+02  0.00000000000E+00 0. -1.
</event>
<event>
 7    1  0.2530765E-009  0.1166685E+03  0.7561462E-02  0.1248696E+00
          2   -1    0    0  501    0  0.00000000000E+00  0.00000000000E+00  0.41072034020E+03  0.41072034020E+03  0.00000000000E+00 0.  1.
         -2   -1    0    0    0  501 -0.00000000000E+00 -0.00000000000E+00 -0.51612518609E+02  0.51612518609E+02  0.00000000000E+00 0. -1.
         25    2    1    2    0    0 -0.30005699104E+02 -0.88139937054E+02  0.15025738830E+03  0.21655016743E+03  0.12509077420E+03 0.  0.
          5    1    3    3  502    0  0.28301363404E+02 -0.74060064216E+02  0.35446476751E+02  0.86947026379E+02  0.41800000000E+01 0.  1.
         -5    1    3    3    0  502 -0.58307062508E+02 -0.14079872838E+02  0.11481091155E+03  0.12960314105E+03  0.41800000000E+01 0.  1.
        -11    1    1    2    0    0  0.20748897561E+02  0.43109135675E+02  0.19027796842E+03  0.19620045768E+03  0.00000000000E+00 0.  1.
         11    1    1    2    0    0  0.92568015431E+01  0.45030801379E+02  0.18572464868E+02  0.49582233702E+02  0.00000000000E+00 0. -1.
</event>
<event>
 7    1  0.2530765E-009  0.9065612E+02  0.7561462E-02  0.1301271E+00
          2   -1    0    0  501    0  0.00000000000E+00  0.00000000000E+00  0.40603297050E+03  0.40603297050E+03  0.00000000000E+00 0. -1.
         -2   -1    0    0    0  501 -0.00000000000E+00 -0.00000000000E+00 -0.44915404826E+02  0.44915404826E+02  0.00000000000E+00 0.  1.
         25    2    1    2    0    0 -0.53169730814E+02  0.58116715516E+02  0.22107251662E+03  0.26594248693E+03  0.12509107024E+03 0.  0.
          5    1    3    3  502    0 -0.44622070682E+02  0.63303789948E+02  0.45271999870E+02  0.89808270142E+02  0.41800000000E+01 0. -1.
         -5    1    3    3    0  502 -0.85476601312E+01 -0.51870744315E+01  0.17580051675E+03  0.17613421679E+03  0.41800000000E+01 0. -1.
        -11    1    1    2    0    0  0.56452595366E+02 -0.28729558792E+02  0.14188143038E+03  0.15537896691E+03  0.00000000000E+00 0. -1.
         11    1    1    2    0    0 -0.32828645527E+01 -0.29387156725E+02 -0.18363813268E+01  0.29626921481E+02  0.00000000000E+00 0.  1.
</event>
<event>
 7    1  0.2530765E-009  0.9522546E+02  0.7561462E-02  0.1290669E+00
          3   -1    0    0  501    0  0.00000000000E+00  0.00000000000E+00  0.10675507907E+03  0.10675507907E+03  0.00000000000E+00 0. -1.
         -3   -1    0    0    0  501 -0.00000000000E+00 -0.00000000000E+00 -0.14053420372E+03  0.14053420372E+03  0.00000000000E+00 0.  1.
         25    2    1    2    0    0  0.47840310438E+02  0.24425833283E+02 -0.36300003521E+02  0.14089138881E+03  0.12508947418E+03 0.  0.
          5    1    3    3  502    0 -0.12367923573E+02  0.21057200858E+02  0.37841952338E+02  0.45231150751E+02  0.41800000000E+01 0. -1.
         -5    1    3    3    0  502  0.60208234011E+02  0.33686324251E+01 -0.74141955859E+02  0.95660238060E+02  0.41800000000E+01 0. -1.
        -11    1    1    2    0    0 -0.61572385878E+02 -0.47915029705E+02  0.86805146871E+01  0.78500701332E+02  0.00000000000E+00 0.  1.
         11    1    1    2    0    0  0.13732075440E+02  0.23489196422E+02 -0.61596358079E+01  0.27897192649E+02  0.00000000000E+00 0. -1.
</event>
<event>
 7    1  0.3126349E-009  0.1152349E+03  0.7561462E-02  0.1251172E+00
          2   -1    0    0  501    0  0.00000000000E+00  0.00000000000E+00  0.11995333224E+04  0.11995333224E+04  0.00000000000E+00 0.  1.
         -2   -1    0    0    0  501 -0.00000000000E+00 -0.00000000000E+00 -0.15454984568E+02  0.15454984568E+02  0.00000000000E+00 0. -1.
         25    2    1    2    0    0  0.25118299267E+02  0.76877587679E+02  0.69752246269E+03  0.71325104360E+03  0.12509345623E+03 0.  0.
          5    1    3    3  502    0  0.30163369036E+02  0.91414284079E+02  0.29344141465E+03  0.30885552674E+03  0.41800000000E+01 0.  1.
         -5    1    3    3    0  502 -0.50450697688E+01 -0.14536696400E+02  0.40408104805E+03  0.40439551687E+03  0.41800000000E+01 0.  1.
        -11    1    1    2    0    0 -0.37499111734E+02  0.27384841634E+01  0.99112879838E+02  0.10600493208E+03  0.00000000000E+00 0.  1.
         11    1    1    2    0    0  0.12380812467E+02 -0.79616071843E+02  0.38744299526E+03  0.39573233124E+03  0.00000000000E+00 0. -1.
</event>
<event>
 7    1  0.2530765E-009  0.1178062E+03  0.7561462E-02  0.1246761E+00
          4   -1    0    0  501    0  0.00000000000E+00  0.00000000000E+00  0.31375537477E+02  0.31375537477E+02  0.00000000000E+00 0. -1.
         -4   -1    0    0    0  501 -0.00000000000E+00 -0.00000000000E+00 -0.51275001088E+03  0.51275001088E+03  0.00000000000E+00 0.  1.
         25    2    1    2    0    0  0.44943266584E+02 -0.41736303089E+02 -0.21844945726E+03  0.25909569323E+03  0.12509435105E+03 0.  0.
          5    1    3    3  502    0  0.13155840151E+02 -0.83174987447E+02 -0.10946111176E+03  0.13816787635E+03  0.41800000000E+01 0. -1.
         -5    1    3    3    0  502  0.31787426434E+02  0.41438684358E+02 -0.10898834549E+03  0.12092781687E+03  0.41800000000E+01 0. -1.
        -11    1    1    2    0    0 -0.66408162252E+02  0.22596486817E+02 -0.11797416392E+03  0.13725359224E+03  0.00000000000E+00 0. -1.
         11    1    1    2    0    0  0.21464895668E+02  0.19139816272E+02 -0.14495085222E+03  0.14777626289E+03  0.00000000000E+00 0.  1.
</event>
<event>
 7    1  0.2530765E-009  0.7838613E+02  0.7561462E-02  0.1333695E+00
         -3   -1    0    0    0  501 -0.00000000000E+00  0.00000000000E+00  0.17788506068E+03  0.17788506068E+03  0.00000000000E+00 0.  1.
          3   -1    0    0  501    0  0.00000000000E+00 -0.00000000000E+00 -0.81719291491E+02  0.81719291491E+02  0.00000000000E+00 0. -1.
         25    2    1    2    0    0 -0.24269807957E+02 -0.49856418908E+02  0.34425881963E+02  0.14110369415E+03  0.12510165894E+03 0.  0.
          5    1    3    3  502    0 -0.20987946281E+02 -0.35589284094E+02 -0.44415695964E+02  0.60805571121E+02  0.41800000000E+01 0.  1.
         -5    1    3    3    0  502 -0.32818616762E+01 -0.14267134814E+02  0.78841577927E+02  0.80298123028E+02  0.41800000000E+01 0.  1.
        -11    1    1    2    0    0  0.39280721359E+02 -0.81372693704E+01  0.33546200619E+02  0.52292808294E+02  0.00000000000E+00 0. -1.
         11    1    1    2    0    0 -0.15010913402E+02  0.57993688278E+02  0.28193686610E+02  0.66207849730E+02  0.00000000000E+00 0.  1.
</event>
<event>
 7    1  0.2530765E-009  0.8735993E+02  0.7561462E-02  0.1309374E+00
          3   -1    0    0  501    0  0.00000000000E+00  0.00000000000E+00  0.25758686141E+03  0.25758686141E+03  0.00000000000E+00 0. -1.
         -3   -1    0    0    0  501 -0.00000000000E+00 -0.00000000000E+00 -0.51086180343E+02  0.51086180343E+02  0.00000000000E+00 0.  1.
         25    2    1    2    0    0 -0.44365712003E+02 -0.11070003517E+01  0.92729102638E+02  0.16191093466E+03  0.12508765901E+03 0.  0.
          5    1    3    3  502    0  0.18536687026E+02 -0.92249975567E-01  0.96879179627E+02  0.98725200031E+02  0.41800000000E+01 0.  1.
         -5    1    3    3    0  502 -0.62902399029E+02 -0.10147503762E+01 -0.41500769889E+01  0.63185734631E+02  0.41800000000E+01 0.  1.
        -11    1    1    2    0    0  0.37959667489E+02 -0.37603149709E+02  0.63414533451E+02  0.82923677419E+02  0.00000000000E+00 0.  1.
         11    1    1    2    0    0  0.64060445142E+01  0.38710150060E+02  0.50357044976E+02  0.63838429670E+02  0.00000000000E+00 0. -1.
</event>
<event>
 7    1  0.2530765E-009  0.1248937E+03  0.7561462E-02  0.1235235E+00
          1   -1    0    0  501    0  0.00000000000E+00  0.00000000000E+00  0.33386220852E+02  0.33386220852E+02  0.00000000000E+00 0. -1.
         -1   -1    0    0    0  501 -0.00000000000E+00 -0.00000000000E+00 -0.56771492408E+03  0.56771492408E+03  0.00000000000E+00 0.  1.
         25    2    1    2    0    0 -0.19121014654E+02 -0.66106658711E+02 -0.38984923106E+03  0.41517162602E+03  0.12509737232E+03 0.  0.
          5    1    3    3  502    0 -0.53939994437E+02 -0.85949051925E+02 -0.25673010634E+03  0.27608799762E+03  0.41800000000E+01 0. -1.
         -5    1    3    3    0  502  0.34818979783E+02  0.19842393214E+02 -0.13311912472E+03  0.13908362840E+03  0.41800000000E+01 0. -1.
        -11    1    1    2    0    0  0.29843666681E+02 -0.96948569284E+01 -0.79661739109E+02  0.85619082976E+02  0.00000000000E+00 0.  1.
         11    1    1    2    0    0 -0.10722652027E+02  0.75801515639E+02 -0.64817733054E+02  0.10031043594E+03  0.00000000000E+00 0. -1.
</event>
<event>
 7    1  0.2530765E-009  0.1045079E+03  0.7561462E-02  0.1271092E+00
         -2   -1    0    0    0  501 -0.00000000000E+00  0.00000000000E+00  0.91529971348E+02  0.91529971348E+02  0.00000000000E+00 0.  1.
          2   -1    0    0  501    0  0.00000000000E+00 -0.00000000000E+00 -0.19384004511E+03  0.19384004511E+03  0.00000000000E+00 0. -1.
         25    2    1    2    0    0 -0.19389621680E+02  0.47749161542E+02 -0.11748449261E+03  0.17918060079E+03  0.12508853600E+03 0.  0.
          5    1    3    3  502    0 -0.53421094997E+02  0.49372714455E+00 -0.10726989812E+03  0.11990980194E+03  0.41800000000E+01 0. -1.
         -5    1    3    3    0  502  0.34031473317E+02  0.47255434397E+02 -0.10214594486E+02  0.59270798853E+02  0.41800000000E+01 0. -1.
        -11    1    1    2    0    0  0.11632877551E+02 -0.71303666020E+02  0.28938909333E+02  0.77826712005E+02  0.00000000000E+00 0.  1.
         11    1    1    2    0    0  0.77567441287E+01  0.23554504479E+02 -0.13764490484E+02  0.28362703662E+02  0.00000000000E+00 0. -1.
</event>
<event>
 7    1  0.2530765E-009  0.1343704E+03  0.7561462E-02  0.1221111E+00
          3   -1    0    0  501    0  0.00000000000E+00  0.00000000000E+00  0.10261743623E+04  0.10261743623E+04  0.00000000000E+00 0. -1.
         -3   -1    0    0    0  501 -0.00000000000E+00 -0.00000000000E+00 -0.21622988435E+02  0.21622988435E+02  0.00000000000E+00 0.  1.
         25    2    1    2    0    0  0.10043239357E+03  0.95351180534E+01  0.48923123765E+03  0.51494941415E+03  0.12509241022E+03 0.  0.
          5    1    3    3  502    0  0.88981286082E+02  0.42393262681E+02  0.19397418841E+03  0.21761965941E+03  0.41800000000E+01 0. -1.
         -5    1    3    3    0  502  0.11451107487E+02 -0.32858144628E+02  0.29525704924E+03  0.29732975474E+03  0.41800000000E+01 0. -1.
        -11    1    1    2    0    0 -0.22421100212E+02 -0.44287586779E+02  0.21202718090E+03  0.21776046821E+03  0.00000000000E+00 0. -1.
         11    1    1    2    0    0 -0.78011293356E+02  0.34752468725E+02  0.30329295532E+03  0.31508746836E+03  0.00000000000E+00 0.  1.
</event>
<event>
 7    1  0.2530765E-009  0.6982067E+02  0.7561462E-02  0.1360704E+00
          3   -1    0    0  501    0  0.00000000000E+00  0.00000000000E+00  0.16014689473E+03  0.16014689473E+03  0.00000000000E+00 0. -1.
         -3   -1    0    0    0  501 -0.00000000000E+00 -0.00000000000E+00 -0.81834895767E+02  0.81834895767E+02  0.00000000000E+00 0.  1.
         25    2    1    2    0    0 -0.25775760264E+02 -0.29817136050E+02  0.59280744584E+02  0.14392870960E+03  0.12509122811E+03 0.  0.
          5    1    3    3  502    0 -0.14474125299E+01 -0.12946669019E+02 -0.38931824232E+02  0.41265852466E+02  0.41800000000E+01 0.  1.
         -5    1    3    3    0  502 -0.24328347734E+02 -0.16870467030E+02  0.98212568816E+02  0.10266285713E+03  0.41800000000E+01 0.  1.
        -11    1    1    2    0    0 -0.64556956518E+01  0.54863377532E+02  0.13437268564E+02  0.56852672646E+02  0.00000000000E+00 0. -1.
         11    1    1    2    0    0  0.32231455916E+02 -0.25046241483E+02  0.55939858177E+01  0.41200408253E+02  0.00000000000E+00 0.  1.
</event>
<event>
 7    1  0.2530765E-009  0.9471504E+02  0.7561462E-02  0.1291819E+00
          2   -1    0    0  501    0  0.00000000000E+00  0.00000000000E+00  0.38795219913E+02  0.38795219913E+02  0.00000000000E+00 0. -1.
         -2   -1    0    0    0  501 -0.00000000000E+00 -0.00000000000E+00 -0.38800889459E+03  0.38800889459E+03  0.00000000000E+00 0.  1.
         25    2    1    2    0    0 -0.45136444684E+02 -0.27404110009E+02 -0.15287628287E+03  0.20446749055E+03  0.12509001937E+03 0.  0.
          5    1    3    3  502    0  0.22115112936E+02  0.12026855130E+02 -0.11480814092E+03  0.11760997018E+03  0.41800000000E+01 0. -1.
         -5    1    3    3    0  502 -0.67251557620E+02 -0.39430965139E+02 -0.38068141949E+02  0.86857520374E+02  0.41800000000E+01 0. -1.
        -11    1    1    2    0    0  0.62106627927E+02  0.12711909497E+02 -0.71752361648E+02  0.95745638426E+02  0.00000000000E+00 0. -1.
         11    1    1    2    0    0 -0.16970183244E+02  0.14692200512E+02 -0.12458503016E+03  0.12659098553E+03  0.00000000000E+00 0.  1.
</event>
<event>
 7    1  0.2530765E-009  0.1131937E+03  0.7561462E-02  0.1254767E+00
         -1   -1    0    0    0  501 -0.00000000000E+00  0.00000000000E+00  0.66950192454E+02  0.66950192454E+02  0.00000000000E+00 0. -1.
          1   -1    0    0  501    0  0.00000000000E+00 -0.00000000000E+00 -0.26516870616E+03  0.26516870616E+03  0.00000000000E+00 0.  1.
         25    2    1    2    0    0 -0.42327684109E+02 -0.30695035102E+02 -0.18188107090E+03  0.22685242753E+03  0.12508989529E+03 0.  0.
          5    1    3    3  502    0 -0.79974140045E+02  0.78803818417E+01 -0.12230176306E+03  0.14640067330E+03  0.41800000000E+01 0. -1.
         -5    1    3    3    0  502  0.37646455936E+02 -0.38575416943E+02 -0.59579307836E+02  0.80451754233E+02  0.41800000000E+01 0. -1.
        -11    1    1    2    0    0  0.31036369335E+02 -0.21948914555E+02  0.17317524838E+02  0.41772092815E+02  0.00000000000E+00 0. -1.
         11    1    1    2    0    0  0.11291314775E+02  0.52643949657E+02 -0.33654967651E+02  0.63494378274E+02  0.00000000000E+00 0.  1.
</event>
<event>
 7    1  0.2530765E-009  0.9988835E+02  0.7561462E-02  0.1280531E+00
          3   -1    0    0  501    0  0.00000000000E+00  0.00000000000E+00  0.90060700812E+02  0.90060700812E+02  0.00000000000E+00 0. -1.
         -3   -1    0    0    0  501 -0.00000000000E+00 -0.00000000000E+00 -0.14165429609E+03  0.14165429609E+03  0.00000000000E+00 0.  1.
         25    2    1    2    0    0  0.42766847745E+01 -0.24748201029E+02 -0.38236095968E+02  0.13319059830E+03  0.12508786093E+03 0.  0.
          5    1    3    3  502    0  0.51899368153E+02 -0.34754417176E+02  0.11314065570E+02  0.63615205790E+02  0.41800000000E+01 0.  1.
         -5    1    3    3    0  502 -0.47622683379E+02  0.10006216148E+02 -0.49550161538E+02  0.69575392505E+02  0.41800000000E+01 0.  1.
        -11    1    1    2    0    0  0.20228966389E+02  0.49517907598E+02 -0.28411833446E+02  0.60567867172E+02  0.00000000000E+00 0.  1.
         11    1    1    2    0    0 -0.24505651164E+02 -0.24769706569E+02  0.15054334134E+02  0.37956531437E+02  0.00000000000E+00 0. -1.
</event>
<event>
 7    1  0.2896441E-009  0.2791621E+03  0.7561462E-02  0.1096147E+00
          1   -1    0    0  501    0  0.00000000000E+00  0.00000000000E+00  0.13389570654E+04  0.13389570654E+04  0.00000000000E+00 0. -1.
         -1   -1    0    0    0  501 -0.00000000000E+00 -0.00000000000E+00 -0.61733606834E+02  0.61733606834E+02  0.00000000000E+00 0.  1.
         25    2    1    2    0    0  0.21496867915E+03 -0.14584838718E+03  0.51442143959E+03  0.58971016828E+03  0.12508149342E+03 0.  0.
          5    1    3    3  502    0  0.40677516847E+02 -0.96427692954E+02  0.22592863248E+03  0.24902646389E+03  0.41800000000E+01 0. -1.
         -5    1    3    3    0  502  0.17429116231E+03 -0.49420694227E+02  0.28849280711E+03  0.34068370438E+03  0.41800000000E+01 0. -1.
        -11    1    1    2    0    0 -0.12196817075E+03  0.12959479672E+03  0.43913986687E+03  0.47382999977E+03  0.00000000000E+00 0.  1.
         11    1    1    2    0    0 -0.93000508400E+02  0.16253590464E+02  0.32366215212E+03  0.33715050419E+03  0.00000000000E+00 0. -1.
</event>
<event>
 7    1  0.2530765E-009  0.1055333E+03  0.7561462E-02  0.1269073E+00
          1   -1    0    0  501    0  0.00000000000E+00  0.00000000000E+00  0.11865184062E+04  0.11865184062E+04  0.00000000000E+00 0. -1.
         -1   -1    0    0    0  501 -0.00000000000E+00 -0.00000000000E+00 -0.13561081983E+02  0.13561081983E+02  0.00000000000E+00 0.  1.
         25    2    1    2    0    0 -0.10675966324E+02 -0.17878098175E+01  0.95658488324E+03  0.96478877127E+03  0.12508222018E+03 0.  0.
          5    1    3    3  502    0  0.51159166380E+02 -0.21235383363E+02  0.57888857758E+03  0.58154764161E+03  0.41800000000E+01 0.  1.
         -5    1    3    3    0  502 -0.61835132705E+02  0.19447573545E+02  0.37769630567E+03  0.38324112967E+03  0.41800000000E+01 0.  1.
        -11    1    1    2    0    0  0.38765241447E+02  0.31296273191E+02  0.95134138108E+02  0.10739043204E+03  0.00000000000E+00 0. -1.
         11    1    1    2    0    0 -0.28089275123E+02 -0.29508463373E+02  0.12123830286E+03  0.12790028486E+03  0.00000000000E+00 0.  1.
</event>
<event>
 7    1  0.2530765E-009  0.1067043E+03  0.7561462E-02  0.1266798E+00
          1   -1    0    0  501    0  0.00000000000E+00  0.00000000000E+00  0.65626448058E+03  0.65626448058E+03  0.00000000000E+00 0. -1.
         -1   -1    0    0    0  501 -0.00000000000E+00 -0.00000000000E+00 -0.24381924509E+02  0.24381924509E+02  0.00000000000E+00 0.  1.
         25    2    1    2    0    0 -0.39177799017E+02 -0.46868143328E+02  0.43144072324E+03  0.45334337983E+03  0.12509036563E+03 0.  0.
          5    1    3    3  502    0 -0.22688728981E+02  0.33701805710E+02  0.25957834076E+03  0.26277172131E+03  0.41800000000E+01 0. -1.
         -5    1    3    3    0  502 -0.16489070037E+02 -0.80569949038E+02  0.17186238248E+03  0.19057165852E+03  0.41800000000E+01 0. -1.
        -11    1    1    2    0    0 -0.17762805608E+02  0.21489530518E+02  0.14992179972E+02  0.31655688988E+02  0.00000000000E+00 0.  1.
         11    1    1    2    0    0  0.56940604625E+02  0.25378612810E+02  0.18544965286E+03  0.19564733627E+03  0.00000000000E+00 0. -1.
</event>
<event>
 7    1  0.2530765E-009  0.1147667E+03  0.7561462E-02  0.1251989E+00
         -1   -1    0    0    0  501 -0.00000000000E+00  0.00000000000E+00  0.79817435026E+03  0.79817435026E+03  0.00000000000E+00 0.  1.
          1   -1    0    0  501    0  0.00000000000E+00 -0.00000000000E+00 -0.20137914838E+02  0.20137914838E+02  0.00000000000E+00 0. -1.
         25    2    1    2    0    0 -0.51048427418E+02  0.26870118694E+02  0.52442407243E+03  0.54221370222E+03  0.12508855225E+03 0.  0.
          5    1    3    3  502    0 -0.81819205055E+02  0.39256566940E+02  0.46710375733E+03  0.47585591609E+03  0.41800000000E+01 0. -1.
         -5    1    3    3    0  502  0.30770777636E+02 -0.12386448246E+02  0.57320315101E+02  0.66357786128E+02  0.41800000000E+01 0. -1.
        -11    1    1    2    0    0  0.19217600819E+02 -0.57776365955E+02  0.10924377183E+03  0.12506648763E+03  0.00000000000E+00 0. -1.
         11    1    1    2    0    0  0.31830826599E+02  0.30906247262E+02  0.14436859116E+03  0.15103207525E+03  0.00000000000E+00 0.  1.
</event>
<event>
 7    1  0.2530765E-009  0.9385584E+02  0.7561462E-02  0.1293774E+00
         -2   -1    0    0    0  501 -0.00000000000E+00  0.00000000000E+00  0.72346279613E+02  0.72346279613E+02  0.00000000000E+00 0.  1.
          2   -1    0    0  501    0  0.00000000000E+00 -0.00000000000E+00 -0.21674329559E+03  0.21674329559E+03  0.00000000000E+00 0. -1.
         25    2    1    2    0    0  0.31050625189E+02 -0.35682719613E+02 -0.33809257807E+02  0.13794197378E+03  0.12509006520E+03 0.  0.
          5    1    3    3  502    0 -0.14054243552E+02 -0.61726529638E+02 -0.52601498127E+02  0.82414053584E+02  0.41800000000E+01 0.  1.
         -5    1    3    3    0  502  0.45104868741E+02  0.26043810024E+02  0.18792240320E+02  0.55527920193E+02  0.41800000000E+01 0.  1.
        -11    1    1    2    0    0 -0.33302199981E+02  0.48593926009E+02 -0.12088827671E+03  0.13447818267E+03  0.00000000000E+00 0. -1.
         11    1    1    2    0    0  0.22515747922E+01 -0.12911206396E+02  0.10300518536E+02  0.16669418759E+02  0.00000000000E+00 0.  1.
</event>
<event>
 7    1  0.2530765E-009  0.1371006E+03  0.7561462E-02  0.1217284E+00
          1   -1    0    0  501    0  0.00000000000E+00  0.00000000000E+00  0.22914015046E+03  0.22914015046E+03  0.00000000000E+00 0. -1.
         -1   -1    0    0    0  501 -0.00000000000E+00 -0.00000000000E+00 -0.11615539608E+03  0.11615539608E+03  0.00000000000E+00 0.  1.
         25    2    1    2    0    0  0.32856719237E+02  0.10396577235E+03  0.30567271325E+01  0.16596833302E+03  0.12509075971E+03 0.  0.
          5    1    3    3  502    0  0.80074728188E+02  0.57597779636E+02  0.10307404109E+02  0.99263192034E+02  0.41800000000E+01 0.  1.
         -5    1    3    3    0  502 -0.47218008951E+02  0.46367992715E+02 -0.72506769764E+01  0.66705140989E+02  0.41800000000E+01 0.  1.
        -11    1    1    2    0    0 -0.13644063422E+02 -0.52027676925E+02 -0.26646014906E+01  0.53852945453E+02  0.00000000000E+00 0.  1.
         11    1    1    2    0    0 -0.19212655815E+02 -0.51938095427E+02  0.11259262874E+03  0.12547426806E+03  0.00000000000E+00 0. -1.
</event>
<event>
 7    1  0.2530765E-009  0.9741035E+02  0.7561462E-02  0.1285838E+00
         -2   -1    0    0    0  501 -0.00000000000E+00  0.00000000000E+00  0.63231215276E+02  0.63231215276E+02  0.00000000000E+00 0.  1.
          2   -1    0    0  501    0  0.00000000000E+00 -0.00000000000E+00 -0.22507558449E+03  0.22507558449E+03  0.00000000000E+00 0. -1.
         25    2    1    2    0    0  0.40960965370E+02 -0.20757263538E+01 -0.12635832628E+03  0.18247422954E+03  0.12509319926E+03 0.  0.
          5    1    3    3  502    0 -0.34931307606E+01 -0.57410380678E+02 -0.75734880895E+02  0.95191377532E+02  0.41800000000E+01 0. -1.
         -5    1    3    3    0  502  0.44454096131E+02  0.55334654324E+02 -0.50623445384E+02  0.87282852007E+02  0.41800000000E+01 0. -1.
        -11    1    1    2    0    0 -0.48630886752E+02  0.15111968969E+02 -0.58959977849E+02  0.77907725807E+02  0.00000000000E+00 0. -1.
         11    1    1    2    0    0  0.76699213819E+01 -0.13036242615E+02  0.23473934914E+02  0.27924844420E+02  0.00000000000E+00 0.  1.
</event>
<event>
 7    1  0.2530765E-009  0.1602300E+03  0.7561462E-02  0.1188437E+00
         -2   -1    0    0    0  501 -0.00000000000E+00  0.00000000000E+00  0.12566137023E+03  0.12566137023E+03  0.00000000000E+00 0.  1.
          2   -1    0    0  501    0  0.00000000000E+00 -0.00000000000E+00 -0.25163477627E+03  0.25163477627E+03  0.00000000000E+00 0. -1.
         25    2    1    2    0    0  0.11606369068E+03 -0.75658588668E+02 -0.92472492857E+02  0.20831299698E+03  0.12509252752E+03 0.  0.
          5    1    3    3  502    0  0.17511791571E+02 -0.81123075405E+02 -0.65772099380E+02  0.10597668453E+03  0.41800000000E+01 0. -1.
         -5    1    3    3    0  502  0.98551899108E+02  0.54644867377E+01 -0.26700393477E+02  0.10233631245E+03  0.41800000000E+01 0. -1.
        -11    1    1    2    0    0 -0.16073207177E+02  0.94004458276E+01  0.28432344470E+02  0.33986976665E+02  0.00000000000E+00 0.  1.
         11    1    1    2    0    0 -0.99990483501E+02  0.66258142840E+02 -0.61933257651E+02  0.13499617286E+03  0.00000000000E+00 0. -1.
</event>
<event>
 7    1  0.2530765E-009  0.1678005E+03  0.7561462E-02  0.1180161E+00
          2   -1    0    0  501    0  0.00000000000E+00  0.00000000000E+00  0.23169823862E+04  0.23169823862E+04  0.00000000000E+00 0. -1.
         -2   -1    0    0    0  501 -0.00000000000E+00 -0.00000000000E+00 -0.14898860629E+02  0.14898860629E+02  0.00000000000E+00 0.  1.
         25    2    1    2    0    0  0.27686203517E+02  0.13627262481E+03  0.15774927347E+04  0.15885427467E+04  0.12509186986E+03 0.  0.
          5    1    3    3  502    0  0.54009072449E+02  0.29957527644E+02  0.91073725918E+03  0.91283857337E+03  0.41800000000E+01 0. -1.
         -5    1    3    3    0  502 -0.26322868932E+02  0.10631509717E+03  0.66675547553E+03  0.67570417334E+03  0.41800000000E+01 0. -1.
        -11    1    1    2    0    0 -0.37992444756E+02 -0.12651562647E+02  0.22789253969E+03  0.23138387485E+03  0.00000000000E+00 0. -1.
         11    1    1    2    0    0  0.10306241239E+02 -0.12362106217E+03  0.49669825118E+03  0.51195462528E+03  0.00000000000E+00 0.  1.
</event>
<event>
 7    1  0.2530765E-009  0.9430450E+02  0.7561462E-02  0.1292750E+00
         -3   -1    0    0    0  501 -0.00000000000E+00  0.00000000000E+00  0.25993323897E+03  0.25993323897E+03  0.00000000000E+00 0.  1.
          3   -1    0    0  501    0  0.00000000000E+00 -0.00000000000E+00 -0.54576566971E+02  0.54576566971E+02  0.00000000000E+00 0. -1.
         25    2    1    2    0    0 -0.48437869854E+02 -0.23482987196E+02  0.12320829777E+03  0.18365185196E+03  0.12510012057E+03 0.  0.
          5    1    3    3  502    0 -0.42417321956E+02  0.44921785348E+02  0.84348527191E+02  0.10463910569E+03  0.41800000000E+01 0. -1.
         -5    1    3    3    0  502 -0.60205478975E+01 -0.68404772543E+02  0.38859770580E+02  0.79012746271E+02  0.41800000000E+01 0. -1.
        -11    1    1    2    0    0  0.42461501126E+02  0.10718122585E+02  0.99376956204E+02  0.10859851129E+03  0.00000000000E+00 0.  1.
         11    1    1    2    0    0  0.59763687278E+01  0.12764864610E+02 -0.17228581979E+02  0.22259442686E+02  0.00000000000E+00 0. -1.
</event>
<event>
 7    1  0.2530765E-009  0.9977332E+02  0.7561462E-02  0.1280773E+00
          2   -1    0    0  501    0  0.00000000000E+00  0.00000000000E+00  0.22009734761E+03  0.22009734761E+03  0.00000000000E+00 0. -1.
         -2   -1    0    0    0  501 -0.00000000000E+00 -0.00000000000E+00 -0.56142172372E+02  0.56142172372E+02  0.00000000000E+00 0.  1.
         25    2    1    2    0    0  0.29690045552E+01 -0.47825586677E+02  0.87237950601E+02  0.15985489083E+03  0.12508806645E+03 0.  0.
          5    1    3    3  502    0  0.52528095580E+02 -0.54174619464E+02  0.24296656499E+02  0.79384445178E+02  0.41800000000E+01 0. -1.
         -5    1    3    3    0  502 -0.49559091024E+02  0.63490327867E+01  0.62941294102E+02  0.80470445654E+02  0.41800000000E+01 0. -1.
        -11    1    1    2    0    0 -0.28418965400E+02  0.35733416916E+02  0.14204258465E+02  0.47815014770E+02  0.00000000000E+00 0.  1.
         11    1    1    2    0    0  0.25449960845E+02  0.12092169761E+02  0.62512966170E+02  0.68569614378E+02  0.00000000000E+00 0. -1.
</event>
<event>
 7    1  0.2530765E-009  0.1276916E+03  0.7561462E-02  0.1230922E+00
          2   -1    0    0  501    0  0.00000000000E+00  0.00000000000E+00  0.43302423181E+03  0.43302423181E+03  0.00000000000E+00 0. -1.
         -2   -1    0    0    0  501 -0.00000000000E+00 -0.00000000000E+00 -0.41221898886E+02  0.41221898886E+02  0.00000000000E+00 0.  1.
         25    2    1    2    0    0  0.24184057286E+02 -0.73559890445E+02  0.22898954362E+03  0.27217634636E+03  0.12509127198E+03 0.  0.
          5    1    3    3  502    0  0.43788974424E+02 -0.97254380041E+02  0.12875067637E+03  0.16724263148E+03  0.41800000000E+01 0. -1.
         -5    1    3    3    0  502 -0.19604917138E+02  0.23694489596E+02  0.10023886724E+03  0.10493371488E+03  0.41800000000E+01 0. -1.
        -11    1    1    2    0    0 -0.56001832655E+02  0.29607132990E+02  0.10616412938E+03  0.12362689817E+03  0.00000000000E+00 0. -1.
         11    1    1    2    0    0  0.31817775369E+02  0.43952757454E+02  0.56648659927E+02  0.78442886158E+02  0.00000000000E+00 0.  1.
</event>
<event>
 7    1  0.2530765E-009  0.1100868E+03  0.7561462E-02  0.1260409E+00
          2   -1    0    0  501    0  0.00000000000E+00  0.00000000000E+00  0.10179294648E+04  0.10179294648E+04  0.00000000000E+00 0. -1.
         -2   -1    0    0    0  501 -0.00000000000E+00 -0.00000000000E+00 -0.13246896079E+02  0.13246896079E+02  0.00000000000E+00 0.  1.
         25    2    1    2    0    0  0.23413709863E+02  0.33350164639E+02  0.56847027221E+03  0.58349727880E+03  0.12510071418E+03 0.  0.
          5    1    3    3  502    0 -0.45327704895E+02  0.19780738378E+02  0.36279543521E+03  0.36617465594E+03  0.41800000000E+01 0.  1.
         -5    1    3    3    0  502  0.68741414758E+02  0.13569426261E+02  0.20567483699E+03  0.21732262285E+03  0.41800000000E+01 0.  1.
        -11    1    1    2    0    0 -0.57721002078E+02 -0.93337310740E+01  0.27168306501E+03  0.27790379708E+03  0.00000000000E+00 0. -1.
         11    1    1    2    0    0  0.34307292215E+02 -0.24016433565E+02  0.16452923155E+03  0.16977528506E+03  0.00000000000E+00 0.  1.
</event>
<event>
 7    1  0.2530765E-009  0.8808405E+02  0.7561462E-02  0.1307559E+00
         -1   -1    0    0    0  501 -0.00000000000E+00  0.00000000000E+00  0.13226250366E+03  0.13226250366E+03  0.00000000000E+00 0.  1.
          1   -1    0    0  501    0  0.00000000000E+00 -0.00000000000E+00 -0.14970130774E+03  0.14970130774E+03  0.00000000000E+00 0. -1.
         25    2    1    2    0    0 -0.50760955664E+02 -0.41029504355E+02  0.49183720194E+02  0.14941985820E+03  0.12508861198E+03 0.  0.
          5    1    3    3  502    0  0.11723800424E+02  0.16781638017E+02  0.59975405261E+02  0.63510570043E+02  0.41800000000E+01 0.  1.
         -5    1    3    3    0  502 -0.62484756088E+02 -0.57811142372E+02 -0.10791685068E+02  0.85909288161E+02  0.41800000000E+01 0.  1.
        -11    1    1    2    0    0  0.50097242417E+02  0.28774769834E+02 -0.89532312034E+02  0.10655400497E+03  0.00000000000E+00 0. -1.
         11    1    1    2    0    0  0.66371324659E+00  0.12254734521E+02  0.22909787761E+02  0.25989948225E+02  0.00000000000E+00 0.  1.
</event>
<event>
 7    1  0.2530765E-009  0.6333830E+02  0.7561462E-02  0.1384333E+00
          2   -1    0    0  501    0  0.00000000000E+00  0.00000000000E+00  0.13194966479E+04  0.13194966479E+04  0.00000000000E+00 0. -1.
         -2   -1    0    0    0  501 -0.00000000000E+00 -0.00000000000E+00 -0.23016262708E+02  0.23016262708E+02  0.00000000000E+00 0.  1.
         25    2    1    2    0    0  0.22212603775E+02  0.43532231054E+02  0.11720746026E+04  0.11797432990E+04  0.12508765970E+03 0.  0.
          5    1    3    3  502    0  0.15535028171E+02  0.12287394834E+02  0.24785253941E+02  0.32001537229E+02  0.41800000000E+01 0.  1.
         -5    1    3    3    0  502  0.66775756041E+01  0.31244836220E+02  0.11472893486E+04  0.11477417617E+04  0.41800000000E+01 0.  1.
        -11    1    1    2    0    0  0.14196447707E+02 -0.33592628119E+02  0.41192472179E+01  0.36701117000E+02  0.00000000000E+00 0.  1.
         11    1    1    2    0    0 -0.36409051482E+02 -0.99396029353E+01  0.12028653541E+03  0.12606849462E+03  0.00000000000E+00 0. -1.
</event>
<event>
 7    1  0.2530765E-009  0.1128529E+03  0.7561462E-02  0.1255376E+00
         -2   -1    0    0    0  501 -0.00000000000E+00  0.00000000000E+00  0.56401265301E+02  0.56401265301E+02  0.00000000000E+00 0. -1.
          2   -1    0    0  501    0  0.00000000000E+00 -0.00000000000E+00 -0.31519750013E+03  0.31519750013E+03  0.00000000000E+00 0.  1.
         25    2    1    2    0    0 -0.50870672862E+02  0.54599285483E+02 -0.17254666795E+03  0.22580655415E+03  0.12508932786E+03 0.  0.
          5    1    3    3  502    0 -0.61747654801E+02  0.79772056206E+02 -0.78896486829E+02  0.12813462397E+03  0.41800000000E+01 0.  1.
         -5    1    3    3    0  502  0.10876981939E+02 -0.25172770723E+02 -0.93650181117E+02  0.97671930180E+02  0.41800000000E+01 0.  1.
        -11    1    1    2    0    0  0.20874518676E+02  0.11916064589E+02 -0.65743085708E+02  0.69999224593E+02  0.00000000000E+00 0.  1.
         11    1    1    2    0    0  0.29996154186E+02 -0.66515350072E+02 -0.20506481173E+02  0.75792986689E+02  0.00000000000E+00 0. -1.
</event>
<event>
 7    1  0.2530765E-009  0.1185669E+03  0.7561462E-02  0.1245480E+00
          2   -1    0    0  501    0  0.00000000000E+00  0.00000000000E+00  0.16750639707E+04  0.16750639707E+04  0.00000000000E+00 0. -1.
         -2   -1    0    0    0  501 -0.00000000000E+00 -0.00000000000E+00 -0.10032640293E+02  0.10032640293E+02  0.00000000000E+00 0.  1.
         25    2    1    2    0    0  0.49369120212E+02  0.12064435787E+02  0.12425872704E+04  0.12499006819E+04  0.12508289078E+03 0.  0.
          5    1    3    3  502    0 -0.85657291703E+01  0.58746965872E+02  0.47810751326E+03  0.48179751385E+03  0.41800000000E+01 0.  1.
         -5    1    3    3    0  502  0.57934849382E+02 -0.46682530085E+02  0.76447975711E+03  0.76810316808E+03  0.41800000000E+01 0.  1.
        -11    1    1    2    0    0 -0.17520015951E+02 -0.50342348684E+02  0.25465054531E+03  0.26016956635E+03  0.00000000000E+00 0.  1.
         11    1    1    2    0    0 -0.31849104261E+02  0.38277912897E+02  0.16779351472E+03  0.17502636270E+03  0.00000000000E+00 0. -1.
</event>
<event>
 7    1  0.2530765E-009  0.1276940E+03  0.7561462E-02  0.1230918E+00
         -2   -1    0    0    0  501 -0.00000000000E+00  0.00000000000E+00  0.34556132696E+03  0.34556132696E+03  0.00000000000E+00 0.  1.
          2   -1    0    0  501    0  0.00000000000E+00 -0.00000000000E+00 -0.70740622913E+02  0.70740622913E+02  0.00000000000E+00 0. -1.
         25    2    1    2    0    0 -0.31886899184E+02 -0.87328781649E+02  0.71094321490E+02  0.17130297756E+03  0.12508883694E+03 0.  0.
          5    1    3    3  502    0 -0.70570352271E+02 -0.90122291097E+02  0.65353531414E+02  0.13187402489E+03  0.41800000000E+01 0.  1.
         -5    1    3    3    0  502  0.38683453087E+02  0.27935094487E+01  0.57407900761E+01  0.39428952668E+02  0.41800000000E+01 0.  1.
        -11    1    1    2    0    0  0.40660395802E+02  0.55362581001E+02  0.43332822304E+02  0.81215864526E+02  0.00000000000E+00 0. -1.
         11    1    1    2    0    0 -0.87734966171E+01  0.31966200648E+02  0.16039356025E+03  0.16378310779E+03  0.00000000000E+00 0.  1.
</event>
<event>
 7    1  0.2530765E-009  0.1268563E+03  0.7561462E-02  0.1232196E+00
          1   -1    0    0  501    0  0.00000000000E+00  0.00000000000E+00  0.15721581798E+03  0.15721581798E+03  0.00000000000E+00 0. -1.
         -1   -1    0    0    0  501 -0.00000000000E+00 -0.00000000000E+00 -0.14058678514E+03  0.14058678514E+03  0.00000000000E+00 0.  1.
         25    2    1    2    0    0  0.83584911661E+02 -0.54367218754E+02 -0.88997724664E+01  0.16021564643E+03  0.12509042920E+03 0.  0.
          5    1    3    3  502    0  0.15223194439E+02 -0.67147376102E+02  0.35522050352E+02  0.77587397350E+02  0.41800000000E+01 0.  1.
         -5    1    3    3    0  502  0.68361717223E+02  0.12780157348E+02 -0.44421822818E+02  0.82628249080E+02  0.41800000000E+01 0.  1.
        -11    1    1    2    0    0 -0.20059175303E+02 -0.11852435648E+02  0.38409509265E+02  0.44923725876E+02  0.00000000000E+00 0. -1.
         11    1    1    2    0    0 -0.63525736359E+02  0.66219654401E+02 -0.12880703960E+02  0.92663230806E+02  0.00000000000E+00 0.  1.
</event>
<event>
 7    1  0.2530765E-009  0.9875404E+02  0.7561462E-02  0.1282938E+00
          2   -1    0    0  501    0  0.00000000000E+00  0.00000000000E+00  0.11271578411E+04  0.11271578411E+04  0.00000000000E+00 0. -1.
         -2   -1    0    0    0  501 -0.00000000000E+00 -0.00000000000E+00 -0.11673303425E+02  0.11673303425E+02  0.00000000000E+00 0.  1.
         25    2    1    2    0    0  0.29471380544E+02 -0.87808658145E+01  0.73874399793E+03  0.74989150939E+03  0.12509562546E+03 0.  0.
          5    1    3    3  502    0 -0.31805499538E+02 -0.23417270834E+02  0.53772682894E+03  0.53919159242E+03  0.41800000000E+01 0.  1.
         -5    1    3    3    0  502  0.61276880081E+02  0.14636405020E+02  0.20101716899E+03  0.21069991697E+03  0.41800000000E+01 0.  1.
        -11    1    1    2    0    0 -0.59649936814E+02  0.19297180462E+02  0.28430476789E+03  0.29113518713E+03  0.00000000000E+00 0. -1.
         11    1    1    2    0    0  0.30178556270E+02 -0.10516314648E+02  0.92435771895E+02  0.97804448049E+02  0.00000000000E+00 0.  1.
</event>
<event>
 7    1  0.2530765E-009  0.1088995E+03  0.7561462E-02  0.1262621E+00
         -2   -1    0    0    0  501 -0.00000000000E+00  0.00000000000E+00  0.32914765367E+02  0.32914765367E+02  0.00000000000E+00 0.  1.
          2   -1    0    0  501    0  0.00000000000E+00 -0.00000000000E+00 -0.43976670738E+03  0.43976670738E+03  0.00000000000E+00 0. -1.
         25    2    1    2    0    0  0.38834384771E+02  0.21541526001E+02 -0.17643221380E+03  0.22078634591E+03  0.12508452219E+03 0.  0.
          5    1    3    3  502    0 -0.23169525636E+02  0.47249476685E+02 -0.12635000708E+03  0.13693478978E+03  0.41800000000E+01 0.  1.
         -5    1    3    3    0  502  0.62003910407E+02 -0.25707950684E+02 -0.50082206722E+02  0.83851556123E+02  0.41800000000E+01 0.  1.
        -11    1    1    2    0    0 -0.52962934295E+02 -0.45578590562E+02 -0.12895526706E+03  0.14666949659E+03  0.00000000000E+00 0. -1.
         11    1    1    2    0    0  0.14128549525E+02  0.24037064561E+02 -0.10146446115E+03  0.10522563025E+03  0.00000000000E+00 0.  1.
</event>
<event>
 7    1  0.2530765E-009  0.1238691E+03  0.7561462E-02  0.1236847E+00
         -1   -1    0    0    0  501 -0.00000000000E+00  0.00000000000E+00  0.24990865713E+02  0.24990865713E+02  0.00000000000E+00 0.  1.
          1   -1    0    0  501    0  0.00000000000E+00 -0.00000000000E+00 -0.65318139447E+03  0.65318139447E+03  0.00000000000E+00 0. -1.
         25    2    1    2    0    0 -0.10037891927E+02 -0.67647302162E+02 -0.33245133422E+03  0.36173111907E+03  0.12509434884E+03 0.  0.
          5    1    3    3  502    0  0.53270952735E+02 -0.18755058636E+02 -0.19050879255E+03  0.19874762657E+03  0.41800000000E+01 0.  1.
         -5    1    3    3    0  502 -0.63308844662E+02 -0.48892243526E+02 -0.14194254168E+03  0.16298349250E+03  0.41800000000E+01 0.  1.
        -11    1    1    2    0    0  0.47726831136E+02  0.50868820927E+02 -0.21023775671E+03  0.22150711433E+03  0.00000000000E+00 0.  1.
         11    1    1    2    0    0 -0.37688939209E+02  0.16778481236E+02 -0.85501437824E+02  0.94934026783E+02  0.00000000000E+00 0. -1.
</event>
<event>
 7    1  0.2530765E-009  0.1366011E+03  0.7561462E-02  0.1217977E+00
         -2   -1    0    0    0  501 -0.00000000000E+00  0.00000000000E+00  0.15719967894E+02  0.15719967894E+02  0.00000000000E+00 0.  1.
          2   -1    0    0  501    0  0.00000000000E+00 -0.00000000000E+00 -0.22268750560E+04  0.22268750560E+04  0.00000000000E+00 0. -1.
         25    2    1    2    0    0  0.79986100952E+02  0.35771473327E+02 -0.19050412975E+04  0.19111535213E+04  0.12509221419E+03 0.  0.
          5    1    3    3  502    0  0.11159185534E+03  0.35532032396E+02 -0.12993665404E+04  0.13046402364E+04  0.41800000000E+01 0.  1.
         -5    1    3    3    0  502 -0.31605754393E+02  0.23944093076E+00 -0.60567475706E+03  0.60651328492E+03  0.41800000000E+01 0.  1.
        -11    1    1    2    0    0  0.50691710454E+01 -0.38697378431E+02 -0.65809978738E+02  0.76512331646E+02  0.00000000000E+00 0.  1.
         11    1    1    2    0    0 -0.85055271997E+02  0.29259051033E+01 -0.24030381189E+03  0.25492917099E+03  0.00000000000E+00 0. -1.
</event>
<event>
 7    1  0.2530765E-009  0.1309975E+03  0.7561462E-02  0.1225983E+00
          1   -1    0    0  501    0  0.00000000000E+00  0.00000000000E+00  0.87807061964E+02  0.87807061964E+02  0.00000000000E+00 0. -1.
         -1   -1    0    0    0  501 -0.00000000000E+00 -0.00000000000E+00 -0.26053895856E+03  0.26053895856E+03  0.00000000000E+00 0.  1.
         25    2    1    2    0    0 -0.94107843952E+02 -0.41369936026E+01 -0.14372617305E+03  0.21255134752E+03  0.12508981375E+03 0.  0.
          5    1    3    3  502    0  0.18842150083E+02 -0.24648851128E+02 -0.38364639283E+01  0.31540186067E+02  0.41800000000E+01 0.  1.
         -5    1    3    3    0  502 -0.11294999404E+03  0.20511857526E+02 -0.13988970913E+03  0.18101116145E+03  0.41800000000E+01 0.  1.
        -11    1    1    2    0    0  0.80261637050E+02 -0.24574763784E+02 -0.49927614641E+02  0.97665838965E+02  0.00000000000E+00 0.  1.
         11    1    1    2    0    0  0.13846206903E+02  0.28711757387E+02  0.20921891099E+02  0.38128834037E+02  0.00000000000E+00 0. -1.
</event>
<event>
 7    1  0.2530765E-009  0.1204901E+03  0.7561462E-02  0.1242291E+00
         -3   -1    0    0    0  501 -0.00000000000E+00  0.00000000000E+00  0.96404631657E+02  0.96404631657E+02  0.00000000000E+00 0.  1.
          3   -1    0    0  501    0  0.00000000000E+00 -0.00000000000E+00 -0.19609166650E+03  0.19609166650E+03  0.00000000000E+00 0. -1.
         25    2    1    2    0    0  0.72780147988E+02 -0.26805168097E+02 -0.56622737005E+01  0.14729116404E+03  0.12508860333E+03 0.  0.
          5    1    3    3  502    0  0.54239665958E+02 -0.70370050103E+02 -0.30030166764E+02  0.93878477994E+02  0.41800000000E+01 0.  1.
         -5    1    3    3    0  502  0.18540482030E+02  0.43564882005E+02  0.24367893063E+02  0.53412686044E+02  0.41800000000E+01 0.  1.
        -11    1    1    2    0    0  0.13843560637E+02  0.75408161014E+01 -0.35668191451E+02  0.38996512152E+02  0.00000000000E+00 0. -1.
         11    1    1    2    0    0 -0.86623708626E+02  0.19264351996E+02 -0.58356569690E+02  0.10620862197E+03  0.00000000000E+00 0.  1.
</event>
<event>
 7    1  0.2530765E-009  0.9533793E+02  0.7561462E-02  0.1290417E+00
          4   -1    0    0  501    0  0.00000000000E+00  0.00000000000E+00  0.18889508851E+03  0.18889508851E+03  0.00000000000E+00 0. -1.
         -4   -1    0    0    0  501 -0.00000000000E+00 -0.00000000000E+00 -0.10688469105E+03  0.10688469105E+03  0.00000000000E+00 0.  1.
         25    2    1    2    0    0 -0.82861554484E+02 -0.61472649675E+01  0.89923980654E+01  0.15044134134E+03  0.12509159797E+03 0.  0.
          5    1    3    3  502    0 -0.77506922536E+02  0.17287887434E+02  0.56148657919E+02  0.97346485705E+02  0.41800000000E+01 0.  1.
         -5    1    3    3    0  502 -0.53546319475E+01 -0.23435152401E+02 -0.47156259854E+02  0.53094855633E+02  0.41800000000E+01 0.  1.
        -11    1    1    2    0    0  0.44736313237E+02 -0.91716774452E+01  0.89965860248E+02  0.10089258347E+03  0.00000000000E+00 0. -1.
         11    1    1    2    0    0  0.38125241247E+02  0.15318942413E+02 -0.16947860860E+02  0.44445854751E+02  0.00000000000E+00 0.  1.
</event>
<event>
 7    1  0.2530765E-009  0.8210486E+02  0.7561462E-02  0.1323182E+00
          1   -1    0    0  501    0  0.00000000000E+00  0.00000000000E+00  0.17355253458E+03  0.17355253458E+03  0.00000000000E+00 0. -1.
         -1   -1    0    0    0  501 -0.00000000000E+00 -0.00000000000E+00 -0.84038937787E+02  0.84038937787E+02  0.00000000000E+00 0.  1.
         25    2    1    2    0    0 -0.28994872057E+02 -0.26312615626E+01  0.81188503212E+01  0.12868922887E+03  0.12508947100E+03 0.  0.
          5    1    3    3  502    0  0.17130902821E+02 -0.10727201398E+02  0.57147000237E+02  0.60760124402E+02  0.41800000000E+01 0.  1.
         -5    1    3    3    0  502 -0.46125774878E+02  0.80959398354E+01 -0.49028149916E+02  0.67929104470E+02  0.41800000000E+01 0.  1.
        -11    1    1    2    0    0 -0.15648262882E+02 -0.34888238750E+02  0.16470796807E+02  0.41633453878E+02  0.00000000000E+00 0.  1.
         11    1    1    2    0    0  0.44643134939E+02  0.37519500313E+02  0.64923949660E+02  0.87268789612E+02  0.00000000000E+00 0. -1.
</event>
<event>
 7    1  0.2530765E-009  0.1149076E+03  0.7561462E-02  0.1251742E+00
          1   -1    0    0  501    0  0.00000000000E+00  0.00000000000E+00  0.39828771634E+03  0.39828771634E+03  0.00000000000E+00 0. -1.
         -1   -1    0    0    0  501 -0.00000000000E+00 -0.00000000000E+00 -0.39424380731E+02  0.39424380731E+02  0.00000000000E+00 0.  1.
         25    2    1    2    0    0 -0.39166610050E+02 -0.52665881483E+02  0.23019928495E+03  0.27009182246E+03  0.12510061290E+03 0.  0.
          5    1    3    3  502    0 -0.30079207695E+02  0.32437837269E+02  0.13442910933E+03  0.14158259023E+03  0.41800000000E+01 0. -1.
         -5    1    3    3    0  502 -0.90874023543E+01 -0.85103718752E+02  0.95770175625E+02  0.12850923222E+03  0.41800000000E+01 0. -1.
        -11    1    1    2    0    0 -0.17651299052E+02  0.36617910630E+02  0.23332981866E+02  0.46870756127E+02  0.00000000000E+00 0.  1.
         11    1    1    2    0    0  0.56817909102E+02  0.16047970854E+02  0.10533106879E+03  0.12074951849E+03  0.00000000000E+00 0. -1.
</event>
<event>
 7    1  0.2530765E-009  0.1190465E+03  0.7561462E-02  0.1244678E+00
          2   -1    0    0  501    0  0.00000000000E+00  0.00000000000E+00  0.97457924059E+03  0.97457924059E+03  0.00000000000E+00 0. -1.
         -2   -1    0    0    0  501 -0.00000000000E+00 -0.00000000000E+00 -0.33418742251E+02  0.33418742251E+02  0.00000000000E+00 0.  1.
         25    2    1    2    0    0 -0.34394162581E+02  0.76928072883E+02  0.82329755526E+03  0.83699964312E+03  0.12509456929E+03 0.  0.
          5    1    3    3  502    0  0.26093148871E+02  0.17356944220E+02  0.50766790504E+02  0.59806816909E+02  0.41800000000E+01 0. -1.
         -5    1    3    3    0  502 -0.60487311453E+02  0.59571128663E+02  0.77253076476E+03  0.77719282621E+03  0.41800000000E+01 0. -1.
        -11    1    1    2    0    0  0.14153638848E+02  0.18856615835E+02  0.10832228549E+02  0.25946765284E+02  0.00000000000E+00 0.  1.
         11    1    1    2    0    0  0.20240523734E+02 -0.95784688718E+02  0.10703071452E+03  0.14505157443E+03  0.00000000000E+00 0. -1.
</event>
<event>
 7    1  0.2530765E-009  0.1302959E+03  0.7561462E-02  0.1227017E+00
         -2   -1    0    0    0  501 -0.00000000000E+00  0.00000000000E+00  0.95722340256E+03  0.95722340256E+03  0.00000000000E+00 0.  1.
          2   -1    0    0  501    0  0.00000000000E+00 -0.00000000000E+00 -0.37153541555E+02  0.37153541555E+02  0.00000000000E+00 0. -1.
         25    2    1    2    0    0 -0.15161118767E+02 -0.89300671321E+02  0.81443635956E+03  0.82894987836E+03  0.12508736003E+03 0.  0.
          5    1    3    3  502    0  0.42985281212E+02 -0.74468437513E+02  0.60332655143E+03  0.60943718515E+03  0.41800000000E+01 0.  1.
         -5    1    3    3    0  502 -0.58146399979E+02 -0.14832233809E+02  0.21110980813E+03  0.21951269321E+03  0.41800000000E+01 0.  1.
        -11    1    1    2    0    0  0.30520694204E+02  0.93560704436E+02  0.55854691467E+02  0.11315858230E+03  0.00000000000E+00 0. -1.
         11    1    1    2    0    0 -0.15359575437E+02 -0.42600331150E+01  0.49778809978E+02  0.52268483454E+02  0.00000000000E+00 0.  1.
</event>
<event>
 7    1  0.2530765E-009  0.1885125E+03  0.7561462E-02  0.1159810E+00
          1   -1    0    0  501    0  0.00000000000E+00  0.00000000000E+00  0.10672623669E+04  0.10672623669E+04  0.00000000000E+00 0. -1.
         -1   -1    0    0    0  501 -0.00000000000E+00 -0.00000000000E+00 -0.39538560290E+02  0.39538560290E+02  0.00000000000E+00 0.  1.
         25    2    1    2    0    0 -0.15852447958E+03  0.72052870790E+02  0.49489928329E+03  0.53934944866E+03  0.12510355853E+03 0.  0.
          5    1    3    3  502    0 -0.14969889022E+03  0.43588704064E+02  0.48200187626E+03  0.50660933072E+03  0.41800000000E+01 0.  1.
         -5    1    3    3    0  502 -0.88255893591E+01  0.28464166726E+02  0.12897407036E+02  0.32740117947E+02  0.41800000000E+01 0.  1.
        -11    1    1    2    0    0  0.25912222179E+02  0.17208117038E+02  0.13864661495E+03  0.14209309057E+03  0.00000000000E+00 0. -1.
         11    1    1    2    0    0  0.13261225740E+03 -0.89260987828E+02  0.39417790839E+03  0.42535838798E+03  0.00000000000E+00 0.  1.
</event>
<event>
 7    1  0.2530765E-009  0.8584649E+02  0.7561462E-02  0.1313234E+00
         -4   -1    0    0    0  501 -0.00000000000E+00  0.00000000000E+00  0.38230604764E+03  0.38230604764E+03  0.00000000000E+00 0.  1.
          4   -1    0    0  501    0  0.00000000000E+00 -0.00000000000E+00 -0.41275509586E+02  0.41275509586E+02  0.00000000000E+00 0. -1.
         25    2    1    2    0    0 -0.38521071260E+02  0.45014728666E+02  0.15588625282E+03  0.20846528896E+03  0.12508818552E+03 0.  0.
          5    1    3    3  502    0  0.20079862469E+01  0.17694991155E+02  0.15829713076E+03  0.15935055296E+03  0.41800000000E+01 0. -1.
         -5    1    3    3    0  502 -0.40529057507E+02  0.27319737511E+02 -0.24108779452E+01  0.49114736002E+02  0.41800000000E+01 0. -1.
        -11    1    1    2    0    0  0.24952588138E+02  0.23633730056E+02  0.94823568810E+02  0.10085977421E+03  0.00000000000E+00 0.  1.
         11    1    1    2    0    0  0.13568483122E+02 -0.68648458722E+02  0.90320716431E+02  0.11425649406E+03  0.00000000000E+00 0. -1.
</event>
<event>
 7    1  0.2530765E-009  0.1868220E+03  0.7561462E-02  0.1161359E+00
         -2   -1    0    0    0  501 -0.00000000000E+00  0.00000000000E+00  0.65696972709E+02  0.65696972709E+02  0.00000000000E+00 0. -1.
          2   -1    0    0  501    0  0.00000000000E+00 -0.00000000000E+00 -0.57485863936E+03  0.57485863936E+03  0.00000000000E+00 0.  1.
         25    2    1    2    0    0  0.78315989360E+02 -0.13948718087E+03 -0.30373922876E+03  0.36537031822E+03  0.12509149664E+03 0.  0.
          5    1    3    3  502    0  0.76916907275E+02 -0.16171535617E+02 -0.13598376110E+03  0.15712028790E+03  0.41800000000E+01 0. -1.
         -5    1    3    3    0  502  0.13990820859E+01 -0.12331564526E+03 -0.16775546767E+03  0.20825003032E+03  0.41800000000E+01 0. -1.
        -11    1    1    2    0    0 -0.51784331825E+02  0.32105858946E+02 -0.12292892763E+03  0.13720030776E+03  0.00000000000E+00 0. -1.
         11    1    1    2    0    0 -0.26531657535E+02  0.10738132193E+03 -0.82493510260E+02  0.13798498609E+03  0.00000000000E+00 0.  1.
</event>
<event>
 7    1  0.2530765E-009  0.9114797E+02  0.7561462E-02  0.1300095E+00
         -1   -1    0    0    0  501 -0.00000000000E+00  0.00000000000E+00  0.28687290990E+03  0.28687290990E+03  0.00000000000E+00 0.  1.
          1   -1    0    0  501    0  0.00000000000E+00 -0.00000000000E+00 -0.44053632577E+02  0.44053632577E+02  0.00000000000E+00 0. -1.
         25    2    1    2    0    0  0.19098377953E+02  0.12415483094E+02  0.12269216540E+03  0.17668859956E+03  0.12508637617E+03 0.  0.
          5    1    3    3  502    0 -0.32913604792E+02  0.48486363903E+01  0.11922386748E+03  0.12384917291E+03  0.41800000000E+01 0. -1.
         -5    1    3    3    0  502  0.52011982745E+02  0.75668467039E+01  0.34682979228E+01  0.52839426649E+02  0.41800000000E+01 0. -1.
        -11    1    1    2    0    0  0.36595686523E+02  0.66063700159E+01  0.37678298525E+02  0.52939045861E+02  0.00000000000E+00 0.  1.
         11    1    1    2    0    0 -0.55694064476E+02 -0.19021853110E+02  0.82448813398E+02  0.10129889705E+03  0.00000000000E+00 0. -1.
</event>
<event>
 7    1  0.2530765E-009  0.6516016E+02  0.7561462E-02  0.1377370E+00
         -1   -1    0    0    0  501 -0.00000000000E+00  0.00000000000E+00  0.56606141228E+02  0.56606141228E+02  0.00000000000E+00 0.  1.
          1   -1    0    0  501    0  0.00000000000E+00 -0.00000000000E+00 -0.28558966920E+03  0.28558966920E+03  0.00000000000E+00 0. -1.
         25    2    1    2    0    0 -0.15339894299E+02 -0.27708457644E+02 -0.48545704928E+02  0.13786640866E+03  0.12508952869E+03 0.  0.
          5    1    3    3  502    0  0.30086072786E+02 -0.16221893338E+02 -0.75973063994E+02  0.83412831457E+02  0.41800000000E+01 0.  1.
         -5    1    3    3    0  502 -0.45425967085E+02 -0.11486564306E+02  0.27427359066E+02  0.54453577205E+02  0.41800000000E+01 0.  1.
        -11    1    1    2    0    0 -0.12358258027E+02  0.10645513260E+02  0.42034943337E+01  0.16844074883E+02  0.00000000000E+00 0.  1.
         11    1    1    2    0    0  0.27698152326E+02  0.17062944384E+02 -0.18464131738E+03  0.18748532688E+03  0.00000000000E+00 0. -1.
</event>
<event>
 7    1  0.2530765E-009  0.7928227E+02  0.7561462E-02  0.1331101E+00
          2   -1    0    0  501    0  0.00000000000E+00  0.00000000000E+00  0.19949879841E+02  0.19949879841E+02  0.00000000000E+00 0. -1.
         -2   -1    0    0    0  501 -0.00000000000E+00 -0.00000000000E+00 -0.87298444031E+03  0.87298444031E+03  0.00000000000E+00 0.  1.
         25    2    1    2    0    0  0.81050100732E+01 -0.61050665224E+02 -0.63999718599E+03  0.65500906736E+03  0.12509038863E+03 0.  0.
          5    1    3    3  502    0  0.23207564738E+02 -0.56277026467E+02 -0.63493962602E+03  0.63786479434E+03  0.41800000000E+01 0.  1.
         -5    1    3    3    0  502 -0.15102554665E+02 -0.47736387580E+01 -0.50575599731E+01  0.17144273017E+02  0.41800000000E+01 0.  1.
        -11    1    1    2    0    0 -0.28250955128E+02  0.17634757543E+02 -0.19574555491E+02  0.38629837715E+02  0.00000000000E+00 0. -1.
         11    1    1    2    0    0  0.20145945055E+02  0.43415907682E+02 -0.19346281899E+03  0.19929541508E+03  0.00000000000E+00 0.  1.
</event>
<event>
 7    1  0.2530765E-009  0.9231455E+02  0.7561462E-02  0.1297342E+00
         -2   -1    0    0    0  501 -0.00000000000E+00  0.00000000000E+00  0.68972606267E+02  0.68972606267E+02  0.00000000000E+00 0.  1.
          2   -1    0    0  501    0  0.00000000000E+00 -0.00000000000E+00 -0.18604327572E+03  0.18604327572E+03  0.00000000000E+00 0. -1.
         25    2    1    2    0    0  0.12376640334E+02 -0.19988272951E+02 -0.63956080010E+02  0.14244425530E+03  0.12508906194E+03 0.  0.
          5    1    3    3  502    0  0.52895824055E+02 -0.91380397966E+01  0.12375802186E+02  0.55245858248E+02  0.41800000000E+01 0.  1.
         -5    1    3    3    0  502 -0.40519183721E+02 -0.10850233154E+02 -0.76331882196E+02  0.87198397052E+02  0.41800000000E+01 0.  1.
        -11    1    1    2    0    0  0.36039894564E+02 -0.54021522204E+00  0.23738033957E+01  0.36122026178E+02  0.00000000000E+00 0.  1.
         11    1    1    2    0    0 -0.48416534898E+02  0.20528488173E+02 -0.55488392842E+02  0.76449600512E+02  0.00000000000E+00 0. -1.
</event>
<event>
 7    1  0.2530765E-009  0.1088980E+03  0.7561462E-02  0.1262624E+00
         -2   -1    0    0    0  501 -0.00000000000E+00  0.00000000000E+00  0.41226394176E+03  0.41226394176E+03  0.00000000000E+00 0.  1.
          2   -1    0    0  501    0  0.00000000000E+00 -0.00000000000E+00 -0.32868954913E+02  0.32868954913E+02  0.00000000000E+00 0. -1.
         25    2    1    2    0    0  0.12417327878E+02 -0.38534741654E+02  0.19864180303E+03  0.23821283277E+03  0.12509065288E+03 0.  0.
          5    1    3    3  502    0 -0.54011181169E+02 -0.26715981323E+02  0.66860949594E+02  0.90104441233E+02  0.41800000000E+01 0.  1.
         -5    1    3    3    0  502  0.66428509047E+02 -0.11818760331E+02  0.13178085344E+03  0.14810839154E+03  0.41800000000E+01 0.  1.
        -11    1    1    2    0    0 -0.23238853968E+02 -0.19758800034E+02  0.22438345144E+02  0.37867318962E+02  0.00000000000E+00 0.  1.
         11    1    1    2    0    0  0.10821526090E+02  0.58293541688E+02  0.15831483866E+03  0.16905274494E+03  0.00000000000E+00 0. -1.
</event>
<event>
 7    1  0.2530765E-009  0.1892177E+03  0.7561462E-02  0.1159169E+00
         -1   -1    0    0    0  501 -0.00000000000E+00  0.00000000000E+00  0.42007932016E+03  0.42007932016E+03  0.00000000000E+00 0.  1.
          1   -1    0    0  501    0  0.00000000000E+00 -0.00000000000E+00 -0.11612229770E+03  0.11612229770E+03  0.00000000000E+00 0. -1.
         25    2    1    2    0    0  0.50241082480E+02 -0.15878300681E+03  0.27412874514E+03  0.34428277320E+03  0.12509136418E+03 0.  0.
          5    1    3    3  502    0 -0.98652915250E+01 -0.11639282404E+03  0.95087096109E+02  0.15067727669E+03  0.41800000000E+01 0. -1.
         -5    1    3    3    0  502  0.60106374005E+02 -0.42390182769E+02  0.17904164903E+03  0.19360549651E+03  0.41800000000E+01 0. -1.
        -11    1    1    2    0    0 -0.58582828865E+02  0.45202373441E+02  0.24359241536E+02  0.77901059369E+02  0.00000000000E+00 0.  1.
         11    1    1    2    0    0  0.83417463848E+01  0.11358063337E+03  0.54690357862E+01  0.11401778529E+03  0.00000000000E+00 0. -1.
</event>
<event>
 7    1  0.2530765E-009  0.7301478E+02  0.7561462E-02  0.1350131E+00
          2   -1    0    0  501    0  0.00000000000E+00  0.00000000000E+00  0.25399583914E+03  0.25399583914E+03  0.00000000000E+00 0. -1.
         -2   -1    0    0    0  501 -0.00000000000E+00 -0.00000000000E+00 -0.48839509127E+02  0.48839509127E+02  0.00000000000E+00 0.  1.
         25    2    1    2    0    0  0.14726166171E+02 -0.12017529201E+02  0.13556008491E+03  0.18543258935E+03  0.12508967820E+03 0.  0.
          5    1    3    3  502    0 -0.19550696520E+02  0.26187465411E+02  0.12944639971E+03  0.13357341006E+03  0.41800000000E+01 0. -1.
         -5    1    3    3    0  502  0.34276862691E+02 -0.38204994612E+02  0.61136852044E+01  0.51859179284E+02  0.41800000000E+01 0. -1.
        -11    1    1    2    0    0 -0.36271861163E+02  0.16052176674E+02 -0.46979065676E+01  0.39942341122E+02  0.00000000000E+00 0.  1.
         11    1    1    2    0    0  0.21545694992E+02 -0.40346474728E+01  0.74294151672E+02  0.77460417799E+02  0.00000000000E+00 0. -1.
</event>
<event>
 7    1  0.2530765E-009  0.1044674E+03  0.7561462E-02  0.1271173E+00
         -2   -1    0    0    0  501 -0.00000000000E+00  0.00000000000E+00  0.26468160657E+02  0.26468160657E+02  0.00000000000E+00 0. -1.
          2   -1    0    0  501    0  0.00000000000E+00 -0.00000000000E+00 -0.65365105437E+03  0.65365105437E+03  0.00000000000E+00 0.  1.
         25    2    1    2    0    0 -0.70396368887E+02  0.22904388487E+02 -0.37015530175E+03  0.39767255764E+03  0.12509298909E+03 0.  0.
          5    1    3    3  502    0 -0.58539609754E+02 -0.15767581774E+02 -0.34399228621E+03  0.34931886281E+03  0.41800000000E+01 0.  1.
         -5    1    3    3    0  502 -0.11856759133E+02  0.38671970262E+02 -0.26163015543E+02  0.48353694826E+02  0.41800000000E+01 0.  1.
        -11    1    1    2    0    0  0.26617484511E+02 -0.49552729884E+02 -0.18950162427E+03  0.19767354178E+03  0.00000000000E+00 0.  1.
         11    1    1    2    0    0  0.43778884376E+02  0.26648341396E+02 -0.67525967687E+02  0.84773115600E+02  0.00000000000E+00 0. -1.
</event>
<event>
 7    1  0.2530765E-009  0.1477392E+03  0.7561462E-02  0.1203279E+00
          2   -1    0    0  501    0  0.00000000000E+00  0.00000000000E+00  0.52883342070E+03  0.52883342070E+03  0.00000000000E+00 0. -1.
         -2   -1    0    0    0  501 -0.00000000000E+00 -0.00000000000E+00 -0.57066795235E+02  0.57066795235E+02  0.00000000000E+00 0.  1.
         25    2    1    2    0    0 -0.12416655796E+03  0.43922347862E+02  0.28021334764E+03  0.33393840115E+03  0.12509527892E+03 0.  0.
          5    1    3    3  502    0 -0.96540148345E+02  0.26682032316E+02  0.28373012531E+03  0.30091890519E+03  0.41800000000E+01 0. -1.
         -5    1    3    3    0  502 -0.27626409619E+02  0.17240315545E+02 -0.35167776662E+01  0.33019495964E+02  0.41800000000E+01 0. -1.
        -11    1    1    2    0    0  0.12580999198E+03 -0.75988438031E+01  0.16100903678E+03  0.20447446401E+03  0.00000000000E+00 0. -1.
         11    1    1    2    0    0 -0.16434340126E+01 -0.36323504059E+02  0.30544241041E+02  0.47487350770E+02  0.00000000000E+00 0.  1.
</event>
<event>
 7    1  0.2530765E-009  0.1429247E+03  0.7561462E-02  0.1209447E+00
          2   -1    0    0  501    0  0.00000000000E+00  0.00000000000E+00  0.21414059852E+03  0.21414059852E+03  0.00000000000E+00 0. -1.
         -2   -1    0    0    0  501 -0.00000000000E+00 -0.00000000000E+00 -0.10694946437E+03  0.10694946437E+03  0.00000000000E+00 0.  1.
         25    2    1    2    0    0 -0.95304908832E+02  0.29319485195E+02  0.24477069633E+02  0.16182826077E+03  0.12508637491E+03 0.  0.
          5    1    3    3  502    0 -0.11894757999E+03  0.37007864814E+02  0.41545424463E+02  0.13138342185E+03  0.41800000000E+01 0.  1.
         -5    1    3    3    0  502  0.23642671154E+02 -0.76883796197E+01 -0.17068354830E+02  0.30444838924E+02  0.41800000000E+01 0.  1.
        -11    1    1    2    0    0  0.74772223126E+01 -0.45996552884E+02  0.25453186395E+02  0.53098553920E+02  0.00000000000E+00 0.  1.
         11    1    1    2    0    0  0.87827686519E+02  0.16677067689E+02  0.57260878122E+02  0.10616324820E+03  0.00000000000E+00 0. -1.
</event>
<event>
 7    1  0.2530765E-009  0.1687612E+03  0.7561462E-02  0.1179146E+00
          1   -1    0    0  501    0  0.00000000000E+00  0.00000000000E+00  0.12349074065E+04  0.12349074065E+04  0.00000000000E+00 0. -1.
         -1   -1    0    0    0  501 -0.00000000000E+00 -0.00000000000E+00 -0.27671299197E+02  0.27671299197E+02  0.00000000000E+00 0.  1.
         25    2    1    2    0    0  0.23506888550E+02  0.14562154417E+03  0.72363385665E+03  0.74903269438E+03  0.12508321556E+03 0.  0.
          5    1    3    3  502    0  0.49872936582E+02  0.11135664356E+03  0.31077962394E+03  0.33389977377E+03  0.41800000000E+01 0.  1.
         -5    1    3    3    0  502 -0.26366048032E+02  0.34264900615E+02  0.41285423271E+03  0.41513292061E+03  0.41800000000E+01 0.  1.
        -11    1    1    2    0    0 -0.56690558185E+02 -0.10692016674E+03  0.31685096908E+03  0.33917588070E+03  0.00000000000E+00 0. -1.
         11    1    1    2    0    0  0.33183669635E+02 -0.38701377428E+02  0.16675128154E+03  0.17437013059E+03  0.00000000000E+00 0.  1.
</event>
<event>
 7    1  0.2530765E-009  0.1742859E+03  0.7561462E-02  0.1173451E+00
         -1   -1    0    0    0  501 -0.00000000000E+00  0.00000000000E+00  0.39978588073E+03  0.39978588073E+03  0.00000000000E+00 0. -1.
          1   -1    0    0  501    0  0.00000000000E+00 -0.00000000000E+00 -0.12166626660E+03  0.12166626660E+03  0.00000000000E+00 0.  1.
         25    2    1    2    0    0  0.13538800052E+03  0.65317244634E+02  0.27660853877E+03  0.33875663948E+03  0.12509006333E+03 0.  0.
          5    1    3    3  502    0  0.12469188107E+03  0.11947350258E+02  0.24620430863E+03  0.27626950315E+03  0.41800000000E+01 0. -1.
         -5    1    3    3    0  502  0.10696119447E+02  0.53369894376E+02  0.30404230137E+02  0.62487136334E+02  0.41800000000E+01 0. -1.
        -11    1    1    2    0    0 -0.60432242098E+02 -0.71286098784E+02 -0.34118903709E+02  0.99488006087E+02  0.00000000000E+00 0.  1.
         11    1    1    2    0    0 -0.74955758419E+02  0.59688541501E+01  0.35629979070E+02  0.83207501756E+02  0.00000000000E+00 0. -1.
</event>
<event>
 7    1  0.2530765E-009  0.1355154E+03  0.7561462E-02  0.1219494E+00
          2   -1    0    0  501    0  0.00000000000E+00  0.00000000000E+00  0.16494012268E+03  0.16494012268E+03  0.00000000000E+00 0. -1.
         -2   -1    0    0    0  501 -0.00000000000E+00 -0.00000000000E+00 -0.12635979590E+03  0.12635979590E+03  0.00000000000E+00 0.  1.
         25    2    1    2    0    0  0.83917239491E+02  0.34150685586E+02  0.49026030792E+02  0.16204841140E+03  0.12509102099E+03 0.  0.
          5    1    3    3  502    0  0.10840776082E+03  0.68026209887E+01  0.11372586937E+02  0.10929467687E+03  0.41800000000E+01 0. -1.
         -5    1    3    3    0  502 -0.24490521333E+02  0.27348064597E+02  0.37653443856E+02  0.52753734527E+02  0.41800000000E+01 0. -1.
        -11    1    1    2    0    0 -0.15678201223E+02 -0.52440035156E+02  0.10142184729E+02  0.55665314082E+02  0.00000000000E+00 0. -1.
         11    1    1    2    0    0 -0.68239038268E+02  0.18289349570E+02 -0.20587888749E+02  0.73586193098E+02  0.00000000000E+00 0.  1.
</event>
<event>
 7    1  0.2530765E-009  0.1529203E+03  0.7561462E-02  0.1196930E+00
          2   -1    0    0  501    0  0.00000000000E+00  0.00000000000E+00  0.44111170348E+03  0.44111170348E+03  0.00000000000E+00 0. -1.
         -2   -1    0    0    0  501 -0.00000000000E+00 -0.00000000000E+00 -0.56017677635E+02  0.56017677635E+02  0.00000000000E+00 0.  1.
         25    2    1    2    0    0  0.10419863317E+03  0.42294841843E+02  0.19411505481E+03  0.25685455227E+03  0.12508955879E+03 0.  0.
          5    1    3    3  502    0 -0.92683224565E+01  0.52485381941E+02  0.51011000834E+02  0.73893245461E+02  0.41800000000E+01 0.  1.
         -5    1    3    3    0  502  0.11346695562E+03 -0.10190540099E+02  0.14310405398E+03  0.18296130681E+03  0.41800000000E+01 0.  1.
        -11    1    1    2    0    0 -0.71090593059E+02 -0.66516648029E+02  0.95593420714E+02  0.13644207185E+03  0.00000000000E+00 0.  1.
         11    1    1    2    0    0 -0.33108040109E+02  0.24221806186E+02  0.95385550323E+02  0.10383275700E+03  0.00000000000E+00 0. -1.
</event>
<event>
 7    1  0.2530765E-009  0.6412543E+02  0.7561462E-02  0.1381292E+00
         -1   -1    0    0    0  501 -0.00000000000E+00  0.00000000000E+00  0.43664819694E+02  0.43664819694E+02  0.00000000000E+00 0.  1.
          1   -1    0    0  501    0  0.00000000000E+00 -0.00000000000E+00 -0.27605849490E+03  0.27605849490E+03  0.00000000000E+00 0. -1.
         25    2    1    2    0    0  0.22881226993E+02 -0.10465907127E+02 -0.13486980843E+03  0.18566606919E+03  0.12509571640E+03 0.  0.
          5    1    3    3  502    0 -0.13451036775E+02 -0.35818837172E+02 -0.13580719783E+03  0.14115589562E+03  0.41800000000E+01 0. -1.
         -5    1    3    3    0  502  0.36332263768E+02  0.25352930045E+02  0.93738939557E+00  0.44510173570E+02  0.41800000000E+01 0. -1.
        -11    1    1    2    0    0  0.91699454559E+01 -0.41135935428E+01  0.13927946521E+02  0.17175483859E+02  0.00000000000E+00 0.  1.
         11    1    1    2    0    0 -0.32051172449E+02  0.14579500670E+02 -0.11145181329E+03  0.11688176154E+03  0.00000000000E+00 0. -1.
</event>
<event>
 7    1  0.2530765E-009  0.1073660E+03  0.7561462E-02  0.1265527E+00
         -1   -1    0    0    0  501 -0.00000000000E+00  0.00000000000E+00  0.72614795955E+02  0.72614795955E+02  0.00000000000E+00 0.  1.
          1   -1    0    0  501    0  0.00000000000E+00 -0.00000000000E+00 -0.24173423979E+03  0.24173423979E+03  0.00000000000E+00 0. -1.
         25    2    1    2    0    0 -0.36452112555E+02  0.12898179237E+02 -0.21822293659E+02  0.13273579106E+03  0.12508980051E+03 0.  0.
          5    1    3    3  502    0  0.38714281963E+02 -0.14033121358E+02 -0.31751932508E+02  0.52166864396E+02  0.41800000000E+01 0. -1.
         -5    1    3    3    0  502 -0.75166394518E+02  0.26931300595E+02  0.99296388490E+01  0.80568926667E+02  0.41800000000E+01 0. -1.
        -11    1    1    2    0    0  0.78579402045E+01  0.35942364397E+02 -0.10411786584E+03  0.11042703822E+03  0.00000000000E+00 0. -1.
         11    1    1    2    0    0  0.28594172351E+02 -0.48840543633E+02 -0.43179284338E+02  0.71186206464E+02  0.00000000000E+00 0.  1.
</event>
<event>
 7    1  0.2530765E-009  0.1458783E+03  0.7561462E-02  0.1205631E+00
          2   -1    0    0  501    0  0.00000000000E+00  0.00000000000E+00  0.14179308497E+03  0.14179308497E+03  0.00000000000E+00 0. -1.
         -2   -1    0    0    0  501 -0.00000000000E+00 -0.00000000000E+00 -0.20958187850E+03  0.20958187850E+03  0.00000000000E+00 0.  1.
         25    2    1    2    0    0  0.11263003170E+03  0.16460800547E+02 -0.10365953709E+03  0.19836413125E+03  0.12508615807E+03 0.  0.
          5    1    3    3  502    0  0.12640290650E+03  0.47146502718E+02 -0.87139885770E+02  0.16065901650E+03  0.41800000000E+01 0.  1.
         -5    1    3    3    0  502 -0.13772874807E+02 -0.30685702171E+02 -0.16519651322E+02  0.37705114746E+02  0.41800000000E+01 0.  1.
        -11    1    1    2    0    0 -0.69387843024E+02 -0.32688685360E+02  0.63163890721E+02  0.99362467768E+02  0.00000000000E+00 0. -1.
         11    1    1    2    0    0 -0.43242188673E+02  0.16227884813E+02 -0.27293147164E+02  0.53648364457E+02  0.00000000000E+00 0.  1.
</event>
<event>
 7    1  0.2530765E-009  0.2778723E+03  0.7561462E-02  0.1096857E+00
         -1   -1    0    0    0  501 -0.00000000000E+00  0.00000000000E+00  0.21012637817E+03  0.21012637817E+03  0.00000000000E+00 0.  1.
          1   -1    0    0  501    0  0.00000000000E+00 -0.00000000000E+00 -0.42779071112E+03  0.42779071112E+03  0.00000000000E+00 0. -1.
         25    2    1    2    0    0 -0.19287769910E+03 -0.18826322192E+03 -0.18751143818E+03  0.35136198392E+03  0.12509938751E+03 0.  0.
          5    1    3    3  502    0 -0.31199357100E+02 -0.91953902709E+02 -0.19666887853E+02  0.99162386945E+02  0.41800000000E+01 0.  1.
         -5    1    3    3    0  502 -0.16167834200E+03 -0.96309319214E+02 -0.16784455032E+03  0.25219959697E+03  0.41800000000E+01 0.  1.
        -11    1    1    2    0    0  0.14875554375E+03  0.13251190336E+03 -0.62010820644E+02  0.20864553243E+03  0.00000000000E+00 0. -1.
         11    1    1    2    0    0  0.44122155351E+02  0.55751318566E+02  0.31857925877E+02  0.77909572941E+02  0.00000000000E+00 0.  1.
</event>
<event>
 7    1  0.3082287E-009  0.1426834E+03  0.7561462E-02  0.1209763E+00
         -1   -1    0    0    0  501 -0.00000000000E+00  0.00000000000E+00  0.15705496846E+03  0.15705496846E+03  0.00000000000E+00 0.  1.
          1   -1    0    0  501    0  0.00000000000E+00 -0.00000000000E+00 -0.15788502742E+03  0.15788502742E+03  0.00000000000E+00 0. -1.
         25    2    1    2    0    0 -0.83446765600E+02 -0.74221391204E+02  0.21991663397E+02  0.16912722101E+03  0.12509278967E+03 0.  0.
          5    1    3    3  502    0  0.12142344821E+02 -0.70793846112E+02  0.96115310628E+01  0.72588284967E+02  0.41800000000E+01 0. -1.
         -5    1    3    3    0  502 -0.95589110421E+02 -0.34275450921E+01  0.12380132334E+02  0.96538936047E+02  0.41800000000E+01 0. -1.
        -11    1    1    2    0    0  0.16313033949E+02  0.38090770465E+02  0.31626482315E+02  0.52127308149E+02  0.00000000000E+00 0.  1.
         11    1    1    2    0    0  0.67133731652E+02  0.36130620738E+02 -0.54448204673E+02  0.93685466709E+02  0.00000000000E+00 0. -1.
</event>
<event>
 7    1  0.2530765E-009  0.1561858E+03  0.7561462E-02  0.1193072E+00
         -2   -1    0    0    0  501 -0.00000000000E+00  0.00000000000E+00  0.46905253532E+02  0.46905253532E+02  0.00000000000E+00 0.  1.
          2   -1    0    0  501    0  0.00000000000E+00 -0.00000000000E+00 -0.55040207998E+03  0.55040207998E+03  0.00000000000E+00 0. -1.
         25    2    1    2    0    0 -0.35343533808E+02 -0.11244366628E+03 -0.24942748410E+03  0.30290932128E+03  0.12508894286E+03 0.  0.
          5    1    3    3  502    0  0.29593268420E+02  0.42179148393E+01 -0.89941465464E+02  0.94870922580E+02  0.41800000000E+01 0.  1.
         -5    1    3    3    0  502 -0.64936802228E+02 -0.11666158112E+03 -0.15948601864E+03  0.20803839870E+03  0.41800000000E+01 0.  1.
        -11    1    1    2    0    0 -0.27359212649E+01 -0.15179037823E+02 -0.22945287138E+02  0.27647326385E+02  0.00000000000E+00 0.  1.
         11    1    1    2    0    0  0.38079455073E+02  0.12762270411E+03 -0.23112405521E+03  0.26675068585E+03  0.00000000000E+00 0. -1.
</event>
<event>
 7    1  0.2530765E-009  0.1627713E+03  0.7561462E-02  0.1185603E+00
          2   -1    0    0  501    0  0.00000000000E+00  0.00000000000E+00  0.12382879713E+03  0.12382879713E+03  0.00000000000E+00 0. -1.
         -2   -1    0    0    0  501 -0.00000000000E+00 -0.00000000000E+00 -0.28715789404E+03  0.28715789404E+03  0.00000000000E+00 0.  1.
         25    2    1    2    0    0 -0.13178127066E+03 -0.71614455124E+02 -0.11938104298E+03  0.22890220380E+03  0.12509776977E+03 0.  0.
          5    1    3    3  502    0 -0.50343211494E+02  0.18749118973E+01 -0.10711601531E+03  0.11844520832E+03  0.41800000000E+01 0.  1.
         -5    1    3    3    0  502 -0.81438059162E+02 -0.73489367021E+02 -0.12265027668E+02  0.11045699547E+03  0.41800000000E+01 0.  1.
        -11    1    1    2    0    0  0.15892218470E+02 -0.13963768143E+02  0.15512909398E+02  0.26233562218E+02  0.00000000000E+00 0. -1.
         11    1    1    2    0    0  0.11588905219E+03  0.85578223267E+02 -0.59460963329E+02  0.15585092516E+03  0.00000000000E+00 0.  1.
</event>
<event>
 7    1  0.2530765E-009  0.9094848E+02  0.7561462E-02  0.1300571E+00
         -1   -1    0    0    0  501 -0.00000000000E+00  0.00000000000E+00  0.29591256605E+02  0.29591256605E+02  0.00000000000E+00 0.  1.
          1   -1    0    0  501    0  0.00000000000E+00 -0.00000000000E+00 -0.48511981233E+03  0.48511981233E+03  0.00000000000E+00 0. -1.
         25    2    1    2    0    0  0.15813175277E+02  0.58318838208E+02 -0.22898894777E+03  0.26783239037E+03  0.12508839967E+03 0.  0.
          5    1    3    3  502    0  0.33820024141E+02  0.13216712174E+02 -0.21361863553E+03  0.21672302453E+03  0.41800000000E+01 0.  1.
         -5    1    3    3    0  502 -0.18006848864E+02  0.45102126034E+02 -0.15370312232E+02  0.51109365843E+02  0.41800000000E+01 0.  1.
        -11    1    1    2    0    0 -0.74544439139E+01  0.18179906150E+02 -0.65740003586E+02  0.68613597728E+02  0.00000000000E+00 0.  1.
         11    1    1    2    0    0 -0.83587313633E+01 -0.76498744358E+02 -0.16079960437E+03  0.17826508083E+03  0.00000000000E+00 0. -1.
</event>
<event>
 7    1  0.2530765E-009  0.8075076E+02  0.7561462E-02  0.1326934E+00
         -2   -1    0    0    0  501 -0.00000000000E+00  0.00000000000E+00  0.32426259270E+03  0.32426259270E+03  0.00000000000E+00 0.  1.
          2   -1    0    0  501    0  0.00000000000E+00 -0.00000000000E+00 -0.45081510136E+02  0.45081510136E+02  0.00000000000E+00 0. -1.
         25    2    1    2    0    0 -0.46447534858E+02  0.28391737781E+02  0.13583500429E+03  0.19251261016E+03  0.12508594010E+03 0.  0.
          5    1    3    3  502    0 -0.97702083749E+01  0.43919978217E+02 -0.55853311180E+01  0.45531195701E+02  0.41800000000E+01 0.  1.
         -5    1    3    3    0  502 -0.36677326484E+02 -0.15528240435E+02  0.14142033541E+03  0.14698141446E+03  0.41800000000E+01 0.  1.
        -11    1    1    2    0    0  0.25254195823E+02  0.13997820203E+02  0.12106899334E+03  0.12446451110E+03  0.00000000000E+00 0.  1.
         11    1    1    2    0    0  0.21193339035E+02 -0.42389557984E+02  0.22277084934E+02  0.52366981570E+02  0.00000000000E+00 0. -1.
</event>
<event>
 7    1  0.2530765E-009  0.1391285E+03  0.7561462E-02  0.1214506E+00
          1   -1    0    0  501    0  0.00000000000E+00  0.00000000000E+00  0.80282299769E+03  0.80282299769E+03  0.00000000000E+00 0. -1.
         -1   -1    0    0    0  501 -0.00000000000E+00 -0.00000000000E+00 -0.31698491393E+02  0.31698491393E+02  0.00000000000E+00 0.  1.
         25    2    1    2    0    0 -0.58820944320E+02 -0.94102235912E+02  0.50508692277E+03  0.53204884047E+03  0.12509210529E+03 0.  0.
          5    1    3    3  502    0 -0.18681403678E+02  0.16574373715E+02  0.24761331385E+03  0.24890466107E+03  0.41800000000E+01 0. -1.
         -5    1    3    3    0  502 -0.40139540642E+02 -0.11067660963E+03  0.25747360892E+03  0.28314417941E+03  0.41800000000E+01 0. -1.
        -11    1    1    2    0    0  0.79380611070E+01  0.82578725739E+02  0.10889226272E+03  0.13689332942E+03  0.00000000000E+00 0.  1.
         11    1    1    2    0    0  0.50882883213E+02  0.11523510173E+02  0.15714532081E+03  0.16557931919E+03  0.00000000000E+00 0. -1.
</event>
<event>
 7    1  0.2530765E-009  0.1297054E+03  0.7561462E-02  0.1227894E+00
          1   -1    0    0  501    0  0.00000000000E+00  0.00000000000E+00  0.15871862501E+03  0.15871862501E+03  0.00000000000E+00 0. -1.
         -1   -1    0    0    0  501 -0.00000000000E+00 -0.00000000000E+00 -0.13316758488E+03  0.13316758488E+03  0.00000000000E+00 0.  1.
         25    2    1    2    0    0 -0.49082194784E+01  0.98820282310E+02  0.18943261551E+02  0.16061214102E+03  0.12509146202E+03 0.  0.
          5    1    3    3  502    0 -0.50216662404E+02 -0.11989004807E+00  0.97354264638E+01  0.51322300076E+02  0.41800000000E+01 0.  1.
         -5    1    3    3    0  502  0.45308442926E+02  0.98940172358E+02  0.92078350869E+01  0.10928984094E+03  0.41800000000E+01 0.  1.
        -11    1    1    2    0    0 -0.54669027654E+01 -0.42615197504E+02 -0.39098258465E+02  0.58091444286E+02  0.00000000000E+00 0.  1.
         11    1    1    2    0    0  0.10375122244E+02 -0.56205084805E+02  0.45706037036E+02  0.73182624585E+02  0.00000000000E+00 0. -1.
</event>
<event>
 7    1  0.2530765E-009  0.8182375E+02  0.7561462E-02  0.1323954E+00
          2   -1    0    0  501    0  0.00000000000E+00  0.00000000000E+00  0.39033613147E+02  0.39033613147E+02  0.00000000000E+00 0. -1.
         -2   -1    0    0    0  501 -0.00000000000E+00 -0.00000000000E+00 -0.47532931784E+03  0.47532931784E+03  0.00000000000E+00 0.  1.
         25    2    1    2    0    0  0.78192033436E+02  0.12723739856E+02 -0.19431821679E+03  0.24430047361E+03  0.12508902582E+03 0.  0.
          5    1    3    3  502    0  0.50722283021E+02  0.20177476217E+02 -0.74756287657E+01  0.55256112484E+02  0.41800000000E+01 0.  1.
         -5    1    3    3    0  502  0.27469750415E+02 -0.74537363616E+01 -0.18684258802E+03  0.18904436112E+03  0.41800000000E+01 0.  1.
        -11    1    1    2    0    0 -0.45869199430E+02 -0.13448659663E+02 -0.23103793630E+03  0.23593087529E+03  0.00000000000E+00 0.  1.
         11    1    1    2    0    0 -0.32322834006E+02  0.72491980701E+00 -0.10939551604E+02  0.34131582093E+02  0.00000000000E+00 0. -1.
</event>
<event>
 7    1  0.3948015E-009  0.1046277E+03  0.7561462E-02  0.1270855E+00
         -1   -1    0    0    0  501 -0.00000000000E+00  0.00000000000E+00  0.12227417078E+03  0.12227417078E+03  0.00000000000E+00 0.  1.
          1   -1    0    0  501    0  0.00000000000E+00 -0.00000000000E+00 -0.18304677257E+03  0.18304677257E+03  0.00000000000E+00 0. -1.
         25    2    1    2    0    0 -0.96285085248E+02 -0.32108310851E+02 -0.18285291818E+02  0.16212497708E+03  0.12509354511E+03 0.  0.
          5    1    3    3  502    0 -0.70541896957E+02 -0.73069049831E+01 -0.69595298187E+02  0.99451133812E+02  0.41800000000E+01 0.  1.
         -5    1    3    3    0  502 -0.25743188291E+02 -0.24801405868E+02  0.51310006369E+02  0.62673843268E+02  0.41800000000E+01 0.  1.
        -11    1    1    2    0    0  0.74393849874E+02  0.19287122823E+02  0.16835874430E+02  0.78675820134E+02  0.00000000000E+00 0.  1.
         11    1    1    2    0    0  0.21891235374E+02  0.12821188028E+02 -0.59323184403E+02  0.64520146128E+02  0.00000000000E+00 0. -1.
</event>
<event>
 7    1  0.2530765E-009  0.1084502E+03  0.7561462E-02  0.1263467E+00
          2   -1    0    0  501    0  0.00000000000E+00  0.00000000000E+00  0.26513682123E+03  0.26513682123E+03  0.00000000000E+00 0. -1.
         -2   -1    0    0    0  501 -0.00000000000E+00 -0.00000000000E+00 -0.79242919019E+02  0.79242919019E+02  0.00000000000E+00 0.  1.
         25    2    1    2    0    0 -0.78068238941E+02 -0.79559103463E+01  0.16764973870E+03  0.22341058375E+03  0.12509159685E+03 0.  0.
          5    1    3    3  502    0 -0.10310812622E+03  0.26786431449E+00  0.16748689260E+03  0.19672490700E+03  0.41800000000E+01 0.  1.
         -5    1    3    3    0  502  0.25039887277E+02 -0.82237746608E+01  0.16284610367E+00  0.26685676745E+02  0.41800000000E+01 0.  1.
        -11    1    1    2    0    0  0.43651148098E+02  0.23138808731E+02  0.51060677673E+02  0.71049419451E+02  0.00000000000E+00 0. -1.
         11    1    1    2    0    0  0.34417090843E+02 -0.15182898385E+02 -0.32816514163E+02  0.49919737051E+02  0.00000000000E+00 0.  1.
</event>
<event>
 7    1  0.2530765E-009  0.1097592E+03  0.7561462E-02  0.1261016E+00
          1   -1    0    0  501    0  0.00000000000E+00  0.00000000000E+00  0.12739892418E+04  0.12739892418E+04  0.00000000000E+00 0. -1.
         -1   -1    0    0    0  501 -0.00000000000E+00 -0.00000000000E+00 -0.17341971987E+02  0.17341971987E+02  0.00000000000E+00 0.  1.
         25    2    1    2    0    0 -0.59553426374E+02 -0.11312149082E+02  0.10361671901E+04  0.10454494078E+04  0.12508974024E+03 0.  0.
          5    1    3    3  502    0 -0.61538580716E+02 -0.45918027428E+02  0.94001034021E+03  0.94315023950E+03  0.41800000000E+01 0.  1.
         -5    1    3    3    0  502  0.19851543425E+01  0.34605878346E+02  0.96156849838E+02  0.10229916825E+03  0.41800000000E+01 0.  1.
        -11    1    1    2    0    0 -0.23440803092E+02  0.75608116193E+01  0.36735816177E+02  0.44228467214E+02  0.00000000000E+00 0.  1.
         11    1    1    2    0    0  0.82994229466E+02  0.37513374631E+01  0.18374426356E+03  0.20165333880E+03  0.00000000000E+00 0. -1.
</event>
<event>
 7    1  0.2530765E-009  0.8073246E+02  0.7561462E-02  0.1326986E+00
          1   -1    0    0  501    0  0.00000000000E+00  0.00000000000E+00  0.16035533256E+03  0.16035533256E+03  0.00000000000E+00 0. -1.
         -1   -1    0    0    0  501 -0.00000000000E+00 -0.00000000000E+00 -0.83651454140E+02  0.83651454140E+02  0.00000000000E+00 0.  1.
         25    2    1    2    0    0  0.28922432081E+02  0.11355014103E+02  0.68542147485E+02  0.14597647080E+03  0.12508261518E+03 0.  0.
          5    1    3    3  502    0  0.44947812827E+02 -0.45766518186E+02  0.55865852072E+02  0.85166577320E+02  0.41800000000E+01 0. -1.
         -5    1    3    3    0  502 -0.16025380746E+02  0.57121532289E+02  0.12676295413E+02  0.60809893475E+02  0.41800000000E+01 0. -1.
        -11    1    1    2    0    0 -0.43342018787E+01 -0.12360910075E+02  0.48796913428E+02  0.50524411564E+02  0.00000000000E+00 0. -1.
         11    1    1    2    0    0 -0.24588230202E+02  0.10058959716E+01 -0.40635182491E+02  0.47505904341E+02  0.00000000000E+00 0.  1.
</event>
<event>
 7    1  0.2530765E-009  0.1360258E+03  0.7561462E-02  0.1218779E+00
          3   -1    0    0  501    0  0.00000000000E+00  0.00000000000E+00  0.25712409240E+03  0.25712409240E+03  0.00000000000E+00 0. -1.
         -3   -1    0    0    0  501 -0.00000000000E+00 -0.00000000000E+00 -0.73625149369E+02  0.73625149369E+02  0.00000000000E+00 0.  1.
         25    2    1    2    0    0 -0.81862041315E+02  0.12768918233E+02  0.12406734639E+03  0.19469270197E+03  0.12509237658E+03 0.  0.
          5    1    3    3  502    0 -0.11540147266E+03  0.13269155927E+02  0.96553928633E+02  0.15110825234E+03  0.41800000000E+01 0.  1.
         -5    1    3    3    0  502  0.33539431346E+02 -0.50023769383E+00  0.27513417755E+02  0.43584449628E+02  0.41800000000E+01 0.  1.
        -11    1    1    2    0    0  0.19461216485E+02 -0.46977840362E+02  0.30066608152E+02  0.59073321880E+02  0.00000000000E+00 0. -1.
         11    1    1    2    0    0  0.62400824829E+02  0.34208922129E+02  0.29364988495E+02  0.76983217924E+02  0.00000000000E+00 0.  1.
</event>
<event>
 7    1  0.2530765E-009  0.2090435E+03  0.7561462E-02  0.1142326E+00
         -1   -1    0    0    0  501 -0.00000000000E+00  0.00000000000E+00  0.50344618386E+03  0.50344618386E+03  0.00000000000E+00 0.  1.
          1   -1    0    0  501    0  0.00000000000E+00 -0.00000000000E+00 -0.14769146031E+03  0.14769146031E+03  0.00000000000E+00 0. -1.
         25    2    1    2    0    0  0.19110875053E+03 -0.69205600790E+02  0.71555721577E+01  0.23876994914E+03  0.12509163317E+03 0.  0.
          5    1    3    3  502    0  0.13639404387E+03 -0.54600066725E+02 -0.52818165599E+02  0.15617853087E+03  0.41800000000E+01 0. -1.
         -5    1    3    3    0  502  0.54714706661E+02 -0.14605534065E+02  0.59973737757E+02  0.82591418264E+02  0.41800000000E+01 0. -1.
        -11    1    1    2    0    0 -0.62130129927E+02  0.57775876050E+02  0.18657819649E+03  0.20496250463E+03  0.00000000000E+00 0.  1.
         11    1    1    2    0    0 -0.12897862060E+03  0.11429724740E+02  0.16202095491E+03  0.20740519041E+03  0.00000000000E+00 0. -1.
</event>
<event>
 7    1  0.2530765E-009  0.1115126E+03  0.7561462E-02  0.1257794E+00
         -1   -1    0    0    0  501 -0.00000000000E+00  0.00000000000E+00  0.33987850110E+03  0.33987850110E+03  0.00000000000E+00 0.  1.
          1   -1    0    0  501    0  0.00000000000E+00 -0.00000000000E+00 -0.64229852436E+02  0.64229852436E+02  0.00000000000E+00 0. -1.
         25    2    1    2    0    0 -0.38501711027E+02  0.51632319715E+02  0.46492034213E+02  0.14817952943E+03  0.12508950997E+03 0.  0.
          5    1    3    3  502    0  0.41811483081E+02  0.11609544350E+02  0.38207661871E+02  0.57967917532E+02  0.41800000000E+01 0. -1.
         -5    1    3    3    0  502 -0.80313194108E+02  0.40022775366E+02  0.82843723423E+01  0.90211611896E+02  0.41800000000E+01 0. -1.
        -11    1    1    2    0    0  0.41891337331E+02 -0.42603663887E+01  0.31338474298E+02  0.52489378320E+02  0.00000000000E+00 0. -1.
         11    1    1    2    0    0 -0.33896263034E+01 -0.47371953327E+02  0.19781814015E+03  0.20343944578E+03  0.00000000000E+00 0.  1.
</event>
<event>
 7    1  0.2530765E-009  0.1290356E+03  0.7561462E-02  0.1228894E+00
         -2   -1    0    0    0  501 -0.00000000000E+00  0.00000000000E+00  0.11288984225E+03  0.11288984225E+03  0.00000000000E+00 0.  1.
          2   -1    0    0  501    0  0.00000000000E+00 -0.00000000000E+00 -0.18054658186E+03  0.18054658186E+03  0.00000000000E+00 0. -1.
         25    2    1    2    0    0  0.30898240885E+02  0.82155823856E+02 -0.12781792176E+02  0.15334534862E+03  0.12508853285E+03 0.  0.
          5    1    3    3  502    0  0.76082723899E+02  0.34490910209E+02  0.87624664633E+01  0.84097901171E+02  0.41800000000E+01 0. -1.
         -5    1    3    3    0  502 -0.45184483014E+02  0.47664913648E+02 -0.21544258639E+02  0.69247447452E+02  0.41800000000E+01 0. -1.
        -11    1    1    2    0    0 -0.43882992644E+02 -0.26052324841E+02 -0.63925185094E+02  0.81797738125E+02  0.00000000000E+00 0. -1.
         11    1    1    2    0    0  0.12984751760E+02 -0.56103499016E+02  0.90502376612E+01  0.58293337370E+02  0.00000000000E+00 0.  1.
</event>
<event>
 7    1  0.2530765E-009  0.2370328E+03  0.7561462E-02  0.1121785E+00
         -2   -1    0    0    0  501 -0.00000000000E+00  0.00000000000E+00  0.21180735126E+03  0.21180735126E+03  0.00000000000E+00 0.  1.
          2   -1    0    0  501    0  0.00000000000E+00 -0.00000000000E+00 -0.43804417140E+03  0.43804417140E+03  0.00000000000E+00 0. -1.
         25    2    1    2    0    0 -0.60329196213E+02 -0.20635495732E+03  0.83290528811E+02  0.26231044378E+03  0.12508987327E+03 0.  0.
          5    1    3    3  502    0 -0.92536783967E+02 -0.16445511128E+03  0.89576769755E+02  0.20892584831E+03  0.41800000000E+01 0.  1.
         -5    1    3    3    0  502  0.32207587755E+02 -0.41899846049E+02 -0.62862409445E+01  0.53384595467E+02  0.41800000000E+01 0.  1.
        -11    1    1    2    0    0 -0.16922236775E+02  0.66567479089E+01 -0.34415065890E+02  0.38923914890E+02  0.00000000000E+00 0.  1.
         11    1    1    2    0    0  0.77251432988E+02  0.19969820942E+03 -0.27511228306E+03  0.34861716400E+03  0.00000000000E+00 0. -1.
</event>
<event>
 7    1  0.2530765E-009  0.1126330E+03  0.7561462E-02  0.1255770E+00
          1   -1    0    0  501    0  0.00000000000E+00  0.00000000000E+00  0.23995877554E+02  0.23995877554E+02  0.00000000000E+00 0. -1.
         -1   -1    0    0    0  501 -0.00000000000E+00 -0.00000000000E+00 -0.55552064101E+03  0.55552064101E+03  0.00000000000E+00 0.  1.
         25    2    1    2    0    0 -0.26232481856E+02 -0.28726536877E+02 -0.30971260937E+03  0.33627752793E+03  0.12508924161E+03 0.  0.
          5    1    3    3  502    0 -0.59283201287E+02  0.23208964148E+02 -0.20541694957E+03  0.21509707004E+03  0.41800000000E+01 0.  1.
         -5    1    3    3    0  502  0.33050719430E+02 -0.51935501026E+02 -0.10429565980E+03  0.12118045789E+03  0.41800000000E+01 0.  1.
        -11    1    1    2    0    0  0.31477495238E+02  0.60158498547E+02 -0.15484595007E+03  0.16907733706E+03  0.00000000000E+00 0.  1.
         11    1    1    2    0    0 -0.52450133817E+01 -0.31431961669E+02 -0.66966204024E+02  0.74161653576E+02  0.00000000000E+00 0. -1.
</event>
<event>
 7    1  0.2530765E-009  0.1549519E+03  0.7561462E-02  0.1194517E+00
         -1   -1    0    0    0  501 -0.00000000000E+00  0.00000000000E+00  0.34770831914E+02  0.34770831914E+02  0.00000000000E+00 0.  1.
          1   -1    0    0  501    0  0.00000000000E+00 -0.00000000000E+00 -0.74596077353E+03  0.74596077353E+03  0.00000000000E+00 0. -1.
         25    2    1    2    0    0  0.58729121714E+02 -0.10215486273E+03 -0.34164661868E+03  0.38243493916E+03  0.12509734177E+03 0.  0.
          5    1    3    3  502    0  0.66377403781E+02 -0.95916183569E+00 -0.97755231279E+02  0.11823889955E+03  0.41800000000E+01 0.  1.
         -5    1    3    3    0  502 -0.76482820673E+01 -0.10119570089E+03 -0.24389138740E+03  0.26419603961E+03  0.41800000000E+01 0.  1.
        -11    1    1    2    0    0  0.15593165014E+02  0.46275720181E+02 -0.18910658932E+03  0.19530973145E+03  0.00000000000E+00 0. -1.
         11    1    1    2    0    0 -0.74322286728E+02  0.55879142550E+02 -0.18043673361E+03  0.20298693483E+03  0.00000000000E+00 0.  1.
</event>
<event>
 7    1  0.2530765E-009  0.2606286E+03  0.7561462E-02  0.1106766E+00
          2   -1    0    0  501    0  0.00000000000E+00  0.00000000000E+00  0.81381035427E+03  0.81381035427E+03  0.00000000000E+00 0. -1.
         -2   -1    0    0    0  501 -0.00000000000E+00 -0.00000000000E+00 -0.88713209127E+02  0.88713209127E+02  0.00000000000E+00 0.  1.
         25    2    1    2    0    0 -0.39167277965E+02 -0.24191410331E+03  0.43129982318E+03  0.51158882125E+03  0.12508827089E+03 0.  0.
          5    1    3    3  502    0  0.39036210777E+02 -0.14546356277E+03  0.24682008018E+03  0.28917312847E+03  0.41800000000E+01 0.  1.
         -5    1    3    3    0  502 -0.78203488742E+02 -0.96450540537E+02  0.18447974299E+03  0.22241569278E+03  0.41800000000E+01 0.  1.
        -11    1    1    2    0    0  0.62726004204E+01  0.11721045514E+03  0.82800055817E+02  0.14364360603E+03  0.00000000000E+00 0.  1.
         11    1    1    2    0    0  0.32894677545E+02  0.12470364817E+03  0.21099726615E+03  0.24729113611E+03  0.00000000000E+00 0. -1.
</event>
<event>
 7    1  0.2530765E-009  0.9786743E+02  0.7561462E-02  0.1284845E+00
         -2   -1    0    0    0  501 -0.00000000000E+00  0.00000000000E+00  0.25598055642E+03  0.25598055642E+03  0.00000000000E+00 0.  1.
          2   -1    0    0  501    0  0.00000000000E+00 -0.00000000000E+00 -0.44437606213E+02  0.44437606213E+02  0.00000000000E+00 0. -1.
         25    2    1    2    0    0 -0.17719909151E+02 -0.67467964328E+01  0.16926940991E+03  0.21132813680E+03  0.12509170169E+03 0.  0.
          5    1    3    3  502    0 -0.53520071826E+02  0.33522323874E+02  0.12979397204E+03  0.14440253413E+03  0.41800000000E+01 0.  1.
         -5    1    3    3    0  502  0.35800162675E+02 -0.40269120307E+02  0.39475437869E+02  0.66925602670E+02  0.41800000000E+01 0.  1.
        -11    1    1    2    0    0  0.42027113388E+02  0.24181923259E+02  0.25148695491E+02  0.54621429468E+02  0.00000000000E+00 0. -1.
         11    1    1    2    0    0 -0.24307204237E+02 -0.17435126826E+02  0.17124844806E+02  0.34468596358E+02  0.00000000000E+00 0.  1.
</event>
<event>
 7    1  0.2530765E-009  0.1992231E+03  0.7561462E-02  0.1150396E+00
         -1   -1    0    0    0  501 -0.00000000000E+00  0.00000000000E+00  0.45399379059E+02  0.45399379059E+02  0.00000000000E+00 0.  1.
          1   -1    0    0  501    0  0.00000000000E+00 -0.00000000000E+00 -0.96359284184E+03  0.96359284184E+03  0.00000000000E+00 0. -1.
         25    2    1    2    0    0  0.15463691526E+03 -0.71122801089E+02 -0.60705482874E+03  0.64275560843E+03  0.12509268037E+03 0.  0.
          5    1    3    3  502    0 -0.82785196053E+01  0.20024741013E+02 -0.39157579295E+02  0.44947887111E+02  0.41800000000E+01 0.  1.
         -5    1    3    3    0  502  0.16291543486E+03 -0.91147542101E+02 -0.56789724944E+03  0.59780772132E+03  0.41800000000E+01 0.  1.
        -11    1    1    2    0    0 -0.49654551393E+02 -0.17105575673E+02 -0.12003724296E+03  0.13102333720E+03  0.00000000000E+00 0. -1.
         11    1    1    2    0    0 -0.10498236386E+03  0.88228376762E+02 -0.19110139108E+03  0.23521327527E+03  0.00000000000E+00 0.  1.
</event>
<event>
 7    1  0.2530765E-009  0.3189425E+03  0.7561462E-02  0.1076137E+00
         -2   -1    0    0    0  501 -0.00000000000E+00  0.00000000000E+00  0.20080127441E+03  0.20080127441E+03  0.00000000000E+00 0.  1.
          2   -1    0    0  501    0  0.00000000000E+00 -0.00000000000E+00 -0.58346394380E+03  0.58346394380E+03  0.00000000000E+00 0. -1.
         25    2    1    2    0    0 -0.29993950995E+03 -0.37872147678E+02 -0.32876818129E+03  0.46382646461E+03  0.12509381696E+03 0.  0.
          5    1    3    3  502    0 -0.12043235948E+03  0.43631766720E+02 -0.10594912915E+03  0.16628401801E+03  0.41800000000E+01 0.  1.
         -5    1    3    3    0  502 -0.17950715047E+03 -0.81503914398E+02 -0.22281905214E+03  0.29754244660E+03  0.41800000000E+01 0.  1.
        -11    1    1    2    0    0  0.22503965123E+03 -0.71375002254E+01 -0.17671993754E+02  0.22584527424E+03  0.00000000000E+00 0.  1.
         11    1    1    2    0    0  0.74899858726E+02  0.45009647904E+02 -0.36222494351E+02  0.94593479366E+02  0.00000000000E+00 0. -1.
</event>
<event>
 7    1  0.2530765E-009  0.8885427E+02  0.7561462E-02  0.1305650E+00
         -1   -1    0    0    0  501 -0.00000000000E+00  0.00000000000E+00  0.26679954531E+02  0.26679954531E+02  0.00000000000E+00 0.  1.
          1   -1    0    0  501    0  0.00000000000E+00 -0.00000000000E+00 -0.66441352774E+03  0.66441352774E+03  0.00000000000E+00 0. -1.
         25    2    1    2    0    0  0.44067550276E+02  0.30548236357E+02 -0.49088867662E+03  0.50940578842E+03  0.12508965069E+03 0.  0.
          5    1    3    3  502    0  0.23898875106E+02  0.50412073303E+02 -0.80563556250E+02  0.98084108609E+02  0.41800000000E+01 0. -1.
         -5    1    3    3    0  502  0.20168675170E+02 -0.19863836946E+02 -0.41032512037E+03  0.41132167981E+03  0.41800000000E+01 0. -1.
        -11    1    1    2    0    0 -0.49929354805E+02  0.11050294673E+02 -0.12340597916E+03  0.13358175465E+03  0.00000000000E+00 0. -1.
         11    1    1    2    0    0  0.58618045292E+01 -0.41598531029E+02 -0.23438917435E+02  0.48105939204E+02  0.00000000000E+00 0.  1.
</event>
<event>
 7    1  0.2530765E-009  0.1386244E+03  0.7561462E-02  0.1215192E+00
          1   -1    0    0  501    0  0.00000000000E+00  0.00000000000E+00  0.29482758006E+02  0.29482758006E+02  0.00000000000E+00 0. -1.
         -1   -1    0    0    0  501 -0.00000000000E+00 -0.00000000000E+00 -0.95550710366E+03  0.95550710366E+03  0.00000000000E+00 0.  1.
         25    2    1    2    0    0 -0.10054323443E+03  0.47996880706E+02 -0.74850152042E+03  0.76701640732E+03  0.12508797097E+03 0.  0.
          5    1    3    3  502    0  0.15170987473E+02 -0.13231174608E+02 -0.27395262037E+03  0.27472301223E+03  0.41800000000E+01 0.  1.
         -5    1    3    3    0  502 -0.11571422191E+03  0.61228055314E+02 -0.47454890005E+03  0.49229339509E+03  0.41800000000E+01 0.  1.
        -11    1    1    2    0    0  0.51899538869E+02 -0.56065372122E+02 -0.95884722056E+02  0.12260003267E+03  0.00000000000E+00 0. -1.
         11    1    1    2    0    0  0.48643695565E+02  0.80684914161E+01 -0.81638103177E+02  0.95373421677E+02  0.00000000000E+00 0.  1.
</event>
<event>
 7    1  0.2530765E-009  0.1244337E+03  0.7561462E-02  0.1235957E+00
         -2   -1    0    0    0  501 -0.00000000000E+00  0.00000000000E+00  0.24771820986E+03  0.24771820986E+03  0.00000000000E+00 0.  1.
          2   -1    0    0  501    0  0.00000000000E+00 -0.00000000000E+00 -0.74393577881E+02  0.74393577881E+02  0.00000000000E+00 0. -1.
         25    2    1    2    0    0  0.38321519129E+02  0.71815900397E+02  0.90464175261E+02  0.17452375363E+03  0.12509480884E+03 0.  0.
          5    1    3    3  502    0  0.68101035072E+02 -0.29633607642E+01  0.47503100836E+02  0.83189839968E+02  0.41800000000E+01 0. -1.
         -5    1    3    3    0  502 -0.29779515944E+02  0.74779261161E+02  0.42961074425E+02  0.91333913665E+02  0.41800000000E+01 0. -1.
        -11    1    1    2    0    0 -0.53934861585E+02 -0.55286711091E+02  0.94496777961E+02  0.12204601904E+03  0.00000000000E+00 0.  1.
         11    1    1    2    0    0  0.15613342456E+02 -0.16529189306E+02 -0.11636321244E+02  0.25542015071E+02  0.00000000000E+00 0. -1.
</event>
<event>
 7    1  0.2530765E-009  0.1021239E+03  0.7561462E-02  0.1275892E+00
          1   -1    0    0  501    0  0.00000000000E+00  0.00000000000E+00  0.11945833939E+03  0.11945833939E+03  0.00000000000E+00 0. -1.
         -1   -1    0    0    0  501 -0.00000000000E+00 -0.00000000000E+00 -0.12381279886E+03  0.12381279886E+03  0.00000000000E+00 0.  1.
         25    2    1    2    0    0  0.92878834429E+01 -0.38455993179E+02 -0.44546282690E+02  0.13855312295E+03  0.12508984127E+03 0.  0.
          5    1    3    3  502    0  0.62545574280E+02 -0.11921230960E+02 -0.46368179191E+02  0.78876771302E+02  0.41800000000E+01 0. -1.
         -5    1    3    3    0  502 -0.53257690837E+02 -0.26534762220E+02  0.18218965002E+01  0.59676351650E+02  0.41800000000E+01 0. -1.
        -11    1    1    2    0    0 -0.11129520827E+02  0.59062558396E+02  0.66669810790E+00  0.60105711246E+02  0.00000000000E+00 0.  1.
         11    1    1    2    0    0  0.18416373838E+01 -0.20606565216E+02  0.39525125108E+02  0.44612304055E+02  0.00000000000E+00 0. -1.
</event>
<event>
 7    1  0.2530765E-009  0.8334524E+02  0.7561462E-02  0.1319818E+00
         -2   -1    0    0    0  501 -0.00000000000E+00  0.00000000000E+00  0.19426475432E+02  0.19426475432E+02  0.00000000000E+00 0.  1.
          2   -1    0    0  501    0  0.00000000000E+00 -0.00000000000E+00 -0.80417340113E+03  0.80417340113E+03  0.00000000000E+00 0. -1.
         25    2    1    2    0    0 -0.58140285998E+01  0.26784524631E+02 -0.60517997610E+03  0.61857955735E+03  0.12508657645E+03 0.  0.
          5    1    3    3  502    0  0.39785252810E+02  0.42244048563E+02 -0.49314119386E+03  0.49656131088E+03  0.41800000000E+01 0. -1.
         -5    1    3    3    0  502 -0.45599281410E+02 -0.15459523933E+02 -0.11203878224E+03  0.12201824647E+03  0.41800000000E+01 0. -1.
        -11    1    1    2    0    0  0.28849252039E+02 -0.66948115256E+01 -0.78970345571E+01  0.30650660667E+02  0.00000000000E+00 0.  1.
         11    1    1    2    0    0 -0.23035223439E+02 -0.20089713105E+02 -0.17166991503E+03  0.17436965854E+03  0.00000000000E+00 0. -1.
</event>
<event>
 7    1  0.2530765E-009  0.1112408E+03  0.7561462E-02  0.1258289E+00
          1   -1    0    0  501    0  0.00000000000E+00  0.00000000000E+00  0.71898829410E+02  0.71898829410E+02  0.00000000000E+00 0. -1.
         -1   -1    0    0    0  501 -0.00000000000E+00 -0.00000000000E+00 -0.18714405396E+03  0.18714405396E+03  0.00000000000E+00 0.  1.
         25    2    1    2    0    0 -0.13862184088E+01  0.36675284736E+02 -0.43709635845E+02  0.13749606632E+03  0.12509051873E+03 0.  0.
          5    1    3    3  502    0 -0.31796061317E+01  0.80295840301E+02 -0.78584191630E+01  0.80850225828E+02  0.41800000000E+01 0.  1.
         -5    1    3    3    0  502  0.17933877229E+01 -0.43620555565E+02 -0.35851216682E+02  0.56645840490E+02  0.41800000000E+01 0.  1.
        -11    1    1    2    0    0 -0.43630188672E+02 -0.29262057536E+02 -0.41139377943E+02  0.66725630700E+02  0.00000000000E+00 0. -1.
         11    1    1    2    0    0  0.45016407081E+02 -0.74132272000E+01 -0.30396210760E+02  0.54821186348E+02  0.00000000000E+00 0.  1.
</event>
<event>
 7    1  0.2530765E-009  0.1137169E+03  0.7561462E-02  0.1253838E+00
          2   -1    0    0  501    0  0.00000000000E+00  0.00000000000E+00  0.10193730687E+04  0.10193730687E+04  0.00000000000E+00 0. -1.
         -2   -1    0    0    0  501 -0.00000000000E+00 -0.00000000000E+00 -0.19370206695E+02  0.19370206695E+02  0.00000000000E+00 0.  1.
         25    2    1    2    0    0  0.20492519950E+02 -0.41970585203E+02  0.83692554204E+03  0.84751007207E+03  0.12508991142E+03 0.  0.
          5    1    3    3  502    0 -0.26144682593E+02  0.33568227122E+02  0.34278364304E+03  0.34543952964E+03  0.41800000000E+01 0.  1.
         -5    1    3    3    0  502  0.46637202543E+02 -0.75538812325E+02  0.49414189900E+03  0.50207054243E+03  0.41800000000E+01 0.  1.
        -11    1    1    2    0    0  0.16445426285E+02  0.54401421392E+02  0.68931963988E+02  0.89339702005E+02  0.00000000000E+00 0.  1.
         11    1    1    2    0    0 -0.36937946236E+02 -0.12430836189E+02  0.94145356018E+02  0.10189350136E+03  0.00000000000E+00 0. -1.
</event>
<event>
 7    1  0.2530765E-009  0.3407067E+03  0.7561462E-02  0.1066495E+00
          1   -1    0    0  501    0  0.00000000000E+00  0.00000000000E+00  0.76552331437E+03  0.76552331437E+03  0.00000000000E+00 0. -1.
         -1   -1    0    0    0  501 -0.00000000000E+00 -0.00000000000E+00 -0.17508028605E+03  0.17508028605E+03  0.00000000000E+00 0.  1.
         25    2    1    2    0    0  0.22858434686E+03 -0.23290014089E+03  0.13905389922E+03  0.37613641199E+03  0.12509729927E+03 0.  0.
          5    1    3    3  502    0  0.21573389190E+03 -0.24789981316E+03  0.13615554150E+03  0.35574040165E+03  0.41800000000E+01 0. -1.
         -5    1    3    3    0  502  0.12850454955E+02  0.14999672269E+02  0.28983577175E+01  0.20396010350E+02  0.41800000000E+01 0. -1.
        -11    1    1    2    0    0 -0.10382852612E+02  0.40009496364E+02  0.99150423422E+02  0.10742145918E+03  0.00000000000E+00 0.  1.
         11    1    1    2    0    0 -0.21820149424E+03  0.19289064453E+03  0.35223870569E+03  0.45704572925E+03  0.00000000000E+00 0. -1.
</event>
<event>
 7    1  0.2530765E-009  0.9692076E+02  0.7561462E-02  0.1286908E+00
         -1   -1    0    0    0  501 -0.00000000000E+00  0.00000000000E+00  0.25549982319E+02  0.25549982319E+02  0.00000000000E+00 0.  1.
          1   -1    0    0  501    0  0.00000000000E+00 -0.00000000000E+00 -0.51804349260E+03  0.51804349260E+03  0.00000000000E+00 0. -1.
         25    2    1    2    0    0 -0.21212449064E+02 -0.43887926281E+01 -0.20788920093E+03  0.24358643626E+03  0.12508877875E+03 0.  0.
          5    1    3    3  502    0 -0.14585063888E+02 -0.52706483808E+02 -0.37842986063E+02  0.66635287335E+02  0.41800000000E+01 0.  1.
         -5    1    3    3    0  502 -0.66273851757E+01  0.48317691180E+02 -0.17004621487E+03  0.17695114893E+03  0.41800000000E+01 0.  1.
        -11    1    1    2    0    0  0.15463432264E+02  0.45747084784E+02 -0.19881478358E+03  0.20459528752E+03  0.00000000000E+00 0.  1.
         11    1    1    2    0    0  0.57490167998E+01 -0.41358292155E+02 -0.85789525760E+02  0.95411751133E+02  0.00000000000E+00 0. -1.
</event>
<event>
 7    1  0.2530765E-009  0.1141849E+03  0.7561462E-02  0.1253011E+00
          3   -1    0    0  501    0  0.00000000000E+00  0.00000000000E+00  0.30062620514E+03  0.30062620514E+03  0.00000000000E+00 0.  1.
         -3   -1    0    0    0  501 -0.00000000000E+00 -0.00000000000E+00 -0.47996502351E+02  0.47996502351E+02  0.00000000000E+00 0. -1.
         25    2    1    2    0    0  0.51960804047E+00 -0.39490004824E+02  0.18982964628E+03  0.23074313386E+03  0.12508944296E+03 0.  0.
          5    1    3    3  502    0 -0.29789817615E+02  0.36284330402E+02  0.91194053157E+02  0.10265385330E+03  0.41800000000E+01 0. -1.
         -5    1    3    3    0  502  0.30309425655E+02 -0.75774335226E+02  0.98635593125E+02  0.12808928056E+03  0.41800000000E+01 0. -1.
        -11    1    1    2    0    0 -0.90078210912E+01  0.68604063488E+02  0.39846485128E+02  0.79846106636E+02  0.00000000000E+00 0. -1.
         11    1    1    2    0    0  0.84882130507E+01 -0.29114058664E+02  0.22953571375E+02  0.38033466994E+02  0.00000000000E+00 0.  1.
</event>
<event>
 7    1  0.2530765E-009  0.1033206E+03  0.7561462E-02  0.1273464E+00
          1   -1    0    0  501    0  0.00000000000E+00  0.00000000000E+00  0.21697405167E+03  0.21697405167E+03  0.00000000000E+00 0. -1.
         -1   -1    0    0    0  501 -0.00000000000E+00 -0.00000000000E+00 -0.10429578364E+03  0.10429578364E+03  0.00000000000E+00 0.  1.
         25    2    1    2    0    0 -0.93486749740E+01 -0.21496475873E+01  0.17721056273E+03  0.21712218201E+03  0.12508572928E+03 0.  0.
          5    1    3    3  502    0 -0.50049425441E+02 -0.44004566423E+02  0.99677377760E+02  0.11997665977E+03  0.41800000000E+01 0.  1.
         -5    1    3    3    0  502  0.40700750467E+02  0.41854918836E+02  0.77533184968E+02  0.97145522236E+02  0.41800000000E+01 0.  1.
        -11    1    1    2    0    0  0.27122676979E+02  0.34824022104E+02 -0.40180169398E+02  0.59689179378E+02  0.00000000000E+00 0.  1.
         11    1    1    2    0    0 -0.17774002005E+02 -0.32674374517E+02 -0.24352125298E+02  0.44458473927E+02  0.00000000000E+00 0. -1.
</event>
<event>
 7    1  0.2530765E-009  0.1036342E+03  0.7561462E-02  0.1272834E+00
         -1   -1    0    0    0  501 -0.00000000000E+00  0.00000000000E+00  0.39295757660E+02  0.39295757660E+02  0.00000000000E+00 0.  1.
          1   -1    0    0  501    0  0.00000000000E+00 -0.00000000000E+00 -0.58348453962E+03  0.58348453962E+03  0.00000000000E+00 0. -1.
         25    2    1    2    0    0 -0.27522498507E+02 -0.74429672384E+02 -0.43589090051E+03  0.46037702684E+03  0.12509542615E+03 0.  0.
          5    1    3    3  502    0  0.24675559248E+02 -0.83570497656E+01 -0.13469457349E+02  0.29624688796E+02  0.41800000000E+01 0. -1.
         -5    1    3    3    0  502 -0.52198057755E+02 -0.66072622618E+02 -0.42242144316E+03  0.43075233805E+03  0.41800000000E+01 0. -1.
        -11    1    1    2    0    0 -0.15084310811E+02  0.36644912040E+02 -0.96398171492E+02  0.10422568531E+03  0.00000000000E+00 0. -1.
         11    1    1    2    0    0  0.42606809318E+02  0.37784760344E+02 -0.11899709964E+02  0.58177585131E+02  0.00000000000E+00 0.  1.
</event>
<event>
 7    1  0.2530765E-009  0.1177361E+03  0.7561462E-02  0.1246879E+00
          1   -1    0    0  501    0  0.00000000000E+00  0.00000000000E+00  0.22398232927E+03  0.22398232927E+03  0.00000000000E+00 0. -1.
         -1   -1    0    0    0  501 -0.00000000000E+00 -0.00000000000E+00 -0.11059802935E+03  0.11059802935E+03  0.00000000000E+00 0.  1.
         25    2    1    2    0    0 -0.10558401343E+03 -0.22252983673E+02  0.21036300203E+02  0.16653376280E+03  0.12509112299E+03 0.  0.
          5    1    3    3  502    0  0.42401763160E+01 -0.15113664118E+02  0.50067212093E+02  0.52636489862E+02  0.41800000000E+01 0.  1.
         -5    1    3    3    0  502 -0.10982418975E+03 -0.71393195557E+01 -0.29030911890E+02  0.11389727294E+03  0.41800000000E+01 0.  1.
        -11    1    1    2    0    0  0.19049528805E+02  0.10534496978E+02 -0.17349035237E+02  0.27836113197E+02  0.00000000000E+00 0.  1.
         11    1    1    2    0    0  0.86534484628E+02  0.11718486696E+02  0.10969703496E+03  0.14021048263E+03  0.00000000000E+00 0. -1.
</event>
<event>
 7    1  0.2530765E-009  0.1313915E+03  0.7561462E-02  0.1225405E+00
         -1   -1    0    0    0  501 -0.00000000000E+00  0.00000000000E+00  0.50301725275E+02  0.50301725275E+02  0.00000000000E+00 0.  1.
          1   -1    0    0  501    0  0.00000000000E+00 -0.00000000000E+00 -0.39816966064E+03  0.39816966064E+03  0.00000000000E+00 0. -1.
         25    2    1    2    0    0  0.42088643435E+02  0.68337749633E+02 -0.12853908114E+03  0.19649896958E+03  0.12509215697E+03 0.  0.
          5    1    3    3  502    0  0.62270265939E+02 -0.12740550435E+02 -0.43006235618E+02  0.76856465879E+02  0.41800000000E+01 0. -1.
         -5    1    3    3    0  502 -0.20181622504E+02  0.81078300068E+02 -0.85532845519E+02  0.11964250370E+03  0.41800000000E+01 0. -1.
        -11    1    1    2    0    0 -0.54135213307E+02 -0.89973579819E+01 -0.58930994065E+02  0.80525994760E+02  0.00000000000E+00 0.  1.
         11    1    1    2    0    0  0.12046569873E+02 -0.59340391651E+02 -0.16039786017E+03  0.17144642158E+03  0.00000000000E+00 0. -1.
</event>
<event>
 7    1  0.2530765E-009  0.3625517E+03  0.7561462E-02  0.1057578E+00
          1   -1    0    0  501    0  0.00000000000E+00  0.00000000000E+00  0.77048626007E+02  0.77048626007E+02  0.00000000000E+00 0. -1.
         -1   -1    0    0    0  501 -0.00000000000E+00 -0.00000000000E+00 -0.20041331906E+04  0.20041331906E+04  0.00000000000E+00 0.  1.
         25    2    1    2    0    0 -0.20978378288E+03  0.28264467599E+03 -0.61297866156E+03  0.71783368879E+03  0.12508044135E+03 0.  0.
          5    1    3    3  502    0 -0.13411212550E+03  0.26060473128E+03 -0.50791798169E+03  0.58642905513E+03  0.41800000000E+01 0.  1.
         -5    1    3    3    0  502 -0.75671657383E+02  0.22039944713E+02 -0.10506067986E+03  0.13140463366E+03  0.41800000000E+01 0.  1.
        -11    1    1    2    0    0  0.77017757309E+02 -0.82312810790E+02 -0.28345890901E+03  0.30505095780E+03  0.00000000000E+00 0.  1.
         11    1    1    2    0    0  0.13276602557E+03 -0.20033186520E+03 -0.10306469941E+04  0.10582971701E+04  0.00000000000E+00 0. -1.
</event>
<event>
 7    1  0.2530765E-009  0.1213504E+03  0.7561462E-02  0.1240886E+00
          1   -1    0    0  501    0  0.00000000000E+00  0.00000000000E+00  0.20159537183E+03  0.20159537183E+03  0.00000000000E+00 0. -1.
         -1   -1    0    0    0  501 -0.00000000000E+00 -0.00000000000E+00 -0.91576392070E+02  0.91576392070E+02  0.00000000000E+00 0.  1.
         25    2    1    2    0    0  0.12770698235E+02 -0.79879645966E+02  0.40280794399E+02  0.15431781343E+03  0.12509035363E+03 0.  0.
          5    1    3    3  502    0  0.36521651689E+02 -0.89936831777E+02 -0.99803311331E+01  0.97670590055E+02  0.41800000000E+01 0.  1.
         -5    1    3    3    0  502 -0.23750953454E+02  0.10057185811E+02  0.50261125532E+02  0.56647223375E+02  0.41800000000E+01 0.  1.
        -11    1    1    2    0    0  0.36089723019E+02  0.51567701936E+02  0.29487994128E+02  0.69507106027E+02  0.00000000000E+00 0.  1.
         11    1    1    2    0    0 -0.48860421255E+02  0.28311944030E+02  0.40250191235E+02  0.69346844445E+02  0.00000000000E+00 0. -1.
</event>
<event>
 7    1  0.2530765E-009  0.8304146E+02  0.7561462E-02  0.1320635E+00
          1   -1    0    0  501    0  0.00000000000E+00  0.00000000000E+00  0.74150093406E+03  0.74150093406E+03  0.00000000000E+00 0. -1.
         -1   -1    0    0    0  501 -0.00000000000E+00 -0.00000000000E+00 -0.16899306629E+02  0.16899306629E+02  0.00000000000E+00 0.  1.
         25    2    1    2    0    0 -0.16352479306E+02 -0.58784318086E+01  0.50455089675E+03  0.52011329609E+03  0.12507707149E+03 0.  0.
          5    1    3    3  502    0  0.39676125575E+02 -0.10389353890E+02  0.39274807327E+03  0.39490588128E+03  0.41800000000E+01 0.  1.
         -5    1    3    3    0  502 -0.56028604881E+02  0.45109220817E+01  0.11180282349E+03  0.12520741481E+03  0.41800000000E+01 0.  1.
        -11    1    1    2    0    0  0.17568177956E+02 -0.28830406094E+02  0.30237599131E+02  0.45322682990E+02  0.00000000000E+00 0.  1.
         11    1    1    2    0    0 -0.12156986500E+01  0.34708837902E+02  0.18981313154E+03  0.19296426161E+03  0.00000000000E+00 0. -1.
</event>
<event>
 7    1  0.2530765E-009  0.1150571E+03  0.7561462E-02  0.1251481E+00
          2   -1    0    0  501    0  0.00000000000E+00  0.00000000000E+00  0.47014551520E+03  0.47014551520E+03  0.00000000000E+00 0. -1.
         -2   -1    0    0    0  501 -0.00000000000E+00 -0.00000000000E+00 -0.47485821795E+02  0.47485821795E+02  0.00000000000E+00 0.  1.
         25    2    1    2    0    0  0.90031073913E+02 -0.10415758454E+02  0.14436416345E+03  0.21142980600E+03  0.12508984324E+03 0.  0.
          5    1    3    3  502    0  0.93504373152E+01 -0.18667571158E+02 -0.19291995993E+02  0.28732601697E+02  0.41800000000E+01 0.  1.
         -5    1    3    3    0  502  0.80680636597E+02  0.82518127038E+01  0.16365615945E+03  0.18269720430E+03  0.41800000000E+01 0.  1.
        -11    1    1    2    0    0 -0.84655164537E+02 -0.27736482646E+02  0.18856165468E+03  0.20854569515E+03  0.00000000000E+00 0.  1.
         11    1    1    2    0    0 -0.53759093753E+01  0.38152241100E+02  0.89733875277E+02  0.97655835846E+02  0.00000000000E+00 0. -1.
</event>
<event>
 7    1  0.2530765E-009  0.7623695E+02  0.7561462E-02  0.1340083E+00
         -1   -1    0    0    0  501 -0.00000000000E+00  0.00000000000E+00  0.24318891252E+03  0.24318891252E+03  0.00000000000E+00 0.  1.
          1   -1    0    0  501    0  0.00000000000E+00 -0.00000000000E+00 -0.53345698815E+02  0.53345698815E+02  0.00000000000E+00 0. -1.
         25    2    1    2    0    0 -0.22578324354E+02 -0.18195468196E+02  0.13554242353E+03  0.18670766755E+03  0.12508856363E+03 0.  0.
          5    1    3    3  502    0 -0.31961602007E+02  0.12579688747E+02  0.14797219093E+03  0.15196392420E+03  0.41800000000E+01 0.  1.
         -5    1    3    3    0  502  0.93832776533E+01 -0.30775156942E+02 -0.12429767392E+02  0.34743743347E+02  0.41800000000E+01 0.  1.
        -11    1    1    2    0    0  0.21382785198E+02 -0.30207899057E+02  0.48580415382E+02  0.61072067485E+02  0.00000000000E+00 0.  1.
         11    1    1    2    0    0  0.11955391553E+01  0.48403367253E+02  0.57203747894E+01  0.48754876300E+02  0.00000000000E+00 0. -1.
</event>
<event>
 7    1  0.2530765E-009  0.1126198E+03  0.7561462E-02  0.1255794E+00
          1   -1    0    0  501    0  0.00000000000E+00  0.00000000000E+00  0.13538122111E+03  0.13538122111E+03  0.00000000000E+00 0. -1.
         -1   -1    0    0    0  501 -0.00000000000E+00 -0.00000000000E+00 -0.12439217674E+03  0.12439217674E+03  0.00000000000E+00 0.  1.
         25    2    1    2    0    0  0.17941811363E+01  0.71227885500E+02  0.65593334679E+01  0.14411931392E+03  0.12510284182E+03 0.  0.
          5    1    3    3  502    0 -0.50414856154E+02  0.34251260039E+02  0.38783571651E+02  0.72363280504E+02  0.41800000000E+01 0. -1.
         -5    1    3    3    0  502  0.52209037291E+02  0.36976625461E+02 -0.32224238183E+02  0.71756033417E+02  0.41800000000E+01 0. -1.
        -11    1    1    2    0    0 -0.23343482923E+02  0.22590216423E+01 -0.24383622731E+02  0.33831677925E+02  0.00000000000E+00 0.  1.
         11    1    1    2    0    0  0.21549301787E+02 -0.73486907143E+02  0.28813333639E+02  0.81822406004E+02  0.00000000000E+00 0. -1.
</event>
<event>
 7    1  0.2530765E-009  0.1465840E+03  0.7561462E-02  0.1204735E+00
         -2   -1    0    0    0  501 -0.00000000000E+00  0.00000000000E+00  0.70382229031E+02  0.70382229031E+02  0.00000000000E+00 0.  1.
          2   -1    0    0  501    0  0.00000000000E+00 -0.00000000000E+00 -0.54964503532E+03  0.54964503532E+03  0.00000000000E+00 0. -1.
         25    2    1    2    0    0 -0.16172714069E+02  0.14115344727E+03 -0.39197639651E+03  0.43529142652E+03  0.12508908119E+03 0.  0.
          5    1    3    3  502    0  0.17694076640E+01  0.11077994978E+03 -0.12974612420E+03  0.17066592285E+03  0.41800000000E+01 0.  1.
         -5    1    3    3    0  502 -0.17942121733E+02  0.30373497484E+02 -0.26223027231E+03  0.26462550367E+03  0.41800000000E+01 0.  1.
        -11    1    1    2    0    0 -0.38144355849E+01 -0.10794144041E+03 -0.24190865522E+02  0.11068469836E+03  0.00000000000E+00 0.  1.
         11    1    1    2    0    0  0.19987149654E+02 -0.33212006856E+02 -0.63095544260E+02  0.74051139466E+02  0.00000000000E+00 0. -1.
</event>
<event>
 7    1  0.2530765E-009  0.1171394E+03  0.7561462E-02  0.1247892E+00
         -2   -1    0    0    0  501 -0.00000000000E+00  0.00000000000E+00  0.14185819107E+02  0.14185819107E+02  0.00000000000E+00 0.  1.
          2   -1    0    0  501    0  0.00000000000E+00 -0.00000000000E+00 -0.20187412950E+04  0.20187412950E+04  0.00000000000E+00 0. -1.
         25    2    1    2    0    0  0.20934385263E+02 -0.61345542766E+02 -0.17379831794E+04  0.17436845841E+04  0.12509545511E+03 0.  0.
          5    1    3    3  502    0  0.13107632295E+02 -0.10014465733E+03 -0.12401102944E+04  0.12442233630E+04  0.41800000000E+01 0.  1.
         -5    1    3    3    0  502  0.78267529679E+01  0.38799114567E+02 -0.49787288507E+03  0.49946122116E+03  0.41800000000E+01 0.  1.
        -11    1    1    2    0    0 -0.43880170754E+02  0.53386737066E+02 -0.25112366048E+03  0.26045864534E+03  0.00000000000E+00 0. -1.
         11    1    1    2    0    0  0.22945785491E+02  0.79588056999E+01 -0.15448635970E+02  0.28783884611E+02  0.00000000000E+00 0.  1.
</event>
<event>
 7    1  0.2530765E-009  0.1310883E+03  0.7561462E-02  0.1225850E+00
          2   -1    0    0  501    0  0.00000000000E+00  0.00000000000E+00  0.45794146226E+03  0.45794146226E+03  0.00000000000E+00 0.  1.
         -2   -1    0    0    0  501 -0.00000000000E+00 -0.00000000000E+00 -0.10621005894E+03  0.10621005894E+03  0.00000000000E+00 0. -1.
         25    2    1    2    0    0 -0.24719734216E+02  0.10380736272E+03 -0.20013161421E+02  0.16563332866E+03  0.12508732597E+03 0.  0.
          5    1    3    3  502    0  0.24120643922E+01  0.10951274911E+03 -0.53483647252E+02  0.12197062431E+03  0.41800000000E+01 0. -1.
         -5    1    3    3    0  502 -0.27131798608E+02 -0.57053863833E+01  0.33470485831E+02  0.43662704351E+02  0.41800000000E+01 0. -1.
        -11    1    1    2    0    0  0.44593033964E+02 -0.89619653143E+02  0.35516883504E+03  0.36900558572E+03  0.00000000000E+00 0.  1.
         11    1    1    2    0    0 -0.19873299748E+02 -0.14187709579E+02  0.16575729711E+02  0.29512606822E+02  0.00000000000E+00 0. -1.
</event>
<event>
 7    1  0.2530765E-009  0.3044681E+03  0.7561462E-02  0.1083028E+00
         -1   -1    0    0    0  501 -0.00000000000E+00  0.00000000000E+00  0.13538952676E+03  0.13538952676E+03  0.00000000000E+00 0.  1.
          1   -1    0    0  501    0  0.00000000000E+00 -0.00000000000E+00 -0.76569513436E+03  0.76569513436E+03  0.00000000000E+00 0. -1.
         25    2    1    2    0    0  0.39555060238E+02 -0.28436484392E+03 -0.18629133911E+03  0.36439044083E+03  0.12509181865E+03 0.  0.
          5    1    3    3  502    0 -0.18500899596E+02  0.30768813385E+01 -0.17615311596E+02  0.26067644452E+02  0.41800000000E+01 0.  1.
         -5    1    3    3    0  502  0.58055959834E+02 -0.28744172526E+03 -0.16867602751E+03  0.33832279638E+03  0.41800000000E+01 0.  1.
        -11    1    1    2    0    0  0.20275292775E+02  0.11616500895E+03 -0.22598018767E+03  0.25489692430E+03  0.00000000000E+00 0.  1.
         11    1    1    2    0    0 -0.59830353013E+02  0.16819983497E+03 -0.21803408082E+03  0.28179729599E+03  0.00000000000E+00 0. -1.
</event>
<event>
 7    1  0.2707654E-009  0.1319957E+03  0.7561462E-02  0.1224524E+00
         -1   -1    0    0    0  501 -0.00000000000E+00  0.00000000000E+00  0.31983215653E+03  0.31983215653E+03  0.00000000000E+00 0.  1.
          1   -1    0    0  501    0  0.00000000000E+00 -0.00000000000E+00 -0.66644573220E+02  0.66644573220E+02  0.00000000000E+00 0. -1.
         25    2    1    2    0    0 -0.40888347272E+02  0.86278842691E+02  0.16166848667E+03  0.22561029450E+03  0.12508960692E+03 0.  0.
          5    1    3    3  502    0  0.36563897843E+02  0.63774470394E+02  0.55454338002E+02  0.92177859070E+02  0.41800000000E+01 0.  1.
         -5    1    3    3    0  502 -0.77452245115E+02  0.22504372297E+02  0.10621414867E+03  0.13343243543E+03  0.41800000000E+01 0.  1.
        -11    1    1    2    0    0  0.49799005567E+02 -0.44201954021E+02  0.96845435116E+02  0.11752783499E+03  0.00000000000E+00 0. -1.
         11    1    1    2    0    0 -0.89106582944E+01 -0.42076888670E+02 -0.53263384778E+01  0.43338600266E+02  0.00000000000E+00 0.  1.
</event>
<event>
 7    1  0.2530765E-009  0.1835638E+03  0.7561462E-02  0.1164398E+00
         -1   -1    0    0    0  501 -0.00000000000E+00  0.00000000000E+00  0.17144190073E+04  0.17144190073E+04  0.00000000000E+00 0.  1.
          1   -1    0    0  501    0  0.00000000000E+00 -0.00000000000E+00 -0.25771436852E+02  0.25771436852E+02  0.00000000000E+00 0. -1.
         25    2    1    2    0    0  0.96429903956E+02 -0.11601427022E+03  0.12812008945E+04  0.12961022290E+04  0.12508884317E+03 0.  0.
          5    1    3    3  502    0 -0.41139373728E+01 -0.88205614521E+02  0.70483739018E+03  0.71035932732E+03  0.41800000000E+01 0.  1.
         -5    1    3    3    0  502  0.10054384133E+03 -0.27808655704E+02  0.57636350435E+03  0.58574290171E+03  0.41800000000E+01 0.  1.
        -11    1    1    2    0    0 -0.72632250820E+02  0.12838303199E+03  0.31492524913E+03  0.34775790329E+03  0.00000000000E+00 0.  1.
         11    1    1    2    0    0 -0.23797653136E+02 -0.12368761762E+02  0.92521426790E+02  0.96330311832E+02  0.00000000000E+00 0. -1.
</event>
<event>
 7    1  0.2530765E-009  0.1164993E+03  0.7561462E-02  0.1248986E+00
         -2   -1    0    0    0  501 -0.00000000000E+00  0.00000000000E+00  0.55370227638E+02  0.55370227638E+02  0.00000000000E+00 0.  1.
          2   -1    0    0  501    0  0.00000000000E+00 -0.00000000000E+00 -0.30081952839E+03  0.30081952839E+03  0.00000000000E+00 0. -1.
         25    2    1    2    0    0  0.44829070578E+02  0.54110030026E+02 -0.11600194480E+03  0.18450088549E+03  0.12508630872E+03 0.  0.
          5    1    3    3  502    0 -0.40035987485E+02  0.30506253097E+02 -0.20493858224E+02  0.54506718822E+02  0.41800000000E+01 0. -1.
         -5    1    3    3    0  502  0.84865058063E+02  0.23603776929E+02 -0.95508086577E+02  0.12999416667E+03  0.41800000000E+01 0. -1.
        -11    1    1    2    0    0 -0.25277542563E+02  0.10073147059E+02 -0.15428147847E+01  0.27254407482E+02  0.00000000000E+00 0.  1.
         11    1    1    2    0    0 -0.19551528015E+02 -0.64183177085E+02 -0.12790454117E+03  0.14443446306E+03  0.00000000000E+00 0. -1.
</event>
<event>
 7    1  0.2549263E-009  0.1248891E+03  0.7561462E-02  0.1235243E+00
         -2   -1    0    0    0  501 -0.00000000000E+00  0.00000000000E+00  0.58038307316E+02  0.58038307316E+02  0.00000000000E+00 0.  1.
          2   -1    0    0  501    0  0.00000000000E+00 -0.00000000000E+00 -0.66650710236E+03  0.66650710236E+03  0.00000000000E+00 0. -1.
         25    2    1    2    0    0  0.79175416295E+02 -0.83998286638E+02 -0.53337114503E+03  0.55987329170E+03  0.12509542640E+03 0.  0.
          5    1    3    3  502    0  0.92364596532E+01 -0.83470205783E+00 -0.32208445817E+03  0.32224506127E+03  0.41800000000E+01 0.  1.
         -5    1    3    3    0  502  0.69938956642E+02 -0.83163584580E+02 -0.21128668686E+03  0.23762823044E+03  0.41800000000E+01 0.  1.
        -11    1    1    2    0    0 -0.17668175181E+02  0.63680626951E+02 -0.78537730225E+00  0.66090872900E+02  0.00000000000E+00 0.  1.
         11    1    1    2    0    0 -0.61507241114E+02  0.20317659687E+02 -0.74312272706E+02  0.98581245069E+02  0.00000000000E+00 0. -1.
</event>
<event>
 7    1  0.2530765E-009  0.1014161E+03  0.7561462E-02  0.1277346E+00
          2   -1    0    0  501    0  0.00000000000E+00  0.00000000000E+00  0.18560375886E+03  0.18560375886E+03  0.00000000000E+00 0. -1.
         -2   -1    0    0    0  501 -0.00000000000E+00 -0.00000000000E+00 -0.86856147355E+02  0.86856147355E+02  0.00000000000E+00 0.  1.
         25    2    1    2    0    0  0.60798390502E+01 -0.63436245008E+02  0.40293640119E+02  0.14605506023E+03  0.12508949421E+03 0.  0.
          5    1    3    3  502    0 -0.82674444774E+01  0.11783444592E+02 -0.35313020570E+02  0.38362508083E+02  0.41800000000E+01 0. -1.
         -5    1    3    3    0  502  0.14347283528E+02 -0.75219689600E+02  0.75606660689E+02  0.10769255215E+03  0.41800000000E+01 0. -1.
        -11    1    1    2    0    0 -0.48553831449E+02  0.37894235955E+02  0.40389567899E+02  0.73653003075E+02  0.00000000000E+00 0. -1.
         11    1    1    2    0    0  0.42473992398E+02  0.25542009053E+02  0.18064403489E+02  0.52751842908E+02  0.00000000000E+00 0.  1.
</event>
<event>
 7    1  0.2530765E-009  0.1124384E+03  0.7561462E-02  0.1256120E+00
         -2   -1    0    0    0  501 -0.00000000000E+00  0.00000000000E+00  0.15655560598E+02  0.15655560598E+02  0.00000000000E+00 0.  1.
          2   -1    0    0  501    0  0.00000000000E+00 -0.00000000000E+00 -0.14825447135E+04  0.14825447135E+04  0.00000000000E+00 0. -1.
         25    2    1    2    0    0 -0.44724165774E+02 -0.18497103638E+02 -0.12522522434E+04  0.12594131553E+04  0.12507366100E+03 0.  0.
          5    1    3    3  502    0  0.33731730687E+02 -0.23914998677E+02 -0.73762873892E+03  0.73879860970E+03  0.41800000000E+01 0. -1.
         -5    1    3    3    0  502 -0.78455896461E+02  0.54178950383E+01 -0.51462350450E+03  0.52061454557E+03  0.41800000000E+01 0. -1.
        -11    1    1    2    0    0  0.33442228345E+02 -0.35868034214E+02 -0.96003124056E+02  0.10780305350E+03  0.00000000000E+00 0. -1.
         11    1    1    2    0    0  0.11281937428E+02  0.54365137852E+02 -0.11863378546E+03  0.13098406536E+03  0.00000000000E+00 0.  1.
</event>
<event>
 7    1  0.2530765E-009  0.1070865E+03  0.7561462E-02  0.1266062E+00
          2   -1    0    0  501    0  0.00000000000E+00  0.00000000000E+00  0.21166480008E+03  0.21166480008E+03  0.00000000000E+00 0. -1.
         -2   -1    0    0    0  501 -0.00000000000E+00 -0.00000000000E+00 -0.55486167627E+02  0.55486167627E+02  0.00000000000E+00 0.  1.
         25    2    1    2    0    0 -0.66931295289E+01 -0.20876422887E+02  0.81277678041E+02  0.15077849282E+03  0.12508984745E+03 0.  0.
          5    1    3    3  502    0  0.21945606219E+02  0.47344499041E+02  0.26867275882E+02  0.58842451811E+02  0.41800000000E+01 0.  1.
         -5    1    3    3    0  502 -0.28638735748E+02 -0.68220921928E+02  0.54410402159E+02  0.91936041013E+02  0.41800000000E+01 0.  1.
        -11    1    1    2    0    0  0.31960634633E+02 -0.21400604358E+02  0.22972523793E+02  0.44801840168E+02  0.00000000000E+00 0.  1.
         11    1    1    2    0    0 -0.25267505104E+02  0.42277027245E+02  0.51928430615E+02  0.71570634711E+02  0.00000000000E+00 0. -1.
</event>
<event>
 7    1  0.2530765E-009  0.9880393E+02  0.7561462E-02  0.1282831E+00
         -1   -1    0    0    0  501 -0.00000000000E+00  0.00000000000E+00  0.11736353532E+04  0.11736353532E+04  0.00000000000E+00 0.  1.
          1   -1    0    0  501    0  0.00000000000E+00 -0.00000000000E+00 -0.14046774427E+02  0.14046774427E+02  0.00000000000E+00 0. -1.
         25    2    1    2    0    0  0.53090936659E+02  0.27648708175E+02  0.74971156857E+03  0.76242894007E+03  0.12508938397E+03 0.  0.
          5    1    3    3  502    0  0.16924392672E+02  0.44080285792E+02  0.68321755759E+03  0.68485999304E+03  0.41800000000E+01 0.  1.
         -5    1    3    3    0  502  0.36166543987E+02 -0.16431577617E+02  0.66494010986E+02  0.77568947034E+02  0.41800000000E+01 0.  1.
        -11    1    1    2    0    0 -0.44256184026E+02  0.29011173821E+02  0.24616237000E+03  0.25178596155E+03  0.00000000000E+00 0.  1.
         11    1    1    2    0    0 -0.88347526339E+01 -0.56659881996E+02  0.16371464018E+03  0.17346722598E+03  0.00000000000E+00 0. -1.
</event>
<event>
 7    1  0.2530765E-009  0.1534992E+03  0.7561462E-02  0.1196238E+00
         -1   -1    0    0    0  501 -0.00000000000E+00  0.00000000000E+00  0.21911186493E+03  0.21911186493E+03  0.00000000000E+00 0.  1.
          1   -1    0    0  501    0  0.00000000000E+00 -0.00000000000E+00 -0.13673283297E+03  0.13673283297E+03  0.00000000000E+00 0. -1.
         25    2    1    2    0    0 -0.63560574121E+02  0.94586577843E+02  0.11888127900E+03  0.20680283866E+03  0.12509231907E+03 0.  0.
          5    1    3    3  502    0 -0.47664974924E+02 -0.20363685670E+02  0.47944509213E+02  0.70730318056E+02  0.41800000000E+01 0.  1.
         -5    1    3    3    0  502 -0.15895599197E+02  0.11495026351E+03  0.70936769790E+02  0.13607252061E+03  0.41800000000E+01 0.  1.
        -11    1    1    2    0    0  0.72210396757E+02 -0.37932198487E+02 -0.89836574323E+00  0.81572054914E+02  0.00000000000E+00 0.  1.
         11    1    1    2    0    0 -0.86498226358E+01 -0.56654379356E+02 -0.35603881297E+02  0.67469804322E+02  0.00000000000E+00 0. -1.
</event>
<event>
 7    1  0.2530765E-009  0.1503360E+03  0.7561462E-02  0.1200061E+00
         -4   -1    0    0    0  501 -0.00000000000E+00  0.00000000000E+00  0.82825010342E+03  0.82825010342E+03  0.00000000000E+00 0.  1.
          4   -1    0    0  501    0  0.00000000000E+00 -0.00000000000E+00 -0.30787151177E+02  0.30787151177E+02  0.00000000000E+00 0. -1.
         25    2    1    2    0    0  0.77204595879E+02  0.87119697026E+02  0.42725446593E+03  0.46015699238E+03  0.12509071807E+03 0.  0.
          5    1    3    3  502    0  0.45737596260E+02 -0.22824689466E+02  0.84957062292E+02  0.99237437463E+02  0.41800000000E+01 0. -1.
         -5    1    3    3    0  502  0.31466999620E+02  0.10994438649E+03  0.34229740364E+03  0.36091955492E+03  0.41800000000E+01 0. -1.
        -11    1    1    2    0    0 -0.74787866721E+02 -0.34650545056E+02  0.30049438527E+03  0.31159390376E+03  0.00000000000E+00 0.  1.
         11    1    1    2    0    0 -0.24167291580E+01 -0.52469151970E+02  0.69714101047E+02  0.87286358459E+02  0.00000000000E+00 0. -1.
</event>
<event>
 7    1  0.2530765E-009  0.4054439E+03  0.7561462E-02  0.1041911E+00
         -2   -1    0    0    0  501 -0.00000000000E+00  0.00000000000E+00  0.11068164368E+03  0.11068164368E+03  0.00000000000E+00 0. -1.
          2   -1    0    0  501    0  0.00000000000E+00 -0.00000000000E+00 -0.15958543696E+04  0.15958543696E+04  0.00000000000E+00 0.  1.
         25    2    1    2    0    0  0.16040685822E+03  0.36804746228E+03 -0.62932868822E+03  0.75689572462E+03  0.12508895027E+03 0.  0.
          5    1    3    3  502    0  0.61437010738E+02  0.82376786098E+02 -0.25989458442E+03  0.27950511371E+03  0.41800000000E+01 0. -1.
         -5    1    3    3    0  502  0.98969847479E+02  0.28567067618E+03 -0.36943410379E+03  0.47739061091E+03  0.41800000000E+01 0. -1.
        -11    1    1    2    0    0 -0.95288808812E+02 -0.14651177207E+03 -0.44932704565E+03  0.48212078403E+03  0.00000000000E+00 0.  1.
         11    1    1    2    0    0 -0.65118049405E+02 -0.22153569021E+03 -0.40651699208E+03  0.46751950467E+03  0.00000000000E+00 0. -1.
</event>
<event>
 7    1  0.2726399E-009  0.1191438E+03  0.7561462E-02  0.1244516E+00
          1   -1    0    0  501    0  0.00000000000E+00  0.00000000000E+00  0.65117571917E+03  0.65117571917E+03  0.00000000000E+00 0. -1.
         -1   -1    0    0    0  501 -0.00000000000E+00 -0.00000000000E+00 -0.39890282806E+02  0.39890282806E+02  0.00000000000E+00 0.  1.
         25    2    1    2    0    0  0.20060044693E+02 -0.80388148561E+02  0.50930434024E+03  0.53094494540E+03  0.12508782606E+03 0.  0.
          5    1    3    3  502    0  0.52779137833E+02  0.92441963518E+01  0.15810136910E+03  0.16698684939E+03  0.41800000000E+01 0. -1.
         -5    1    3    3    0  502 -0.32719093140E+02 -0.89632344913E+02  0.35120297114E+03  0.36395809601E+03  0.41800000000E+01 0. -1.
        -11    1    1    2    0    0 -0.29012317931E+02  0.56306916392E+02  0.93928098563E+01  0.64034430600E+02  0.00000000000E+00 0.  1.
         11    1    1    2    0    0  0.89522732382E+01  0.24081232170E+02  0.92588286259E+02  0.96086625976E+02  0.00000000000E+00 0. -1.
</event>
<event>
 7    1  0.2530765E-009  0.1871167E+03  0.7561462E-02  0.1161088E+00
         -2   -1    0    0    0  501 -0.00000000000E+00  0.00000000000E+00  0.49923964231E+02  0.49923964231E+02  0.00000000000E+00 0. -1.
          2   -1    0    0  501    0  0.00000000000E+00 -0.00000000000E+00 -0.81495589942E+03  0.81495589942E+03  0.00000000000E+00 0.  1.
         25    2    1    2    0    0 -0.15190286878E+03 -0.15880727754E+02 -0.56026540414E+03  0.59402755384E+03  0.12507890545E+03 0.  0.
          5    1    3    3  502    0 -0.15640246601E+03  0.22515711746E+02 -0.43276436909E+03  0.46072894439E+03  0.41800000000E+01 0.  1.
         -5    1    3    3    0  502  0.44995972289E+01 -0.38396439499E+02 -0.12750103506E+03  0.13329860945E+03  0.41800000000E+01 0.  1.
        -11    1    1    2    0    0  0.38606849109E+02  0.45993693783E+02 -0.67943112758E+02  0.90676210977E+02  0.00000000000E+00 0.  1.
         11    1    1    2    0    0  0.11329601967E+03 -0.30112966030E+02 -0.13682341829E+03  0.18017609883E+03  0.00000000000E+00 0. -1.
</event>
<event>
 7    1  0.2530765E-009  0.8700425E+02  0.7561462E-02  0.1310273E+00
         -1   -1    0    0    0  501 -0.00000000000E+00  0.00000000000E+00  0.66104032672E+02  0.66104032672E+02  0.00000000000E+00 0.  1.
          1   -1    0    0  501    0  0.00000000000E+00 -0.00000000000E+00 -0.20406980304E+03  0.20406980304E+03  0.00000000000E+00 0. -1.
         25    2    1    2    0    0  0.17611863552E+02 -0.33381164090E+01 -0.11627211469E+03  0.17172302169E+03  0.12509304842E+03 0.  0.
          5    1    3    3  502    0 -0.25723071583E+02 -0.53354280159E+02 -0.63861099213E+02  0.87201307419E+02  0.41800000000E+01 0. -1.
         -5    1    3    3    0  502  0.43334935135E+02  0.50016163750E+02 -0.52411015481E+02  0.84521714270E+02  0.41800000000E+01 0. -1.
        -11    1    1    2    0    0  0.15185632409E+02 -0.10905718120E+01 -0.51628109880E+02  0.53826150785E+02  0.00000000000E+00 0. -1.
         11    1    1    2    0    0 -0.32797495961E+02  0.44286882211E+01  0.29934454205E+02  0.44624663239E+02  0.00000000000E+00 0.  1.
</event>
<event>
 7    1  0.2530765E-009  0.1388531E+03  0.7561462E-02  0.1214881E+00
         -2   -1    0    0    0  501 -0.00000000000E+00  0.00000000000E+00  0.45224663319E+03  0.45224663319E+03  0.00000000000E+00 0.  1.
          2   -1    0    0  501    0  0.00000000000E+00 -0.00000000000E+00 -0.10213350706E+03  0.10213350706E+03  0.00000000000E+00 0. -1.
         25    2    1    2    0    0 -0.13093969261E+03  0.30952674974E+02  0.18390591093E+02  0.18463304777E+03  0.12509147572E+03 0.  0.
          5    1    3    3  502    0 -0.12853635791E+03  0.18754399540E+02 -0.30933090461E+02  0.13359510205E+03  0.41800000000E+01 0.  1.
         -5    1    3    3    0  502 -0.24033347092E+01  0.12198275434E+02  0.49323681554E+02  0.51037945721E+02  0.41800000000E+01 0.  1.
        -11    1    1    2    0    0  0.62046201264E+02 -0.16998382190E+02  0.26546693801E+03  0.27315082146E+03  0.00000000000E+00 0.  1.
         11    1    1    2    0    0  0.68893491351E+02 -0.13954292784E+02  0.66255597020E+02  0.96596271015E+02  0.00000000000E+00 0. -1.
</event>
<event>
 7    1  0.2530765E-009  0.1997285E+03  0.7561462E-02  0.1149968E+00
          2   -1    0    0  501    0  0.00000000000E+00  0.00000000000E+00  0.11573101312E+04  0.11573101312E+04  0.00000000000E+00 0.  1.
         -2   -1    0    0    0  501 -0.00000000000E+00 -0.00000000000E+00 -0.37781786748E+02  0.37781786748E+02  0.00000000000E+00 0. -1.
         25    2    1    2    0    0  0.17466877637E+03 -0.34815529266E+02  0.61250769193E+03  0.65002580195E+03  0.12508624230E+03 0.  0.
          5    1    3    3  502    0  0.88860734877E+02 -0.73429979000E+02  0.24748233466E+03  0.27304426452E+03  0.41800000000E+01 0. -1.
         -5    1    3    3    0  502  0.85808041488E+02  0.38614449734E+02  0.36502535727E+03  0.37698153743E+03  0.41800000000E+01 0. -1.
        -11    1    1    2    0    0 -0.68158066629E+02  0.46882939888E+02  0.30914163114E+03  0.32001887476E+03  0.00000000000E+00 0.  1.
         11    1    1    2    0    0 -0.10651070974E+03 -0.12067410622E+02  0.19787902142E+03  0.22504724128E+03  0.00000000000E+00 0. -1.
</event>
<event>
 7    1  0.2530765E-009  0.2256975E+03  0.7561462E-02  0.1129705E+00
         -2   -1    0    0    0  501 -0.00000000000E+00  0.00000000000E+00  0.10009785509E+03  0.10009785509E+03  0.00000000000E+00 0. -1.
          2   -1    0    0  501    0  0.00000000000E+00 -0.00000000000E+00 -0.57980966521E+03  0.57980966521E+03  0.00000000000E+00 0.  1.
         25    2    1    2    0    0 -0.56550432993E+02 -0.20448499666E+03 -0.29496074381E+03  0.38426740961E+03  0.12509011297E+03 0.  0.
          5    1    3    3  502    0 -0.45248230094E+02 -0.16592398307E+02 -0.11078553475E+03  0.12088679464E+03  0.41800000000E+01 0. -1.
         -5    1    3    3    0  502 -0.11302202900E+02 -0.18789259836E+03 -0.18417520906E+03  0.26338061497E+03  0.41800000000E+01 0. -1.
        -11    1    1    2    0    0  0.61034927853E+02  0.19250275368E+03 -0.19385888697E+03  0.27993542228E+03  0.00000000000E+00 0.  1.
         11    1    1    2    0    0 -0.44844948594E+01  0.11982242986E+02  0.91078206613E+01  0.15704688418E+02  0.00000000000E+00 0. -1.
</event>
<event>
 7    1  0.2530765E-009  0.1129732E+03  0.7561462E-02  0.1255161E+00
         -2   -1    0    0    0  501 -0.00000000000E+00  0.00000000000E+00  0.81716127091E+02  0.81716127091E+02  0.00000000000E+00 0.  1.
          2   -1    0    0  501    0  0.00000000000E+00 -0.00000000000E+00 -0.22266998952E+03  0.22266998952E+03  0.00000000000E+00 0. -1.
         25    2    1    2    0    0 -0.26893742448E+02  0.70627805261E+02 -0.54207853592E+02  0.15587534207E+03  0.12508825131E+03 0.  0.
          5    1    3    3  502    0  0.28431575895E+00 -0.23204602916E+02  0.21735211295E+02  0.32069085456E+02  0.41800000000E+01 0. -1.
         -5    1    3    3    0  502 -0.27178058207E+02  0.93832408177E+02 -0.75943064887E+02  0.12380625661E+03  0.41800000000E+01 0. -1.
        -11    1    1    2    0    0  0.47645168367E+02 -0.23566829215E+02 -0.69953911681E+01  0.53613365923E+02  0.00000000000E+00 0.  1.
         11    1    1    2    0    0 -0.20751425919E+02 -0.47060976046E+02 -0.79750617670E+02  0.94897408620E+02  0.00000000000E+00 0. -1.
</event>
<event>
 7    1  0.2530765E-009  0.1081487E+03  0.7561462E-02  0.1264037E+00
          4   -1    0    0  501    0  0.00000000000E+00  0.00000000000E+00  0.89734684376E+02  0.89734684376E+02  0.00000000000E+00 0. -1.
         -4   -1    0    0    0  501 -0.00000000000E+00 -0.00000000000E+00 -0.22962663166E+03  0.22962663166E+03  0.00000000000E+00 0.  1.
         25    2    1    2    0    0  0.24655775396E+02  0.77492117655E+02 -0.23891559245E+02  0.15110795927E+03  0.12509945320E+03 0.  0.
          5    1    3    3  502    0  0.45741602700E+02  0.84874413312E+02  0.22813717383E+02  0.99166014105E+02  0.41800000000E+01 0. -1.
         -5    1    3    3    0  502 -0.21085827304E+02 -0.73822956569E+01 -0.46705276628E+02  0.51941945161E+02  0.41800000000E+01 0. -1.
        -11    1    1    2    0    0 -0.23192833351E+02 -0.39748385829E+01 -0.85444625195E+02  0.88625565360E+02  0.00000000000E+00 0.  1.
         11    1    1    2    0    0 -0.14629420445E+01 -0.73517279072E+02 -0.30555762842E+02  0.79627791408E+02  0.00000000000E+00 0. -1.
</event>
<event>
 7    1  0.2530765E-009  0.7834226E+02  0.7561462E-02  0.1333823E+00
         -4   -1    0    0    0  501 -0.00000000000E+00  0.00000000000E+00  0.16359634188E+03  0.16359634188E+03  0.00000000000E+00 0.  1.
          4   -1    0    0  501    0  0.00000000000E+00 -0.00000000000E+00 -0.10365482208E+03  0.10365482208E+03  0.00000000000E+00 0. -1.
         25    2    1    2    0    0 -0.39705861769E+02 -0.56984358114E+02  0.19478712508E+02  0.14439671410E+03  0.12508884152E+03 0.  0.
          5    1    3    3  502    0  0.68962049678E+00 -0.85758002280E+01 -0.49753349701E+02  0.50664466171E+02  0.41800000000E+01 0. -1.
         -5    1    3    3    0  502 -0.40395482265E+02 -0.48408557886E+02  0.69232062209E+02  0.93732247928E+02  0.41800000000E+01 0. -1.
        -11    1    1    2    0    0  0.42182645055E+02  0.19683795238E+02  0.63656963550E+02  0.78860867020E+02  0.00000000000E+00 0.  1.
         11    1    1    2    0    0 -0.24767832860E+01  0.37300562876E+02 -0.23194156256E+02  0.43993582836E+02  0.00000000000E+00 0. -1.
</event>
<event>
 7    1  0.2530765E-009  0.1025709E+03  0.7561462E-02  0.1274981E+00
         -2   -1    0    0    0  501 -0.00000000000E+00  0.00000000000E+00  0.31832953054E+02  0.31832953054E+02  0.00000000000E+00 0.  1.
          2   -1    0    0  501    0  0.00000000000E+00 -0.00000000000E+00 -0.49673149059E+03  0.49673149059E+03  0.00000000000E+00 0. -1.
         25    2    1    2    0    0 -0.36875595740E+02  0.56315621243E+01 -0.15017640076E+03  0.19897630721E+03  0.12508835052E+03 0.  0.
          5    1    3    3  502    0 -0.94950558503E+01  0.55753020316E+02 -0.26315891749E+02  0.62518428631E+02  0.41800000000E+01 0. -1.
         -5    1    3    3    0  502 -0.27380539890E+02 -0.50121458192E+02 -0.12386050901E+03  0.13645787858E+03  0.41800000000E+01 0. -1.
        -11    1    1    2    0    0  0.15970063298E+02 -0.44364755463E+02 -0.10215432405E+03  0.11251124553E+03  0.00000000000E+00 0.  1.
         11    1    1    2    0    0  0.20905532442E+02  0.38733193339E+02 -0.21256781273E+03  0.21707689090E+03  0.00000000000E+00 0. -1.
</event>
<event>
 7    1  0.2530765E-009  0.8362280E+02  0.7561462E-02  0.1319074E+00
         -2   -1    0    0    0  501 -0.00000000000E+00  0.00000000000E+00  0.61883950678E+02  0.61883950678E+02  0.00000000000E+00 0.  1.
          2   -1    0    0  501    0  0.00000000000E+00 -0.00000000000E+00 -0.23085879943E+03  0.23085879943E+03  0.00000000000E+00 0. -1.
         25    2    1    2    0    0 -0.96874168716E+00 -0.31396204618E+02 -0.57904348852E+02  0.14137598319E+03  0.12509034688E+03 0.  0.
          5    1    3    3  502    0 -0.12744209324E+02  0.20537631421E+02 -0.79921085778E+02  0.83600607220E+02  0.41800000000E+01 0. -1.
         -5    1    3    3    0  502  0.11775467636E+02 -0.51933836040E+02  0.22016736926E+02  0.57775375972E+02  0.41800000000E+01 0. -1.
        -11    1    1    2    0    0 -0.20265785743E+02  0.54365333928E+02 -0.31833981023E+02  0.66179256211E+02  0.00000000000E+00 0.  1.
         11    1    1    2    0    0  0.21234527430E+02 -0.22969129310E+02 -0.79236518878E+02  0.85187510706E+02  0.00000000000E+00 0. -1.
</event>
<event>
 7    1  0.2530765E-009  0.1042803E+03  0.7561462E-02  0.1271544E+00
         -2   -1    0    0    0  501 -0.00000000000E+00  0.00000000000E+00  0.22065490505E+02  0.22065490505E+02  0.00000000000E+00 0.  1.
          2   -1    0    0  501    0  0.00000000000E+00 -0.00000000000E+00 -0.59452968596E+03  0.59452968596E+03  0.00000000000E+00 0. -1.
         25    2    1    2    0    0 -0.16022534251E+02  0.11157222007E+02 -0.41740015928E+03  0.43617981806E+03  0.12509490600E+03 0.  0.
          5    1    3    3  502    0 -0.48230864136E+02 -0.36346994607E+02 -0.29195676612E+03  0.29816697663E+03  0.41800000000E+01 0.  1.
         -5    1    3    3    0  502  0.32208329886E+02  0.47504216614E+02 -0.12544339316E+03  0.13801284143E+03  0.41800000000E+01 0.  1.
        -11    1    1    2    0    0  0.15956817993E+02  0.38055067282E+02 -0.88373858239E+02  0.97533312290E+02  0.00000000000E+00 0. -1.
         11    1    1    2    0    0  0.65716257786E-01 -0.49212289289E+02 -0.66690177942E+02  0.82882046123E+02  0.00000000000E+00 0.  1.
</event>
<event>
 7    1  0.2530765E-009  0.2018282E+03  0.7561462E-02  0.1148206E+00
          1   -1    0    0  501    0  0.00000000000E+00  0.00000000000E+00  0.13321209627E+03  0.13321209627E+03  0.00000000000E+00 0. -1.
         -1   -1    0    0    0  501 -0.00000000000E+00 -0.00000000000E+00 -0.32068398534E+03  0.32068398534E+03  0.00000000000E+00 0.  1.
         25    2    1    2    0    0  0.51265604306E+02 -0.16257627742E+03 -0.51664993631E+02  0.21766038184E+03  0.12509021580E+03 0.  0.
          5    1    3    3  502    0  0.21774852352E+02 -0.17631282198E+03 -0.36000820243E+02  0.18131157395E+03  0.41800000000E+01 0.  1.
         -5    1    3    3    0  502  0.29490751954E+02  0.13736544555E+02 -0.15664173388E+02  0.36348807891E+02  0.41800000000E+01 0.  1.
        -11    1    1    2    0    0  0.26456252930E+01  0.13028589510E+03 -0.95839213817E+02  0.16176083797E+03  0.00000000000E+00 0.  1.
         11    1    1    2    0    0 -0.53911229599E+02  0.32290382327E+02 -0.39967681615E+02  0.74474861809E+02  0.00000000000E+00 0. -1.
</event>
<event>
 7    1  0.2530765E-009  0.9850209E+02  0.7561462E-02  0.1283478E+00
         -2   -1    0    0    0  501 -0.00000000000E+00  0.00000000000E+00  0.36452648945E+02  0.36452648945E+02  0.00000000000E+00 0.  1.
          2   -1    0    0  501    0  0.00000000000E+00 -0.00000000000E+00 -0.54157732853E+03  0.54157732853E+03  0.00000000000E+00 0. -1.
         25    2    1    2    0    0 -0.73016388389E+02  0.13230747117E+02 -0.37995536303E+03  0.40684166065E+03  0.12509042052E+03 0.  0.
          5    1    3    3  502    0  0.23673016137E+02 -0.29468711318E+01 -0.20352743290E+03  0.20496337254E+03  0.41800000000E+01 0.  1.
         -5    1    3    3    0  502 -0.96689404526E+02  0.16177618248E+02 -0.17642793013E+03  0.20187828811E+03  0.41800000000E+01 0.  1.
        -11    1    1    2    0    0  0.13887497344E+02 -0.58703651904E+01  0.13513449042E+02  0.20246902848E+02  0.00000000000E+00 0.  1.
         11    1    1    2    0    0  0.59128891046E+02 -0.73603819261E+01 -0.13868276560E+03  0.15094141398E+03  0.00000000000E+00 0. -1.
</event>
<event>
 7    1  0.2530765E-009  0.7775865E+02  0.7561462E-02  0.1335535E+00
         -1   -1    0    0    0  501 -0.00000000000E+00  0.00000000000E+00  0.43695321251E+03  0.43695321251E+03  0.00000000000E+00 0.  1.
          1   -1    0    0  501    0  0.00000000000E+00 -0.00000000000E+00 -0.29990391073E+02  0.29990391073E+02  0.00000000000E+00 0. -1.
         25    2    1    2    0    0  0.21440501850E+02  0.15574903006E+02  0.17669191630E+03  0.21810494524E+03  0.12508981224E+03 0.  0.
          5    1    3    3  502    0 -0.20556004767E+01 -0.26032714346E+02 -0.77257327420E+01  0.27551534548E+02  0.41800000000E+01 0.  1.
         -5    1    3    3    0  502  0.23496102327E+02  0.41607617352E+02  0.18441764904E+03  0.19055341069E+03  0.41800000000E+01 0.  1.
        -11    1    1    2    0    0 -0.48322131857E+02 -0.22562734120E+02  0.80826225072E+02  0.96834828742E+02  0.00000000000E+00 0. -1.
         11    1    1    2    0    0  0.26881630006E+02  0.69878311143E+01  0.14944468007E+03  0.15200382961E+03  0.00000000000E+00 0.  1.
</event>
<event>
 7    1  0.2530765E-009  0.1236574E+03  0.7561462E-02  0.1237183E+00
         -1   -1    0    0    0  501 -0.00000000000E+00  0.00000000000E+00  0.28015103922E+02  0.28015103922E+02  0.00000000000E+00 0.  1.
          1   -1    0    0  501    0  0.00000000000E+00 -0.00000000000E+00 -0.89947753165E+03  0.89947753165E+03  0.00000000000E+00 0. -1.
         25    2    1    2    0    0  0.10383916450E+03  0.27779564180E+02 -0.49576748871E+03  0.52248283632E+03  0.12509450473E+03 0.  0.
          5    1    3    3  502    0  0.10496339814E+03  0.28574682316E+02 -0.50265539021E+03  0.51430899382E+03  0.41800000000E+01 0. -1.
         -5    1    3    3    0  502 -0.11242336473E+01 -0.79511813634E+00  0.68879014970E+01  0.81738424977E+01  0.41800000000E+01 0. -1.
        -11    1    1    2    0    0  0.12794227497E+02  0.35588501865E+01 -0.35318634282E+01  0.13741605844E+02  0.00000000000E+00 0.  1.
         11    1    1    2    0    0 -0.11663339199E+03 -0.31338414366E+02 -0.37216307559E+03  0.39126819341E+03  0.00000000000E+00 0. -1.
</event>
<event>
 7    1  0.2530765E-009  0.1830283E+03  0.7561462E-02  0.1164904E+00
         -1   -1    0    0    0  501 -0.00000000000E+00  0.00000000000E+00  0.10326301220E+03  0.10326301220E+03  0.00000000000E+00 0.  1.
          1   -1    0    0  501    0  0.00000000000E+00 -0.00000000000E+00 -0.34004356255E+03  0.34004356255E+03  0.00000000000E+00 0. -1.
         25    2    1    2    0    0 -0.14680120264E+03 -0.30548652165E+02 -0.15998176254E+03  0.25244327766E+03  0.12509848459E+03 0.  0.
          5    1    3    3  502    0 -0.44462982311E+02 -0.68861035977E+02 -0.44345635020E+02  0.93288835437E+02  0.41800000000E+01 0.  1.
         -5    1    3    3    0  502 -0.10233822033E+03  0.38312383812E+02 -0.11563612752E+03  0.15915444223E+03  0.41800000000E+01 0.  1.
        -11    1    1    2    0    0  0.75559459951E+02 -0.29836347101E+02 -0.39003692532E+02  0.90115079912E+02  0.00000000000E+00 0. -1.
         11    1    1    2    0    0  0.71241742686E+02  0.60384999266E+02 -0.37795095273E+02  0.10074821717E+03  0.00000000000E+00 0.  1.
</event>
<event>
 7    1  0.2530765E-009  0.7858974E+02  0.7561462E-02  0.1333102E+00
          2   -1    0    0  501    0  0.00000000000E+00  0.00000000000E+00  0.32409765917E+03  0.32409765917E+03  0.00000000000E+00 0. -1.
         -2   -1    0    0    0  501 -0.00000000000E+00 -0.00000000000E+00 -0.37408459076E+02  0.37408459076E+02  0.00000000000E+00 0.  1.
         25    2    1    2    0    0 -0.68579361680E+01  0.12687495552E+02  0.14940958820E+03  0.19539078790E+03  0.12508529536E+03 0.  0.
          5    1    3    3  502    0 -0.46198757687E+01  0.47432235430E+02  0.15284429649E+03  0.16015620993E+03  0.41800000000E+01 0.  1.
         -5    1    3    3    0  502 -0.22380603993E+01 -0.34744739877E+02 -0.34347082836E+01  0.35234577967E+02  0.41800000000E+01 0.  1.
        -11    1    1    2    0    0 -0.75908227711E+01 -0.41421247201E+02  0.24239778801E+02  0.48589167376E+02  0.00000000000E+00 0.  1.
         11    1    1    2    0    0  0.14448758939E+02  0.28733751648E+02  0.11303983309E+03  0.11752616297E+03  0.00000000000E+00 0. -1.
</event>
<event>
 7    1  0.2530765E-009  0.2673347E+03  0.7561462E-02  0.1102815E+00
         -2   -1    0    0    0  501 -0.00000000000E+00  0.00000000000E+00  0.12895047965E+03  0.12895047965E+03  0.00000000000E+00 0. -1.
          2   -1    0    0  501    0  0.00000000000E+00 -0.00000000000E+00 -0.73266373058E+03  0.73266373058E+03  0.00000000000E+00 0.  1.
         25    2    1    2    0    0 -0.23166651734E+01 -0.24702360169E+03 -0.51337939220E+03  0.58329410540E+03  0.12509031265E+03 0.  0.
          5    1    3    3  502    0  0.54422256591E+02 -0.18349318014E+03 -0.36473205225E+03  0.41192046746E+03  0.41800000000E+01 0. -1.
         -5    1    3    3    0  502 -0.56738921764E+02 -0.63530421550E+02 -0.14864733995E+03  0.17137363794E+03  0.41800000000E+01 0. -1.
        -11    1    1    2    0    0  0.38257022349E+02  0.12141290119E+03 -0.16812824737E+02  0.12840312850E+03  0.00000000000E+00 0. -1.
         11    1    1    2    0    0 -0.35940357176E+02  0.12561070050E+03 -0.73521033982E+02  0.14991697633E+03  0.00000000000E+00 0.  1.
</event>
<event>
 7    1  0.2530765E-009  0.1115103E+03  0.7561462E-02  0.1257798E+00
         -2   -1    0    0    0  501 -0.00000000000E+00  0.00000000000E+00  0.54096866040E+02  0.54096866040E+02  0.00000000000E+00 0.  1.
          2   -1    0    0  501    0  0.00000000000E+00 -0.00000000000E+00 -0.24927523649E+03  0.24927523649E+03  0.00000000000E+00 0. -1.
         25    2    1    2    0    0  0.20311470665E+02 -0.20530773700E+02 -0.71257571432E+02  0.14682921884E+03  0.12508840677E+03 0.  0.
          5    1    3    3  502    0  0.72398475630E+02 -0.23933217259E+01 -0.33931843345E+02  0.80100622065E+02  0.41800000000E+01 0. -1.
         -5    1    3    3    0  502 -0.52087004965E+02 -0.18137451974E+02 -0.37325728087E+02  0.66728596775E+02  0.41800000000E+01 0. -1.
        -11    1    1    2    0    0 -0.76131575445E+01 -0.36211680701E+02 -0.56152985895E+02  0.67248820152E+02  0.00000000000E+00 0. -1.
         11    1    1    2    0    0 -0.12698313121E+02  0.56742454401E+02 -0.67767813123E+02  0.89294063537E+02  0.00000000000E+00 0.  1.
</event>
<event>
 7    1  0.2530765E-009  0.1194562E+03  0.7561462E-02  0.1243997E+00
          2   -1    0    0  501    0  0.00000000000E+00  0.00000000000E+00  0.45288195203E+02  0.45288195203E+02  0.00000000000E+00 0.  1.
         -2   -1    0    0    0  501 -0.00000000000E+00 -0.00000000000E+00 -0.38972974794E+03  0.38972974794E+03  0.00000000000E+00 0. -1.
         25    2    1    2    0    0 -0.45914490879E+02  0.58170514706E+02 -0.16845682789E+03  0.22252504904E+03  0.12509094826E+03 0.  0.
          5    1    3    3  502    0 -0.14583710347E+02  0.88110233292E+02 -0.65776555969E+02  0.11099606089E+03  0.41800000000E+01 0. -1.
         -5    1    3    3    0  502 -0.31330780533E+02 -0.29939718585E+02 -0.10268027192E+03  0.11152898815E+03  0.41800000000E+01 0. -1.
        -11    1    1    2    0    0  0.50869008832E+02 -0.34087650179E+01 -0.13381654546E+03  0.14319966333E+03  0.00000000000E+00 0. -1.
         11    1    1    2    0    0 -0.49545179531E+01 -0.54761749689E+02 -0.42168179389E+02  0.69293230767E+02  0.00000000000E+00 0.  1.
</event>
<event>
 7    1  0.2530765E-009  0.9989482E+02  0.7561462E-02  0.1280517E+00
         -2   -1    0    0    0  501 -0.00000000000E+00  0.00000000000E+00  0.29582922872E+03  0.29582922872E+03  0.00000000000E+00 0.  1.
          2   -1    0    0  501    0  0.00000000000E+00 -0.00000000000E+00 -0.62596279907E+02  0.62596279907E+02  0.00000000000E+00 0. -1.
         25    2    1    2    0    0  0.74566272087E+02 -0.17182933296E+01  0.13017163724E+03  0.19533335162E+03  0.12508949456E+03 0.  0.
          5    1    3    3  502    0  0.30879845520E+02  0.10396288018E+02 -0.19968058148E+02  0.38442728962E+02  0.41800000000E+01 0. -1.
         -5    1    3    3    0  502  0.43686426567E+02 -0.12114581347E+02  0.15013969539E+03  0.15689062266E+03  0.41800000000E+01 0. -1.
        -11    1    1    2    0    0  0.17767763346E+02  0.20561923954E+02  0.44499506366E+02  0.52141079753E+02  0.00000000000E+00 0.  1.
         11    1    1    2    0    0 -0.92334035433E+02 -0.18843630625E+02  0.58561805210E+02  0.11095107725E+03  0.00000000000E+00 0. -1.
</event>
<event>
 7    1  0.2530765E-009  0.1584129E+03  0.7561462E-02  0.1190500E+00
         -1   -1    0    0    0  501 -0.00000000000E+00  0.00000000000E+00  0.68557241846E+03  0.68557241846E+03  0.00000000000E+00 0.  1.
          1   -1    0    0  501    0  0.00000000000E+00 -0.00000000000E+00 -0.37135383374E+02  0.37135383374E+02  0.00000000000E+00 0. -1.
         25    2    1    2    0    0 -0.79090064009E+02 -0.85954077062E+02  0.38081020646E+03  0.41750082009E+03  0.12508868791E+03 0.  0.
          5    1    3    3  502    0 -0.34400028937E+02  0.30504248015E+02  0.11125029425E+03  0.12044904113E+03  0.41800000000E+01 0.  1.
         -5    1    3    3    0  502 -0.44690035071E+02 -0.11645832508E+03  0.26955991221E+03  0.29705177897E+03  0.41800000000E+01 0.  1.
        -11    1    1    2    0    0  0.44823845133E+02 -0.82779487905E+01  0.68828754325E+02  0.82553612584E+02  0.00000000000E+00 0. -1.
         11    1    1    2    0    0  0.34266218875E+02  0.94232025852E+02  0.19879807430E+03  0.22265336916E+03  0.00000000000E+00 0.  1.
</event>
<event>
 7    1  0.2530765E-009  0.1318614E+03  0.7561462E-02  0.1224720E+00
          2   -1    0    0  501    0  0.00000000000E+00  0.00000000000E+00  0.14603622330E+04  0.14603622330E+04  0.00000000000E+00 0. -1.
         -2   -1    0    0    0  501 -0.00000000000E+00 -0.00000000000E+00 -0.18704164839E+02  0.18704164839E+02  0.00000000000E+00 0.  1.
         25    2    1    2    0    0 -0.73832122541E+02  0.54353899815E+02  0.11453998147E+04  0.11558524611E+04  0.12509455423E+03 0.  0.
          5    1    3    3  502    0 -0.50516557461E+02  0.85520510501E+02  0.10107592856E+04  0.10156364931E+04  0.41800000000E+01 0. -1.
         -5    1    3    3    0  502 -0.23315565080E+02 -0.31166610686E+02  0.13464052913E+03  0.14021596799E+03  0.41800000000E+01 0. -1.
        -11    1    1    2    0    0  0.28203189169E+02  0.22300909958E+02  0.12562088590E+03  0.13066505821E+03  0.00000000000E+00 0. -1.
         11    1    1    2    0    0  0.45628933372E+02 -0.76654809773E+02  0.17063736750E+03  0.19254887850E+03  0.00000000000E+00 0.  1.
</event>
<event>
 7    1  0.2530765E-009  0.7895781E+02  0.7561462E-02  0.1332035E+00
         -1   -1    0    0    0  501 -0.00000000000E+00  0.00000000000E+00  0.28063667013E+02  0.28063667013E+02  0.00000000000E+00 0. -1.
          1   -1    0    0  501    0  0.00000000000E+00 -0.00000000000E+00 -0.44017608000E+03  0.44017608000E+03  0.00000000000E+00 0.  1.
         25    2    1    2    0    0 -0.18907338204E+02  0.11350895968E+02 -0.25857129203E+03  0.28808515578E+03  0.12509042186E+03 0.  0.
          5    1    3    3  502    0 -0.37599230206E+02 -0.79911340480E+01 -0.25797630483E+03  0.26085782831E+03  0.41800000000E+01 0.  1.
         -5    1    3    3    0  502  0.18691892002E+02  0.19342030016E+02 -0.59498720430E+00  0.27227327477E+02  0.41800000000E+01 0.  1.
        -11    1    1    2    0    0  0.47459434223E+02 -0.31607432781E+02 -0.11313536180E+03  0.12669269037E+03  0.00000000000E+00 0.  1.
         11    1    1    2    0    0 -0.28552096019E+02  0.20256536812E+02 -0.40405759155E+02  0.53461900860E+02  0.00000000000E+00 0. -1.
</event>
<event>
 7    1  0.2530765E-009  0.9072020E+02  0.7561462E-02  0.1301117E+00
          2   -1    0    0  501    0  0.00000000000E+00  0.00000000000E+00  0.34163300734E+03  0.34163300734E+03  0.00000000000E+00 0. -1.
         -2   -1    0    0    0  501 -0.00000000000E+00 -0.00000000000E+00 -0.46230889857E+02  0.46230889857E+02  0.00000000000E+00 0.  1.
         25    2    1    2    0    0 -0.11851249867E+02 -0.60181342123E+02  0.19093579519E+03  0.23635885656E+03  0.12508711015E+03 0.  0.
          5    1    3    3  502    0 -0.49794424345E+02 -0.35666472874E+01  0.14665655136E+03  0.15497684384E+03  0.41800000000E+01 0. -1.
         -5    1    3    3    0  502  0.37943174477E+02 -0.56614694836E+02  0.44279243829E+02  0.81382012722E+02  0.41800000000E+01 0. -1.
        -11    1    1    2    0    0  0.15304342552E+02  0.46607657953E+02  0.12056702125E+03  0.13016490807E+03  0.00000000000E+00 0. -1.
         11    1    1    2    0    0 -0.34530926843E+01  0.13573684170E+02 -0.16100698955E+02  0.21340132565E+02  0.00000000000E+00 0.  1.
</event>
<event>
 7    1  0.2580654E-009  0.1172779E+03  0.7561462E-02  0.1247656E+00
          1   -1    0    0  501    0  0.00000000000E+00  0.00000000000E+00  0.18364977635E+03  0.18364977635E+03  0.00000000000E+00 0. -1.
         -1   -1    0    0    0  501 -0.00000000000E+00 -0.00000000000E+00 -0.10677597637E+03  0.10677597637E+03  0.00000000000E+00 0.  1.
         25    2    1    2    0    0 -0.79549484484E+02  0.29400565268E+02  0.66286152543E+02  0.16502939713E+03  0.12509330189E+03 0.  0.
          5    1    3    3  502    0 -0.23324565382E+02 -0.41696509869E+02 -0.69015532902E+01  0.48453463481E+02  0.41800000000E+01 0. -1.
         -5    1    3    3    0  502 -0.56224919102E+02  0.71097075137E+02  0.73187705834E+02  0.11657593365E+03  0.41800000000E+01 0. -1.
        -11    1    1    2    0    0  0.28846967989E+02 -0.34417154739E+02 -0.35072384444E+02  0.56980349710E+02  0.00000000000E+00 0.  1.
         11    1    1    2    0    0  0.50702516495E+02  0.50165894703E+01  0.45660031879E+02  0.68416005876E+02  0.00000000000E+00 0. -1.
</event>
<event>
 7    1  0.2530765E-009  0.8278170E+02  0.7561462E-02  0.1321338E+00
         -4   -1    0    0    0  501 -0.00000000000E+00  0.00000000000E+00  0.45683329542E+02  0.45683329542E+02  0.00000000000E+00 0.  1.
          4   -1    0    0  501    0  0.00000000000E+00 -0.00000000000E+00 -0.33894424969E+03  0.33894424969E+03  0.00000000000E+00 0. -1.
         25    2    1    2    0    0 -0.39491674589E+02 -0.27568625924E+02 -0.10259211904E+03  0.16879489637E+03  0.12508777980E+03 0.  0.
          5    1    3    3  502    0 -0.34636012675E+02  0.25940582915E+01  0.21410784406E+02  0.41015565354E+02  0.41800000000E+01 0. -1.
         -5    1    3    3    0  502 -0.48556619141E+01 -0.30162684216E+02 -0.12400290345E+03  0.12777933102E+03  0.41800000000E+01 0. -1.
        -11    1    1    2    0    0 -0.13994248459E+02  0.42062333513E+02 -0.67273785948E+02  0.80565756785E+02  0.00000000000E+00 0. -1.
         11    1    1    2    0    0  0.53485923049E+02 -0.14493707589E+02 -0.12339501516E+03  0.13526692608E+03  0.00000000000E+00 0.  1.
</event>
<event>
 7    1  0.2530765E-009  0.1485293E+03  0.7561462E-02  0.1202292E+00
          3   -1    0    0  501    0  0.00000000000E+00  0.00000000000E+00  0.84236514103E+02  0.84236514103E+02  0.00000000000E+00 0. -1.
         -3   -1    0    0    0  501 -0.00000000000E+00 -0.00000000000E+00 -0.33265545125E+03  0.33265545125E+03  0.00000000000E+00 0.  1.
         25    2    1    2    0    0  0.10324890602E+03  0.65499259665E+02 -0.89630710202E+02  0.19654961550E+03  0.12509035746E+03 0.  0.
          5    1    3    3  502    0  0.58327377175E+02 -0.32258414375E+02 -0.27350516376E+02  0.72167938672E+02  0.41800000000E+01 0.  1.
         -5    1    3    3    0  502  0.44921528847E+02  0.97757674039E+02 -0.62280193826E+02  0.12438167683E+03  0.41800000000E+01 0.  1.
        -11    1    1    2    0    0 -0.45903599290E+02 -0.23817201881E+02 -0.13659418615E+03  0.14605605508E+03  0.00000000000E+00 0.  1.
         11    1    1    2    0    0 -0.57345306732E+02 -0.41682057784E+02 -0.22194040790E+02  0.74286294778E+02  0.00000000000E+00 0. -1.
</event>
<event>
 7    1  0.2530765E-009  0.3171868E+03  0.7561462E-02  0.1076951E+00
          1   -1    0    0  501    0  0.00000000000E+00  0.00000000000E+00  0.24621669337E+03  0.24621669337E+03  0.00000000000E+00 0. -1.
         -1   -1    0    0    0  501 -0.00000000000E+00 -0.00000000000E+00 -0.47836751648E+03  0.47836751648E+03  0.00000000000E+00 0.  1.
         25    2    1    2    0    0 -0.22190680232E+03 -0.22035764122E+03 -0.25500360279E+02  0.33778419032E+03  0.12509105442E+03 0.  0.
          5    1    3    3  502    0 -0.16584603538E+02 -0.26325134638E+02  0.36897736754E+02  0.48445610387E+02  0.41800000000E+01 0.  1.
         -5    1    3    3    0  502 -0.20532219878E+03 -0.19403250658E+03 -0.62398097033E+02  0.28933857993E+03  0.41800000000E+01 0.  1.
        -11    1    1    2    0    0  0.92630194633E+02  0.14117404822E+03 -0.70290299057E+02  0.18289666752E+03  0.00000000000E+00 0.  1.
         11    1    1    2    0    0  0.12927660769E+03  0.79183593000E+02 -0.13636016377E+03  0.20390335201E+03  0.00000000000E+00 0. -1.
</event>
<event>
 7    1  0.2530765E-009  0.2363953E+03  0.7561462E-02  0.1122218E+00
          1   -1    0    0  501    0  0.00000000000E+00  0.00000000000E+00  0.44966672849E+03  0.44966672849E+03  0.00000000000E+00 0. -1.
         -1   -1    0    0    0  501 -0.00000000000E+00 -0.00000000000E+00 -0.19985881079E+03  0.19985881079E+03  0.00000000000E+00 0.  1.
         25    2    1    2    0    0  0.21619166814E+03 -0.67576642443E+02 -0.49424246772E+02  0.26343159033E+03  0.12509199271E+03 0.  0.
          5    1    3    3  502    0  0.17459396248E+03 -0.13212188943E+02 -0.74609574780E+02  0.19037246314E+03  0.41800000000E+01 0. -1.
         -5    1    3    3    0  502  0.41597705655E+02 -0.54364453500E+02  0.25185328007E+02  0.73059127198E+02  0.41800000000E+01 0. -1.
        -11    1    1    2    0    0 -0.70839305499E+02  0.39228561715E+02  0.47072631382E+02  0.93663866475E+02  0.00000000000E+00 0.  1.
         11    1    1    2    0    0 -0.14535236264E+03  0.28348080728E+02  0.25215953309E+03  0.29243008247E+03  0.00000000000E+00 0. -1.
</event>
<event>
 7    1  0.2530765E-009  0.1128456E+03  0.7561462E-02  0.1255389E+00
         -2   -1    0    0    0  501 -0.00000000000E+00  0.00000000000E+00  0.27151064313E+02  0.27151064313E+02  0.00000000000E+00 0.  1.
          2   -1    0    0  501    0  0.00000000000E+00 -0.00000000000E+00 -0.65159476759E+03  0.65159476759E+03  0.00000000000E+00 0. -1.
         25    2    1    2    0    0 -0.23923366683E+02 -0.52165200304E+02 -0.47507902010E+03  0.49461148228E+03  0.12508759916E+03 0.  0.
          5    1    3    3  502    0 -0.73787521970E+02 -0.24260754475E+02 -0.31906437623E+03  0.32840939571E+03  0.41800000000E+01 0. -1.
         -5    1    3    3    0  502  0.49864155287E+02 -0.27904445829E+02 -0.15601464387E+03  0.16620208657E+03  0.41800000000E+01 0. -1.
        -11    1    1    2    0    0  0.44553731627E+02  0.13110365635E+02 -0.12574317979E+03  0.13404575321E+03  0.00000000000E+00 0. -1.
         11    1    1    2    0    0 -0.20630364943E+02  0.39054834670E+02 -0.23621503380E+02  0.50088596414E+02  0.00000000000E+00 0.  1.
</event>
<event>
 7    1  0.2530765E-009  0.9548287E+02  0.7561462E-02  0.1290092E+00
         -2   -1    0    0    0  501 -0.00000000000E+00  0.00000000000E+00  0.31826368465E+02  0.31826368465E+02  0.00000000000E+00 0.  1.
          2   -1    0    0  501    0  0.00000000000E+00 -0.00000000000E+00 -0.44416540640E+03  0.44416540640E+03  0.00000000000E+00 0. -1.
         25    2    1    2    0    0  0.32781984547E+02 -0.61279285591E+01 -0.30200617769E+03  0.32858676898E+03  0.12509725562E+03 0.  0.
          5    1    3    3  502    0  0.61121992802E+02  0.87925825265E+01 -0.28584678557E+03  0.29247062200E+03  0.41800000000E+01 0.  1.
         -5    1    3    3    0  502 -0.28340008255E+02 -0.14920511086E+02 -0.16159392123E+02  0.36116146981E+02  0.41800000000E+01 0.  1.
        -11    1    1    2    0    0  0.29677539764E+02 -0.11573573722E+02 -0.46464873454E+02  0.56335498935E+02  0.00000000000E+00 0.  1.
         11    1    1    2    0    0 -0.62459524310E+02  0.17701502281E+02 -0.63867986791E+02  0.91069506954E+02  0.00000000000E+00 0. -1.
</event>
<event>
 7    1  0.2530765E-009  0.1847333E+03  0.7561462E-02  0.1163299E+00
          3   -1    0    0  501    0  0.00000000000E+00  0.00000000000E+00  0.60118453278E+03  0.60118453278E+03  0.00000000000E+00 0. -1.
         -3   -1    0    0    0  501 -0.00000000000E+00 -0.00000000000E+00 -0.68811778777E+02  0.68811778777E+02  0.00000000000E+00 0.  1.
         25    2    1    2    0    0 -0.16250921491E+03 -0.50649537320E+02  0.30537045952E+03  0.37130991936E+03  0.12508124604E+03 0.  0.
          5    1    3    3  502    0 -0.34631240016E+02  0.28021150045E+02  0.14429202171E+03  0.15107007501E+03  0.41800000000E+01 0. -1.
         -5    1    3    3    0  502 -0.12787797490E+03 -0.78670687365E+02  0.16107843781E+03  0.22023984435E+03  0.41800000000E+01 0. -1.
        -11    1    1    2    0    0  0.85191352473E+02  0.46595370672E+02  0.58791965562E+02  0.11351295221E+03  0.00000000000E+00 0.  1.
         11    1    1    2    0    0  0.77317862439E+02  0.40541666474E+01  0.16821032892E+03  0.18517343998E+03  0.00000000000E+00 0. -1.
</event>
<event>
 7    1  0.2530765E-009  0.2132042E+03  0.7561462E-02  0.1139053E+00
          2   -1    0    0  501    0  0.00000000000E+00  0.00000000000E+00  0.21823478804E+03  0.21823478804E+03  0.00000000000E+00 0. -1.
         -2   -1    0    0    0  501 -0.00000000000E+00 -0.00000000000E+00 -0.31741306461E+03  0.31741306461E+03  0.00000000000E+00 0.  1.
         25    2    1    2    0    0 -0.18531628362E+03  0.70617890702E+02  0.85998878822E+02  0.24974447278E+03  0.12508989992E+03 0.  0.
          5    1    3    3  502    0  0.79751565011E+01  0.36890427211E+01  0.38498544407E+02  0.39709224103E+02  0.41800000000E+01 0.  1.
         -5    1    3    3    0  502 -0.19329144012E+03  0.66928847981E+02  0.47500334416E+02  0.21003524868E+03  0.41800000000E+01 0.  1.
        -11    1    1    2    0    0  0.10617672523E+03 -0.79226768438E+02 -0.14611124069E+03  0.19722797082E+03  0.00000000000E+00 0.  1.
         11    1    1    2    0    0  0.79139558393E+02  0.86088777359E+01 -0.39065914707E+02  0.88675409051E+02  0.00000000000E+00 0. -1.
</event>
<event>
 7    1  0.2530765E-009  0.1101127E+03  0.7561462E-02  0.1260361E+00
         -2   -1    0    0    0  501 -0.00000000000E+00  0.00000000000E+00  0.92347133235E+02  0.92347133235E+02  0.00000000000E+00 0. -1.
          2   -1    0    0  501    0  0.00000000000E+00 -0.00000000000E+00 -0.33909946076E+03  0.33909946076E+03  0.00000000000E+00 0.  1.
         25    2    1    2    0    0 -0.57560803810E+01 -0.73231654909E+02 -0.27946034982E+03  0.31486707664E+03  0.12508869287E+03 0.  0.
          5    1    3    3  502    0 -0.67345292372E+01  0.34197582013E+02 -0.96089536147E+02  0.10230102569E+03  0.41800000000E+01 0. -1.
         -5    1    3    3    0  502  0.97844885620E+00 -0.10742923692E+03 -0.18337081368E+03  0.21256605095E+03  0.41800000000E+01 0. -1.
        -11    1    1    2    0    0  0.10902769093E+02  0.12215270472E+02  0.50276970278E+02  0.52875863557E+02  0.00000000000E+00 0. -1.
         11    1    1    2    0    0 -0.51466887121E+01  0.61016384436E+02 -0.17568947978E+02  0.63703653800E+02  0.00000000000E+00 0.  1.
</event>
<event>
 7    1  0.2530765E-009  0.3985949E+02  0.7561462E-02  0.1509248E+00
          1   -1    0    0  501    0  0.00000000000E+00  0.00000000000E+00  0.15836851284E+03  0.15836851284E+03  0.00000000000E+00 0. -1.
         -1   -1    0    0    0  501 -0.00000000000E+00 -0.00000000000E+00 -0.76326670979E+02  0.76326670979E+02  0.00000000000E+00 0.  1.
         25    2    1    2    0    0 -0.94094537771E+00  0.14401702094E+02  0.40686068154E+02  0.13232982759E+03  0.12509009844E+03 0.  0.
          5    1    3    3  502    0  0.65462792889E+01 -0.89988092564E+01 -0.43207420490E+02  0.44812787527E+02  0.41800000000E+01 0.  1.
         -5    1    3    3    0  502 -0.74872246666E+01  0.23400511350E+02  0.83893488643E+02  0.87517040063E+02  0.41800000000E+01 0.  1.
        -11    1    1    2    0    0  0.19069085969E+02 -0.15748612714E+02 -0.24039967890E+02  0.34490127548E+02  0.00000000000E+00 0.  1.
         11    1    1    2    0    0 -0.18128140592E+02  0.13469106197E+01  0.65395741598E+02  0.67875228683E+02  0.00000000000E+00 0. -1.
</event>
<event>
 7    1  0.2530765E-009  0.1073611E+03  0.7561462E-02  0.1265536E+00
          1   -1    0    0  501    0  0.00000000000E+00  0.00000000000E+00  0.17910343554E+03  0.17910343554E+03  0.00000000000E+00 0. -1.
         -1   -1    0    0    0  501 -0.00000000000E+00 -0.00000000000E+00 -0.72088590938E+02  0.72088590938E+02  0.00000000000E+00 0.  1.
         25    2    1    2    0    0 -0.15143668812E+02  0.22869638781E+02  0.80409631861E+02  0.15121317787E+03  0.12508942874E+03 0.  0.
          5    1    3    3  502    0 -0.58476416922E+02  0.49430624579E+02  0.53954600330E+02  0.93762728624E+02  0.41800000000E+01 0. -1.
         -5    1    3    3    0  502  0.43332748110E+02 -0.26560985797E+02  0.26455031532E+02  0.57450449246E+02  0.41800000000E+01 0. -1.
        -11    1    1    2    0    0  0.26928779907E+02  0.25602841544E+02 -0.95558878433E+01  0.38366387306E+02  0.00000000000E+00 0. -1.
         11    1    1    2    0    0 -0.11785111095E+02 -0.48472480326E+02  0.36161100588E+02  0.61612461306E+02  0.00000000000E+00 0.  1.
</event>
<event>
 7    1  0.2530765E-009  0.2148654E+03  0.7561462E-02  0.1137770E+00
         -1   -1    0    0    0  501 -0.00000000000E+00  0.00000000000E+00  0.82758261384E+02  0.82758261384E+02  0.00000000000E+00 0.  1.
          1   -1    0    0  501    0  0.00000000000E+00 -0.00000000000E+00 -0.61675350228E+03  0.61675350228E+03  0.00000000000E+00 0. -1.
         25    2    1    2    0    0 -0.18047632880E+03  0.81587983639E+02 -0.28111484519E+03  0.36592311088E+03  0.12508342239E+03 0.  0.
          5    1    3    3  502    0 -0.29782035208E+02  0.69994296776E+02 -0.13854516475E+03  0.15810884313E+03  0.41800000000E+01 0. -1.
         -5    1    3    3    0  502 -0.15069429360E+03  0.11593686862E+02 -0.14256968045E+03  0.20781426775E+03  0.41800000000E+01 0. -1.
        -11    1    1    2    0    0  0.85055019156E+02 -0.61179275521E+02 -0.69093540897E+02  0.12550369489E+03  0.00000000000E+00 0.  1.
         11    1    1    2    0    0  0.95421309649E+02 -0.20408708118E+02 -0.18378685481E+03  0.20808495790E+03  0.00000000000E+00 0. -1.
</event>
<event>
 7    1  0.2530765E-009  0.1007600E+03  0.7561462E-02  0.1278706E+00
         -2   -1    0    0    0  501 -0.00000000000E+00  0.00000000000E+00  0.15926899018E+03  0.15926899018E+03  0.00000000000E+00 0.  1.
          2   -1    0    0  501    0  0.00000000000E+00 -0.00000000000E+00 -0.83815299423E+02  0.83815299423E+02  0.00000000000E+00 0. -1.
         25    2    1    2    0    0 -0.23968642583E+02  0.28127695711E+02  0.52626609664E+02  0.14065434606E+03  0.12509365263E+03 0.  0.
          5    1    3    3  502    0 -0.43020236901E+02  0.54160552887E+02  0.74275608120E+02  0.10157974519E+03  0.41800000000E+01 0.  1.
         -5    1    3    3    0  502  0.19051594318E+02 -0.26032857176E+02 -0.21648998456E+02  0.39074600867E+02  0.41800000000E+01 0.  1.
        -11    1    1    2    0    0 -0.22673268097E+02  0.21743412748E+02  0.45416577341E+01  0.31740821337E+02  0.00000000000E+00 0.  1.
         11    1    1    2    0    0  0.46641910680E+02 -0.49871108460E+02  0.18285423361E+02  0.70689122207E+02  0.00000000000E+00 0. -1.
</event>
<event>
 7    1  0.2530765E-009  0.1358232E+03  0.7561462E-02  0.1219062E+00
          1   -1    0    0  501    0  0.00000000000E+00  0.00000000000E+00  0.77681212827E+02  0.77681212827E+02  0.00000000000E+00 0. -1.
         -1   -1    0    0    0  501 -0.00000000000E+00 -0.00000000000E+00 -0.23956321685E+03  0.23956321685E+03  0.00000000000E+00 0.  1.
         25    2    1    2    0    0 -0.25541110694E+02 -0.79121874562E+02 -0.96804279334E+02  0.17869393050E+03  0.12509129838E+03 0.  0.
          5    1    3    3  502    0 -0.35574272947E+02  0.25628458186E+02 -0.20127091372E+02  0.48424363411E+02  0.41800000000E+01 0. -1.
         -5    1    3    3    0  502  0.10033162253E+02 -0.10475033275E+03 -0.76677187962E+02  0.13026956709E+03  0.41800000000E+01 0. -1.
        -11    1    1    2    0    0  0.40088384438E+02 -0.17440397513E+01 -0.22684385444E+02  0.46094485402E+02  0.00000000000E+00 0.  1.
         11    1    1    2    0    0 -0.14547273744E+02  0.80865914314E+02 -0.42393339247E+02  0.92456013778E+02  0.00000000000E+00 0. -1.
</event>
<event>
 7    1  0.2530765E-009  0.7571538E+02  0.7561462E-02  0.1341670E+00
          1   -1    0    0  501    0  0.00000000000E+00  0.00000000000E+00  0.11684720876E+04  0.11684720876E+04  0.00000000000E+00 0. -1.
         -1   -1    0    0    0  501 -0.00000000000E+00 -0.00000000000E+00 -0.11543145097E+02  0.11543145097E+02  0.00000000000E+00 0.  1.
         25    2    1    2    0    0 -0.38889641015E+02  0.16051602326E+02  0.59856713916E+03  0.61294133979E+03  0.12507760718E+03 0.  0.
          5    1    3    3  502    0 -0.22301972086E+02 -0.70693635888E+01  0.57571902798E+03  0.57620935904E+03  0.41800000000E+01 0.  1.
         -5    1    3    3    0  502 -0.16587668929E+02  0.23120965915E+02  0.22848111183E+02  0.36731980752E+02  0.41800000000E+01 0.  1.
        -11    1    1    2    0    0 -0.21963078421E+02 -0.29307430382E+02  0.19367199782E+03  0.19710440135E+03  0.00000000000E+00 0.  1.
         11    1    1    2    0    0  0.60852719436E+02  0.13255828056E+02  0.36468980551E+03  0.36996949156E+03  0.00000000000E+00 0. -1.
</event>
<event>
 7    1  0.2953857E-009  0.1174510E+03  0.7561462E-02  0.1247362E+00
         -1   -1    0    0    0  501 -0.00000000000E+00  0.00000000000E+00  0.12610682273E+03  0.12610682273E+03  0.00000000000E+00 0.  1.
          1   -1    0    0  501    0  0.00000000000E+00 -0.00000000000E+00 -0.18841621658E+03  0.18841621658E+03  0.00000000000E+00 0. -1.
         25    2    1    2    0    0  0.94051666507E+01 -0.10204481373E+03  0.42831330150E+01  0.16176369311E+03  0.12509015154E+03 0.  0.
          5    1    3    3  502    0  0.32398109743E+02 -0.10396312821E+03 -0.36327158707E+02  0.11486994560E+03  0.41800000000E+01 0.  1.
         -5    1    3    3    0  502 -0.22992943092E+02  0.19183144786E+01  0.40610291722E+02  0.46893747518E+02  0.41800000000E+01 0.  1.
        -11    1    1    2    0    0 -0.68986533002E+01  0.71908771245E+02  0.76030119509E+01  0.72637928041E+02  0.00000000000E+00 0.  1.
         11    1    1    2    0    0 -0.25065133505E+01  0.30136042483E+02 -0.74195538824E+02  0.80121418154E+02  0.00000000000E+00 0. -1.
</event>
<event>
 7    1  0.2530765E-009  0.1059384E+03  0.7561462E-02  0.1268282E+00
          1   -1    0    0  501    0  0.00000000000E+00  0.00000000000E+00  0.36995795276E+03  0.36995795276E+03  0.00000000000E+00 0. -1.
         -1   -1    0    0    0  501 -0.00000000000E+00 -0.00000000000E+00 -0.39027917209E+02  0.39027917209E+02  0.00000000000E+00 0.  1.
         25    2    1    2    0    0 -0.57583396009E+02  0.12672541242E+01  0.17987602504E+03  0.22654280318E+03  0.12509517920E+03 0.  0.
          5    1    3    3  502    0 -0.82679944984E+02 -0.64810718619E+01  0.56753173210E+02  0.10058018028E+03  0.41800000000E+01 0. -1.
         -5    1    3    3    0  502  0.25096548976E+02  0.77483259861E+01  0.12312285183E+03  0.12596262291E+03  0.41800000000E+01 0. -1.
        -11    1    1    2    0    0  0.68100420276E+02  0.26094468037E+02  0.10460483118E+03  0.12751768195E+03  0.00000000000E+00 0.  1.
         11    1    1    2    0    0 -0.10517024267E+02 -0.27361722161E+02  0.46449179330E+02  0.54925384837E+02  0.00000000000E+00 0. -1.
</event>
<event>
 7    1  0.2530765E-009  0.1639378E+03  0.7561462E-02  0.1184321E+00
         -1   -1    0    0    0  501 -0.00000000000E+00  0.00000000000E+00  0.20631334451E+03  0.20631334451E+03  0.00000000000E+00 0.  1.
          1   -1    0    0  501    0  0.00000000000E+00 -0.00000000000E+00 -0.13767930720E+03  0.13767930720E+03  0.00000000000E+00 0. -1.
         25    2    1    2    0    0 -0.11531138270E+03 -0.41445368550E+02  0.75601659832E+02  0.19072839875E+03  0.12508907853E+03 0.  0.
          5    1    3    3  502    0 -0.10722660878E+01 -0.59248923741E+02  0.24943154268E+02  0.64429946950E+02  0.41800000000E+01 0.  1.
         -5    1    3    3    0  502 -0.11423911661E+03  0.17803555191E+02  0.50658505564E+02  0.12629845180E+03  0.41800000000E+01 0.  1.
        -11    1    1    2    0    0 -0.14614839188E+02  0.13462819630E+02  0.24733635299E+01  0.20023949761E+02  0.00000000000E+00 0.  1.
         11    1    1    2    0    0  0.12992622189E+03  0.27982548920E+02 -0.94409860457E+01  0.13324030320E+03  0.00000000000E+00 0. -1.
</event>
<event>
 7    1  0.2530765E-009  0.1107178E+03  0.7561462E-02  0.1259246E+00
          1   -1    0    0  501    0  0.00000000000E+00  0.00000000000E+00  0.20408851510E+03  0.20408851510E+03  0.00000000000E+00 0. -1.
         -1   -1    0    0    0  501 -0.00000000000E+00 -0.00000000000E+00 -0.90867781284E+02  0.90867781284E+02  0.00000000000E+00 0.  1.
         25    2    1    2    0    0  0.66994757554E+02 -0.46462855181E+02  0.66276682432E+02  0.16336421305E+03  0.12509265774E+03 0.  0.
          5    1    3    3  502    0  0.81826302984E+02 -0.65015258394E+02  0.83410075532E+02  0.13378056953E+03  0.41800000000E+01 0. -1.
         -5    1    3    3    0  502 -0.14831545430E+02  0.18552403214E+02 -0.17133393099E+02  0.29583643520E+02  0.41800000000E+01 0. -1.
        -11    1    1    2    0    0 -0.19724980338E+02  0.40540717646E+02  0.66294973629E+02  0.80172614807E+02  0.00000000000E+00 0. -1.
         11    1    1    2    0    0 -0.47269777216E+02  0.59221375352E+01 -0.19350922250E+02  0.51419468520E+02  0.00000000000E+00 0.  1.
</event>
<event>
 7    1  0.2530765E-009  0.1014599E+03  0.7561462E-02  0.1277256E+00
          1   -1    0    0  501    0  0.00000000000E+00  0.00000000000E+00  0.12787774109E+04  0.12787774109E+04  0.00000000000E+00 0. -1.
         -1   -1    0    0    0  501 -0.00000000000E+00 -0.00000000000E+00 -0.18225517018E+02  0.18225517018E+02  0.00000000000E+00 0.  1.
         25    2    1    2    0    0  0.88965050771E+01  0.49316476896E+02  0.10847232360E+04  0.10930607201E+04  0.12508387769E+03 0.  0.
          5    1    3    3  502    0  0.42528388733E+02  0.55612827525E+02  0.32157237488E+03  0.32913175951E+03  0.41800000000E+01 0.  1.
         -5    1    3    3    0  502 -0.33631883655E+02 -0.62963506297E+01  0.76315086107E+03  0.76392896056E+03  0.41800000000E+01 0.  1.
        -11    1    1    2    0    0  0.37398258833E+02 -0.30819683244E+02  0.55411556827E+02  0.73613336216E+02  0.00000000000E+00 0.  1.
         11    1    1    2    0    0 -0.46294763910E+02 -0.18496793652E+02  0.12041710106E+03  0.13032887159E+03  0.00000000000E+00 0. -1.
</event>
<event>
 7    1  0.2530765E-009  0.1508823E+03  0.7561462E-02  0.1199393E+00
         -1   -1    0    0    0  501 -0.00000000000E+00  0.00000000000E+00  0.25415205296E+02  0.25415205296E+02  0.00000000000E+00 0.  1.
          1   -1    0    0  501    0  0.00000000000E+00 -0.00000000000E+00 -0.96569373514E+03  0.96569373514E+03  0.00000000000E+00 0. -1.
         25    2    1    2    0    0  0.68521295186E+02 -0.86978977710E+02 -0.55942572807E+03  0.58383592920E+03  0.12508691595E+03 0.  0.
          5    1    3    3  502    0 -0.30898805628E+02 -0.13882051519E+02 -0.56789849177E+02  0.66257127263E+02  0.41800000000E+01 0.  1.
         -5    1    3    3    0  502  0.99420100814E+02 -0.73096926191E+02 -0.50263587889E+03  0.51757880194E+03  0.41800000000E+01 0.  1.
        -11    1    1    2    0    0 -0.72932121245E+02  0.18102135679E+02 -0.20736328605E+03  0.22055909419E+03  0.00000000000E+00 0.  1.
         11    1    1    2    0    0  0.44108260592E+01  0.68876842031E+02 -0.17348951572E+03  0.18671391705E+03  0.00000000000E+00 0. -1.
</event>
<event>
 7    1  0.2530765E-009  0.1031620E+03  0.7561462E-02  0.1273784E+00
          4   -1    0    0  501    0  0.00000000000E+00  0.00000000000E+00  0.40810659272E+02  0.40810659272E+02  0.00000000000E+00 0. -1.
         -4   -1    0    0    0  501 -0.00000000000E+00 -0.00000000000E+00 -0.29964352039E+03  0.29964352039E+03  0.00000000000E+00 0.  1.
         25    2    1    2    0    0  0.13251225565E+02  0.10543739582E+02 -0.12751592207E+03  0.17942870745E+03  0.12509030839E+03 0.  0.
          5    1    3    3  502    0  0.32417824061E+02  0.57581026300E+02 -0.37783573698E+02  0.76233593304E+02  0.41800000000E+01 0. -1.
         -5    1    3    3    0  502 -0.19166598497E+02 -0.47037286718E+02 -0.89732348369E+02  0.10319511415E+03  0.41800000000E+01 0. -1.
        -11    1    1    2    0    0 -0.93653428591E+01 -0.49308216650E+02 -0.49935239237E+02  0.70799279613E+02  0.00000000000E+00 0. -1.
         11    1    1    2    0    0 -0.38858827055E+01  0.38764477067E+02 -0.81381699816E+02  0.90226192603E+02  0.00000000000E+00 0.  1.
</event>
<event>
 7    1  0.2530765E-009  0.1249765E+03  0.7561462E-02  0.1235106E+00
         -4   -1    0    0    0  501 -0.00000000000E+00  0.00000000000E+00  0.21198049407E+02  0.21198049407E+02  0.00000000000E+00 0. -1.
          4   -1    0    0  501    0  0.00000000000E+00 -0.00000000000E+00 -0.89386399095E+03  0.89386399095E+03  0.00000000000E+00 0.  1.
         25    2    1    2    0    0 -0.63519737825E+02 -0.15408561915E+02 -0.29794885985E+03  0.32968580529E+03  0.12508807398E+03 0.  0.
          5    1    3    3  502    0  0.35610569662E+02 -0.17595307219E+02 -0.11204420428E+03  0.11894992064E+03  0.41800000000E+01 0. -1.
         -5    1    3    3    0  502 -0.99130307486E+02  0.21867453040E+01 -0.18590465557E+03  0.21073588465E+03  0.41800000000E+01 0. -1.
        -11    1    1    2    0    0  0.58497899499E+02 -0.29546482053E+02 -0.31433921503E+03  0.32109833533E+03  0.00000000000E+00 0. -1.
         11    1    1    2    0    0  0.50218383253E+01  0.44955043968E+02 -0.26037786667E+03  0.26427789973E+03  0.00000000000E+00 0.  1.
</event>
<event>
 7    1  0.2530765E-009  0.1087342E+03  0.7561462E-02  0.1262932E+00
          1   -1    0    0  501    0  0.00000000000E+00  0.00000000000E+00  0.12265438547E+03  0.12265438547E+03  0.00000000000E+00 0. -1.
         -1   -1    0    0    0  501 -0.00000000000E+00 -0.00000000000E+00 -0.15037177166E+03  0.15037177166E+03  0.00000000000E+00 0.  1.
         25    2    1    2    0    0 -0.19894865456E+02 -0.20581295064E+02 -0.92557526181E+02  0.15822076202E+03  0.12509004159E+03 0.  0.
          5    1    3    3  502    0  0.41283477968E+02 -0.44322697840E+02 -0.57868670977E+02  0.83875399120E+02  0.41800000000E+01 0.  1.
         -5    1    3    3    0  502 -0.61178343423E+02  0.23741402776E+02 -0.34688855205E+02  0.74345362903E+02  0.41800000000E+01 0.  1.
        -11    1    1    2    0    0  0.54252887015E+02  0.13713066471E+02  0.23710993579E+02  0.60775284104E+02  0.00000000000E+00 0.  1.
         11    1    1    2    0    0 -0.34358021559E+02  0.68682285927E+01  0.41129146412E+02  0.54030110994E+02  0.00000000000E+00 0. -1.
</event>
<event>
 7    1  0.2530765E-009  0.1321953E+03  0.7561462E-02  0.1224234E+00
         -2   -1    0    0    0  501 -0.00000000000E+00  0.00000000000E+00  0.31087121470E+03  0.31087121470E+03  0.00000000000E+00 0.  1.
          2   -1    0    0  501    0  0.00000000000E+00 -0.00000000000E+00 -0.77115044884E+02  0.77115044884E+02  0.00000000000E+00 0. -1.
         25    2    1    2    0    0  0.85844144969E+02 -0.55644498911E+02  0.84438183130E+02  0.18232797596E+03  0.12509259196E+03 0.  0.
          5    1    3    3  502    0  0.31149713254E+02 -0.72516701150E+02  0.95415552079E+02  0.12389744372E+03  0.41800000000E+01 0. -1.
         -5    1    3    3    0  502  0.54694431716E+02  0.16872202239E+02 -0.10977368949E+02  0.58430532243E+02  0.41800000000E+01 0. -1.
        -11    1    1    2    0    0 -0.17709718926E+02  0.57133539204E+02  0.26979822145E+02  0.65618490148E+02  0.00000000000E+00 0. -1.
         11    1    1    2    0    0 -0.68134426043E+02 -0.14890402929E+01  0.12233816454E+03  0.14003979348E+03  0.00000000000E+00 0.  1.
</event>
<event>
 7    1  0.3413926E-009  0.1195342E+03  0.7561462E-02  0.1243868E+00
          2   -1    0    0  501    0  0.00000000000E+00  0.00000000000E+00  0.80216113843E+03  0.80216113843E+03  0.00000000000E+00 0. -1.
         -2   -1    0    0    0  501 -0.00000000000E+00 -0.00000000000E+00 -0.22576122835E+02  0.22576122835E+02  0.00000000000E+00 0.  1.
         25    2    1    2    0    0  0.62627551953E+01 -0.72599980887E+02  0.52334915316E+03  0.54300177813E+03  0.12508643258E+03 0.  0.
          5    1    3    3  502    0 -0.52221583740E+02 -0.42798638770E+02  0.37014361145E+03  0.37627461087E+03  0.41800000000E+01 0.  1.
         -5    1    3    3    0  502  0.58484338935E+02 -0.29801342117E+02  0.15320554170E+03  0.16672716726E+03  0.41800000000E+01 0.  1.
        -11    1    1    2    0    0  0.33560802274E+02  0.18046770923E+02  0.40211496300E+02  0.55398355794E+02  0.00000000000E+00 0.  1.
         11    1    1    2    0    0 -0.39823557470E+02  0.54553209964E+02  0.21602436614E+03  0.22633712734E+03  0.00000000000E+00 0. -1.
</event>
<event>
 7    1  0.2530765E-009  0.1248491E+03  0.7561462E-02  0.1235305E+00
         -3   -1    0    0    0  501 -0.00000000000E+00  0.00000000000E+00  0.71992633600E+02  0.71992633600E+02  0.00000000000E+00 0.  1.
          3   -1    0    0  501    0  0.00000000000E+00 -0.00000000000E+00 -0.23200966922E+03  0.23200966922E+03  0.00000000000E+00 0. -1.
         25    2    1    2    0    0  0.53808131149E+02 -0.44923907305E+02 -0.10000693402E+03  0.17482221228E+03  0.12509175284E+03 0.  0.
          5    1    3    3  502    0  0.91772261446E+02 -0.49769801192E+02 -0.67082576417E+02  0.12416410729E+03  0.41800000000E+01 0.  1.
         -5    1    3    3    0  502 -0.37964130296E+02  0.48458938863E+01 -0.32924357607E+02  0.50658104984E+02  0.41800000000E+01 0.  1.
        -11    1    1    2    0    0 -0.40385690195E+02 -0.16659148353E+02 -0.48204067259E+02  0.65055078946E+02  0.00000000000E+00 0. -1.
         11    1    1    2    0    0 -0.13422440954E+02  0.61583055659E+02 -0.11806034338E+02  0.64125011596E+02  0.00000000000E+00 0.  1.
</event>
<event>
 7    1  0.2530765E-009  0.8159136E+02  0.7561462E-02  0.1324595E+00
          3   -1    0    0  501    0  0.00000000000E+00  0.00000000000E+00  0.37708203118E+02  0.37708203118E+02  0.00000000000E+00 0. -1.
         -3   -1    0    0    0  501 -0.00000000000E+00 -0.00000000000E+00 -0.40724252244E+03  0.40724252244E+03  0.00000000000E+00 0.  1.
         25    2    1    2    0    0 -0.51944714712E+02  0.23930368315E+02 -0.16318155904E+03  0.21341182054E+03  0.12508184529E+03 0.  0.
          5    1    3    3  502    0 -0.45872092902E+02  0.32415353018E+01 -0.17994950075E+03  0.18577957820E+03  0.41800000000E+01 0.  1.
         -5    1    3    3    0  502 -0.60726218106E+01  0.20688833013E+02  0.16767941713E+02  0.27632242334E+02  0.41800000000E+01 0.  1.
        -11    1    1    2    0    0  0.49525936666E+02  0.18259274856E+02 -0.16153189035E+03  0.16993755065E+03  0.00000000000E+00 0.  1.
         11    1    1    2    0    0  0.24187780461E+01 -0.42189643171E+02 -0.44820869929E+02  0.61601354363E+02  0.00000000000E+00 0. -1.
</event>
<event>
 7    1  0.2530765E-009  0.2831984E+03  0.7561462E-02  0.1093955E+00
          1   -1    0    0  501    0  0.00000000000E+00  0.00000000000E+00  0.11842026955E+04  0.11842026955E+04  0.00000000000E+00 0. -1.
         -1   -1    0    0    0  501 -0.00000000000E+00 -0.00000000000E+00 -0.15704613402E+03  0.15704613402E+03  0.00000000000E+00 0.  1.
         25    2    1    2    0    0 -0.63084943242E+02  0.25382216060E+03  0.10237147730E+04  0.10639778221E+04  0.12510583546E+03 0.  0.
          5    1    3    3  502    0 -0.25796858452E+01  0.22008463683E+03  0.75422934062E+03  0.78569922540E+03  0.41800000000E+01 0. -1.
         -5    1    3    3    0  502 -0.60505257397E+02  0.33737523775E+02  0.26948543241E+03  0.27827859667E+03  0.41800000000E+01 0. -1.
        -11    1    1    2    0    0  0.74327690016E+02 -0.11097415159E+03 -0.57224821356E+01  0.13368849848E+03  0.00000000000E+00 0.  1.
         11    1    1    2    0    0 -0.11242746774E+02 -0.14284800901E+03  0.91642706066E+01  0.14358250900E+03  0.00000000000E+00 0. -1.
</event>
<event>
 7    1  0.2530765E-009  0.1975964E+03  0.7561462E-02  0.1151783E+00
         -1   -1    0    0    0  501 -0.00000000000E+00  0.00000000000E+00  0.45081998187E+02  0.45081998187E+02  0.00000000000E+00 0.  1.
          1   -1    0    0  501    0  0.00000000000E+00 -0.00000000000E+00 -0.12968690785E+04  0.12968690785E+04  0.00000000000E+00 0. -1.
         25    2    1    2    0    0  0.20336930687E+02  0.18635711155E+03 -0.94114139577E+03  0.96774915321E+03  0.12509489574E+03 0.  0.
          5    1    3    3  502    0 -0.35691068678E+01  0.16930583266E+02 -0.88538241946E+01  0.19880789130E+02  0.41800000000E+01 0.  1.
         -5    1    3    3    0  502  0.23906037555E+02  0.16942652828E+03 -0.93228757157E+03  0.94786836408E+03  0.41800000000E+01 0.  1.
        -11    1    1    2    0    0  0.19999659411E+02 -0.15182752541E+03 -0.20415130510E+03  0.25520450470E+03  0.00000000000E+00 0.  1.
         11    1    1    2    0    0 -0.40336590098E+02 -0.34529586140E+02 -0.10649437942E+03  0.11899741875E+03  0.00000000000E+00 0. -1.
</event>
<event>
 7    1  0.2530765E-009  0.2474358E+03  0.7561462E-02  0.1114936E+00
         -1   -1    0    0    0  501 -0.00000000000E+00  0.00000000000E+00  0.96559776313E+02  0.96559776313E+02  0.00000000000E+00 0.  1.
          1   -1    0    0  501    0  0.00000000000E+00 -0.00000000000E+00 -0.71644199318E+03  0.71644199318E+03  0.00000000000E+00 0. -1.
         25    2    1    2    0    0 -0.12270987088E+03 -0.20470028370E+03 -0.33453054985E+03  0.42955575710E+03  0.12509013198E+03 0.  0.
          5    1    3    3  502    0 -0.86899331986E+02 -0.20084815618E+03 -0.22380984684E+03  0.31304919051E+03  0.41800000000E+01 0.  1.
         -5    1    3    3    0  502 -0.35810538896E+02 -0.38521275174E+01 -0.11072070301E+03  0.11650656659E+03  0.41800000000E+01 0.  1.
        -11    1    1    2    0    0  0.28983167375E+02  0.31553196488E+02 -0.84289488826E+01  0.43665494145E+02  0.00000000000E+00 0.  1.
         11    1    1    2    0    0  0.93726703506E+02  0.17314708721E+03 -0.27692271813E+03  0.33978051824E+03  0.00000000000E+00 0. -1.
</event>
<event>
 7    1  0.2530765E-009  0.1185637E+03  0.7561462E-02  0.1245485E+00
         -2   -1    0    0    0  501 -0.00000000000E+00  0.00000000000E+00  0.10590741413E+03  0.10590741413E+03  0.00000000000E+00 0.  1.
          2   -1    0    0  501    0  0.00000000000E+00 -0.00000000000E+00 -0.17742315419E+03  0.17742315419E+03  0.00000000000E+00 0. -1.
         25    2    1    2    0    0  0.19158935571E+02  0.73746781132E+02 -0.28150251791E+02  0.14915110985E+03  0.12509182369E+03 0.  0.
          5    1    3    3  502    0  0.66033908223E+02  0.23100425236E+02 -0.37335999958E+02  0.79407530967E+02  0.41800000000E+01 0. -1.
         -5    1    3    3    0  502 -0.46874972652E+02  0.50646355896E+02  0.91857481669E+01  0.69743578887E+02  0.41800000000E+01 0. -1.
        -11    1    1    2    0    0 -0.58934859295E+01  0.10812972444E+02  0.22853848716E+02  0.25960584558E+02  0.00000000000E+00 0.  1.
         11    1    1    2    0    0 -0.13265449642E+02 -0.84559753575E+02 -0.66219336983E+02  0.10821887391E+03  0.00000000000E+00 0. -1.
</event>
<event>
 7    1  0.2530765E-009  0.1630783E+03  0.7561462E-02  0.1185265E+00
          2   -1    0    0  501    0  0.00000000000E+00  0.00000000000E+00  0.10437063664E+04  0.10437063664E+04  0.00000000000E+00 0. -1.
         -2   -1    0    0    0  501 -0.00000000000E+00 -0.00000000000E+00 -0.29269031738E+02  0.29269031738E+02  0.00000000000E+00 0.  1.
         25    2    1    2    0    0 -0.10983595507E+03  0.81242482470E+02  0.51834606987E+03  0.55044778247E+03  0.12508331258E+03 0.  0.
          5    1    3    3  502    0 -0.20378446611E+02  0.81391921311E+02  0.15581252465E+03  0.17701678219E+03  0.41800000000E+01 0. -1.
         -5    1    3    3    0  502 -0.89457508461E+02 -0.14943884047E+00  0.36253354523E+03  0.37343100027E+03  0.41800000000E+01 0. -1.
        -11    1    1    2    0    0 -0.71693806593E+01 -0.18469829864E+02  0.19552158932E+02  0.27835616630E+02  0.00000000000E+00 0.  1.
         11    1    1    2    0    0  0.11700533573E+03 -0.62772652606E+02  0.47653910586E+03  0.49469199904E+03  0.00000000000E+00 0. -1.
</event>
<event>
 7    1  0.2530765E-009  0.8612871E+02  0.7561462E-02  0.1312507E+00
         -1   -1    0    0    0  501 -0.00000000000E+00  0.00000000000E+00  0.18544466844E+03  0.18544466844E+03  0.00000000000E+00 0.  1.
          1   -1    0    0  501    0  0.00000000000E+00 -0.00000000000E+00 -0.10055830027E+03  0.10055830027E+03  0.00000000000E+00 0. -1.
         25    2    1    2    0    0  0.39238716221E+02 -0.18585408434E+02 -0.27259601313E+02  0.13518539932E+03  0.12508761756E+03 0.  0.
          5    1    3    3  502    0 -0.42391250560E+02 -0.19630469273E+02 -0.25579997906E+02  0.53424546238E+02  0.41800000000E+01 0.  1.
         -5    1    3    3    0  502  0.81629966781E+02  0.10450608389E+01 -0.16796034069E+01  0.81760853081E+02  0.41800000000E+01 0.  1.
        -11    1    1    2    0    0 -0.13623828336E+02  0.43220669258E+01 -0.14773463442E+02  0.20555879527E+02  0.00000000000E+00 0. -1.
         11    1    1    2    0    0 -0.25614887886E+02  0.14263341508E+02  0.12691943293E+03  0.13026168987E+03  0.00000000000E+00 0.  1.
</event>
<event>
 7    1  0.2530765E-009  0.1081369E+03  0.7561462E-02  0.1264059E+00
         -2   -1    0    0    0  501 -0.00000000000E+00  0.00000000000E+00  0.38597556552E+02  0.38597556552E+02  0.00000000000E+00 0.  1.
          2   -1    0    0  501    0  0.00000000000E+00 -0.00000000000E+00 -0.43309539423E+03  0.43309539423E+03  0.00000000000E+00 0. -1.
         25    2    1    2    0    0 -0.51230908011E+02 -0.40449643728E+02 -0.25606622980E+03  0.29236520818E+03  0.12508685502E+03 0.  0.
          5    1    3    3  502    0 -0.60287491136E+02  0.18967364730E+00 -0.40437552803E+02  0.72713723878E+02  0.41800000000E+01 0. -1.
         -5    1    3    3    0  502  0.90565831247E+01 -0.40639317375E+02 -0.21562867700E+03  0.21965148431E+03  0.41800000000E+01 0. -1.
        -11    1    1    2    0    0 -0.16354245935E+02 -0.18230406656E+02 -0.29942133130E+02  0.38682559679E+02  0.00000000000E+00 0.  1.
         11    1    1    2    0    0  0.67585153946E+02  0.58680050384E+02 -0.10848947475E+03  0.14064518292E+03  0.00000000000E+00 0. -1.
</event>
<event>
 7    1  0.2530765E-009  0.8217657E+02  0.7561462E-02  0.1322986E+00
          2   -1    0    0  501    0  0.00000000000E+00  0.00000000000E+00  0.12198832777E+03  0.12198832777E+03  0.00000000000E+00 0.  1.
         -2   -1    0    0    0  501 -0.00000000000E+00 -0.00000000000E+00 -0.12377735040E+03  0.12377735040E+03  0.00000000000E+00 0. -1.
         25    2    1    2    0    0 -0.17224219176E+02 -0.53728099975E+02 -0.11445925672E+02  0.13770154557E+03  0.12508926407E+03 0.  0.
          5    1    3    3  502    0  0.25486443385E+02 -0.29610462732E+02 -0.57928492899E+02  0.69996578411E+02  0.41800000000E+01 0.  1.
         -5    1    3    3    0  502 -0.42710662561E+02 -0.24117637244E+02  0.46482567228E+02  0.67704967164E+02  0.41800000000E+01 0.  1.
        -11    1    1    2    0    0 -0.15105670497E+02  0.35822718681E+02  0.43225919280E+02  0.58137152945E+02  0.00000000000E+00 0.  1.
         11    1    1    2    0    0  0.32329889673E+02  0.17905381294E+02 -0.33569016244E+02  0.49926979652E+02  0.00000000000E+00 0. -1.
</event>
<event>
 7    1  0.2530765E-009  0.7636236E+02  0.7561462E-02  0.1339703E+00
         -2   -1    0    0    0  501 -0.00000000000E+00  0.00000000000E+00  0.20180516858E+02  0.20180516858E+02  0.00000000000E+00 0.  1.
          2   -1    0    0  501    0  0.00000000000E+00 -0.00000000000E+00 -0.76435868145E+03  0.76435868145E+03  0.00000000000E+00 0. -1.
         25    2    1    2    0    0 -0.27216343488E+02  0.79034686581E+01 -0.58032438223E+03  0.59432887337E+03  0.12508887615E+03 0.  0.
          5    1    3    3  502    0 -0.40290833051E+01  0.26182102923E+02 -0.55371114078E+03  0.55436020406E+03  0.41800000000E+01 0. -1.
         -5    1    3    3    0  502 -0.23187260183E+02 -0.18278634265E+02 -0.26613241453E+02  0.39968669305E+02  0.41800000000E+01 0. -1.
        -11    1    1    2    0    0  0.16149706601E+01  0.40923316484E+02 -0.79670204511E+02  0.89580508198E+02  0.00000000000E+00 0.  1.
         11    1    1    2    0    0  0.25601372828E+02 -0.48826785142E+02 -0.84183577843E+02  0.10062981674E+03  0.00000000000E+00 0. -1.
</event>
<event>
 7    1  0.2530765E-009  0.1140619E+03  0.7561462E-02  0.1253228E+00
          1   -1    0    0  501    0  0.00000000000E+00  0.00000000000E+00  0.30551742944E+02  0.30551742944E+02  0.00000000000E+00 0. -1.
         -1   -1    0    0    0  501 -0.00000000000E+00 -0.00000000000E+00 -0.49528708576E+03  0.49528708576E+03  0.00000000000E+00 0.  1.
         25    2    1    2    0    0 -0.56075053294E+02  0.13499305253E+02 -0.22784609161E+03  0.26624798727E+03  0.12508999329E+03 0.  0.
          5    1    3    3  502    0  0.24801474841E+02  0.41835549554E+02 -0.11122948364E+03  0.12146932448E+03  0.41800000000E+01 0. -1.
         -5    1    3    3    0  502 -0.80876528135E+02 -0.28336244301E+02 -0.11661660797E+03  0.14477866279E+03  0.41800000000E+01 0. -1.
        -11    1    1    2    0    0  0.11949352069E+02  0.29543687960E+02 -0.30198953664E+02  0.43904365563E+02  0.00000000000E+00 0. -1.
         11    1    1    2    0    0  0.44125701225E+02 -0.43042993213E+02 -0.20669029754E+03  0.21568647587E+03  0.00000000000E+00 0.  1.
</event>
<event>
 7    1  0.2530765E-009  0.2317819E+03  0.7561462E-02  0.1125392E+00
          2   -1    0    0  501    0  0.00000000000E+00  0.00000000000E+00  0.11108443668E+04  0.11108443668E+04  0.00000000000E+00 0. -1.
         -2   -1    0    0    0  501 -0.00000000000E+00 -0.00000000000E+00 -0.53220072199E+02  0.53220072199E+02  0.00000000000E+00 0.  1.
         25    2    1    2    0    0 -0.14603950889E+03  0.15114840400E+03  0.68336331801E+03  0.72581534407E+03  0.12509640720E+03 0.  0.
          5    1    3    3  502    0 -0.13786957010E+03  0.71413086166E+02  0.34984150303E+03  0.38277199072E+03  0.41800000000E+01 0. -1.
         -5    1    3    3    0  502 -0.81699387867E+01  0.79735317833E+02  0.33352181498E+03  0.34304335335E+03  0.41800000000E+01 0. -1.
        -11    1    1    2    0    0  0.36266660252E+02  0.55160849799E+01  0.63140362278E+02  0.73023305787E+02  0.00000000000E+00 0. -1.
         11    1    1    2    0    0  0.10977284864E+03 -0.15666448898E+03  0.31112061430E+03  0.36522578913E+03  0.00000000000E+00 0.  1.
</event>
<event>
 7    1  0.2530765E-009  0.9474405E+02  0.7561462E-02  0.1291754E+00
          1   -1    0    0  501    0  0.00000000000E+00  0.00000000000E+00  0.29762796148E+02  0.29762796148E+02  0.00000000000E+00 0. -1.
         -1   -1    0    0    0  501 -0.00000000000E+00 -0.00000000000E+00 -0.57291579509E+03  0.57291579509E+03  0.00000000000E+00 0.  1.
         25    2    1    2    0    0 -0.51489563308E+02  0.44146704223E+02 -0.25200778769E+03  0.28940376590E+03  0.12508600257E+03 0.  0.
          5    1    3    3  502    0 -0.17126214916E+02  0.40920966794E+02 -0.10990991422E+02  0.45892341988E+02  0.41800000000E+01 0.  1.
         -5    1    3    3    0  502 -0.34363348392E+02  0.32257374290E+01 -0.24101679627E+03  0.24351142391E+03  0.41800000000E+01 0.  1.
        -11    1    1    2    0    0  0.55804926994E+02  0.92737662641E+01 -0.10147695008E+03  0.11617987784E+03  0.00000000000E+00 0. -1.
         11    1    1    2    0    0 -0.43153636863E+01 -0.53420470487E+02 -0.18966826117E+03  0.19709494749E+03  0.00000000000E+00 0.  1.
</event>
<event>
 7    1  0.2530765E-009  0.9321516E+02  0.7561462E-02  0.1295247E+00
          1   -1    0    0  501    0  0.00000000000E+00  0.00000000000E+00  0.49607210567E+03  0.49607210567E+03  0.00000000000E+00 0. -1.
         -1   -1    0    0    0  501 -0.00000000000E+00 -0.00000000000E+00 -0.31047654680E+02  0.31047654680E+02  0.00000000000E+00 0.  1.
         25    2    1    2    0    0 -0.56118646141E+02  0.13197016037E+01  0.31476899209E+03  0.34333409064E+03  0.12509090836E+03 0.  0.
          5    1    3    3  502    0 -0.52639322518E+02 -0.44767969499E+02  0.27042867730E+03  0.27914908432E+03  0.41800000000E+01 0.  1.
         -5    1    3    3    0  502 -0.34793236237E+01  0.46087671102E+02  0.44340314792E+02  0.64185006320E+02  0.41800000000E+01 0.  1.
        -11    1    1    2    0    0  0.38626619635E+02 -0.21404481886E+02  0.16087609345E+02  0.46999774081E+02  0.00000000000E+00 0.  1.
         11    1    1    2    0    0  0.17492026507E+02  0.20084780283E+02  0.13416784956E+03  0.13678589564E+03  0.00000000000E+00 0. -1.
</event>
<event>
 7    1  0.2530765E-009  0.1154814E+03  0.7561462E-02  0.1250743E+00
         -1   -1    0    0    0  501 -0.00000000000E+00  0.00000000000E+00  0.18888218302E+03  0.18888218302E+03  0.00000000000E+00 0.  1.
          1   -1    0    0  501    0  0.00000000000E+00 -0.00000000000E+00 -0.10905538086E+03  0.10905538086E+03  0.00000000000E+00 0. -1.
         25    2    1    2    0    0  0.21735591790E+01  0.93366939560E+02  0.35537812964E+02  0.16009331522E+03  0.12507926953E+03 0.  0.
          5    1    3    3  502    0  0.25986808657E+02  0.20345945150E+02  0.68698950524E+02  0.76330137634E+02  0.41800000000E+01 0.  1.
         -5    1    3    3    0  502 -0.23813249478E+02  0.73020994410E+02 -0.33161137560E+02  0.83763177588E+02  0.41800000000E+01 0.  1.
        -11    1    1    2    0    0 -0.26138768221E+02 -0.93214237183E+02  0.11878892022E+02  0.97535825692E+02  0.00000000000E+00 0.  1.
         11    1    1    2    0    0  0.23965209042E+02 -0.15270237745E+00  0.32410097183E+02  0.40308422964E+02  0.00000000000E+00 0. -1.
</event>
<event>
 7    1  0.2530765E-009  0.9550258E+02  0.7561462E-02  0.1290048E+00
         -2   -1    0    0    0  501 -0.00000000000E+00  0.00000000000E+00  0.34686961347E+02  0.34686961347E+02  0.00000000000E+00 0. -1.
          2   -1    0    0  501    0  0.00000000000E+00 -0.00000000000E+00 -0.46658751366E+03  0.46658751366E+03  0.00000000000E+00 0.  1.
         25    2    1    2    0    0 -0.53002592501E+02  0.21121601669E+02 -0.17254312625E+03  0.22062022186E+03  0.12508698976E+03 0.  0.
          5    1    3    3  502    0 -0.40399552878E+02 -0.29826003354E+02 -0.12188436133E+02  0.51843463659E+02  0.41800000000E+01 0. -1.
         -5    1    3    3    0  502 -0.12603039623E+02  0.50947605023E+02 -0.16035469012E+03  0.16877675820E+03  0.41800000000E+01 0. -1.
        -11    1    1    2    0    0  0.37402073454E+02  0.21107347726E+02 -0.20787444314E+03  0.21226450325E+03  0.00000000000E+00 0.  1.
         11    1    1    2    0    0  0.15600519047E+02 -0.42228949395E+02 -0.51482982926E+02  0.68389749908E+02  0.00000000000E+00 0. -1.
</event>
<event>
 7    1  0.2530765E-009  0.9781807E+02  0.7561462E-02  0.1284952E+00
         -4   -1    0    0    0  501 -0.00000000000E+00  0.00000000000E+00  0.64613869125E+02  0.64613869125E+02  0.00000000000E+00 0.  1.
          4   -1    0    0  501    0  0.00000000000E+00 -0.00000000000E+00 -0.30013591615E+03  0.30013591615E+03  0.00000000000E+00 0. -1.
         25    2    1    2    0    0  0.82597653912E+02 -0.82708699067E+01 -0.95551180767E+02  0.17795541749E+03  0.12508925912E+03 0.  0.
          5    1    3    3  502    0  0.56042747200E+02  0.17035710773E+02  0.15660171272E+02  0.60775968273E+02  0.41800000000E+01 0.  1.
         -5    1    3    3    0  502  0.26554906712E+02 -0.25306580679E+02 -0.11121135204E+03  0.11717944921E+03  0.41800000000E+01 0.  1.
        -11    1    1    2    0    0 -0.63261007001E+02  0.30752166614E+02 -0.14051377728E+03  0.15713615868E+03  0.00000000000E+00 0. -1.
         11    1    1    2    0    0 -0.19336646911E+02 -0.22481296707E+02  0.54291101910E+00  0.29658209112E+02  0.00000000000E+00 0.  1.
</event>
<event>
 7    1  0.2530765E-009  0.1115670E+03  0.7561462E-02  0.1257695E+00
          1   -1    0    0  501    0  0.00000000000E+00  0.00000000000E+00  0.39584273145E+03  0.39584273145E+03  0.00000000000E+00 0. -1.
         -1   -1    0    0    0  501 -0.00000000000E+00 -0.00000000000E+00 -0.34046512594E+02  0.34046512594E+02  0.00000000000E+00 0.  1.
         25    2    1    2    0    0 -0.77445242648E+01 -0.38710244246E+02  0.20467562471E+03  0.24310113102E+03  0.12509031893E+03 0.  0.
          5    1    3    3  502    0 -0.19505177562E+02  0.42455170284E+02  0.54230711342E+02  0.71703109334E+02  0.41800000000E+01 0. -1.
         -5    1    3    3    0  502  0.11760653297E+02 -0.81165414530E+02  0.15044491336E+03  0.17139802169E+03  0.41800000000E+01 0. -1.
        -11    1    1    2    0    0 -0.33507624789E+02  0.40806852715E+02  0.12060256813E+03  0.13165462236E+03  0.00000000000E+00 0. -1.
         11    1    1    2    0    0  0.41252149054E+02 -0.20966084692E+01  0.36518026021E+02  0.55133490667E+02  0.00000000000E+00 0.  1.
</event>
<event>
 7    1  0.2530765E-009  0.1416901E+03  0.7561462E-02  0.1211073E+00
         -1   -1    0    0    0  501 -0.00000000000E+00  0.00000000000E+00  0.36861338322E+03  0.36861338322E+03  0.00000000000E+00 0.  1.
          1   -1    0    0  501    0  0.00000000000E+00 -0.00000000000E+00 -0.80514687196E+02  0.80514687196E+02  0.00000000000E+00 0. -1.
         25    2    1    2    0    0 -0.10056116994E+03 -0.72235586916E+02  0.22110306763E+03  0.28260197188E+03  0.12508708600E+03 0.  0.
          5    1    3    3  502    0 -0.87127292660E+02 -0.35362660584E+01  0.57312855084E+02  0.10443134616E+03  0.41800000000E+01 0. -1.
         -5    1    3    3    0  502 -0.13433877279E+02 -0.68699320857E+02  0.16379021254E+03  0.17817062572E+03  0.41800000000E+01 0. -1.
        -11    1    1    2    0    0  0.52132502752E+02  0.51480912702E+02  0.83714623010E+02  0.11124846211E+03  0.00000000000E+00 0.  1.
         11    1    1    2    0    0  0.48428667187E+02  0.20754674214E+02 -0.16718994614E+02  0.55277636420E+02  0.00000000000E+00 0. -1.
</event>
<event>
 7    1  0.2530765E-009  0.9781816E+02  0.7561462E-02  0.1284952E+00
         -1   -1    0    0    0  501 -0.00000000000E+00  0.00000000000E+00  0.51211046376E+02  0.51211046376E+02  0.00000000000E+00 0.  1.
          1   -1    0    0  501    0  0.00000000000E+00 -0.00000000000E+00 -0.25839615370E+03  0.25839615370E+03  0.00000000000E+00 0. -1.
         25    2    1    2    0    0  0.31101302825E+02  0.15866944762E+02 -0.13945515108E+03  0.19056192961E+03  0.12508820440E+03 0.  0.
          5    1    3    3  502    0  0.51474217059E+02  0.42182656102E+02 -0.24870134364E+02  0.71168584930E+02  0.41800000000E+01 0.  1.
         -5    1    3    3    0  502 -0.20372914234E+02 -0.26315711340E+02 -0.11458501672E+03  0.11939334468E+03  0.41800000000E+01 0.  1.
        -11    1    1    2    0    0  0.23294635004E+02 -0.31163092836E+02 -0.41046451404E+02  0.56556074368E+02  0.00000000000E+00 0.  1.
         11    1    1    2    0    0 -0.54395937829E+02  0.15296148075E+02 -0.26683504834E+02  0.62489196094E+02  0.00000000000E+00 0. -1.
</event>
<event>
 7    1  0.2530765E-009  0.1696162E+03  0.7561462E-02  0.1178249E+00
          2   -1    0    0  501    0  0.00000000000E+00  0.00000000000E+00  0.22472702984E+03  0.22472702984E+03  0.00000000000E+00 0. -1.
         -2   -1    0    0    0  501 -0.00000000000E+00 -0.00000000000E+00 -0.13260674544E+03  0.13260674544E+03  0.00000000000E+00 0.  1.
         25    2    1    2    0    0 -0.63965524456E+02 -0.11770501020E+03  0.48497580445E+02  0.18958832428E+03  0.12508261129E+03 0.  0.
          5    1    3    3  502    0  0.32447950266E+02 -0.50226552222E+02  0.38865856595E+02  0.71439507511E+02  0.41800000000E+01 0. -1.
         -5    1    3    3    0  502 -0.96413474722E+02 -0.67478457982E+02  0.96317238497E+01  0.11814881677E+03  0.41800000000E+01 0. -1.
        -11    1    1    2    0    0  0.11616662808E+02  0.10759299579E+03  0.23377406066E+02  0.11071450995E+03  0.00000000000E+00 0.  1.
         11    1    1    2    0    0  0.52348861648E+02  0.10112014411E+02  0.20245297885E+02  0.57030941056E+02  0.00000000000E+00 0. -1.
</event>
<event>
 7    1  0.2530765E-009  0.1823909E+03  0.7561462E-02  0.1165509E+00
         -1   -1    0    0    0  501 -0.00000000000E+00  0.00000000000E+00  0.14211586063E+03  0.14211586063E+03  0.00000000000E+00 0.  1.
          1   -1    0    0  501    0  0.00000000000E+00 -0.00000000000E+00 -0.31714060805E+03  0.31714060805E+03  0.00000000000E+00 0. -1.
         25    2    1    2    0    0  0.49059036926E+02  0.16220688648E+03 -0.17959333789E+02  0.21139543556E+03  0.12509048476E+03 0.  0.
          5    1    3    3  502    0 -0.13499257617E+02  0.78296827814E+02 -0.58837877287E+02  0.98954491589E+02  0.41800000000E+01 0. -1.
         -5    1    3    3    0  502  0.62558294543E+02  0.83910058671E+02  0.40878543498E+02  0.11244094397E+03  0.41800000000E+01 0. -1.
        -11    1    1    2    0    0  0.12829394119E+02 -0.56884798418E+02 -0.14446550663E+02  0.60076421919E+02  0.00000000000E+00 0.  1.
         11    1    1    2    0    0 -0.61888431045E+02 -0.10532208807E+03 -0.14261886297E+03  0.18778461120E+03  0.00000000000E+00 0. -1.
</event>
<event>
 7    1  0.2530765E-009  0.8666448E+02  0.7561462E-02  0.1311136E+00
         -1   -1    0    0    0  501 -0.00000000000E+00  0.00000000000E+00  0.40017381533E+03  0.40017381533E+03  0.00000000000E+00 0.  1.
          1   -1    0    0  501    0  0.00000000000E+00 -0.00000000000E+00 -0.36657483510E+02  0.36657483510E+02  0.00000000000E+00 0. -1.
         25    2    1    2    0    0 -0.25429326469E+01  0.48088617652E+02  0.16011364335E+03  0.20881318390E+03  0.12509030868E+03 0.  0.
          5    1    3    3  502    0 -0.33702236078E+02  0.51045578009E+02  0.18966600265E+02  0.64177068152E+02  0.41800000000E+01 0. -1.
         -5    1    3    3    0  502  0.31159303432E+02 -0.29569603575E+01  0.14114704309E+03  0.14463611574E+03  0.41800000000E+01 0. -1.
        -11    1    1    2    0    0 -0.25244590620E+02 -0.40015131956E+00  0.10447087518E+02  0.27323819540E+02  0.00000000000E+00 0. -1.
         11    1    1    2    0    0  0.27787523267E+02 -0.47688466332E+02  0.19295560095E+03  0.20069429540E+03  0.00000000000E+00 0.  1.
</event>
<event>
 7    1  0.2530765E-009  0.1134654E+03  0.7561462E-02  0.1254284E+00
          1   -1    0    0  501    0  0.00000000000E+00  0.00000000000E+00  0.69144747102E+02  0.69144747102E+02  0.00000000000E+00 0. -1.
         -1   -1    0    0    0  501 -0.00000000000E+00 -0.00000000000E+00 -0.26831345704E+03  0.26831345704E+03  0.00000000000E+00 0.  1.
         25    2    1    2    0    0 -0.67998294312E+02 -0.30651141897E+02 -0.14312606105E+03  0.20420197015E+03  0.12510041858E+03 0.  0.
          5    1    3    3  502    0  0.29748494697E+02  0.43897803998E+00 -0.25767350378E+01  0.30154230249E+02  0.41800000000E+01 0.  1.
         -5    1    3    3    0  502 -0.97746789009E+02 -0.31090119937E+02 -0.14054932602E+03  0.17404773990E+03  0.41800000000E+01 0.  1.
        -11    1    1    2    0    0  0.40134423997E+02 -0.13221914778E+02 -0.67874184444E+02  0.79953085831E+02  0.00000000000E+00 0.  1.
         11    1    1    2    0    0  0.27863870316E+02  0.43873056675E+02  0.11831535557E+02  0.53303148168E+02  0.00000000000E+00 0. -1.
</event>
<event>
 7    1  0.2530765E-009  0.1615549E+03  0.7561462E-02  0.1186952E+00
          2   -1    0    0  501    0  0.00000000000E+00  0.00000000000E+00  0.71013424599E+03  0.71013424599E+03  0.00000000000E+00 0. -1.
         -2   -1    0    0    0  501 -0.00000000000E+00 -0.00000000000E+00 -0.38670470931E+02  0.38670470931E+02  0.00000000000E+00 0.  1.
         25    2    1    2    0    0  0.33174015233E+02 -0.11719072491E+03  0.38049451230E+03  0.41863743809E+03  0.12508816644E+03 0.  0.
          5    1    3    3  502    0  0.12116915934E+02 -0.13770644353E+03  0.25951559934E+03  0.29406751426E+03  0.41800000000E+01 0. -1.
         -5    1    3    3    0  502  0.21057099299E+02  0.20515718618E+02  0.12097891296E+03  0.12456992383E+03  0.41800000000E+01 0. -1.
        -11    1    1    2    0    0  0.31425409544E+02  0.64508140565E+02  0.15260896715E+03  0.16863674991E+03  0.00000000000E+00 0. -1.
         11    1    1    2    0    0 -0.64599424776E+02  0.52682584348E+02  0.13836029560E+03  0.16153052892E+03  0.00000000000E+00 0.  1.
</event>
<event>
 7    1  0.2530765E-009  0.1918293E+03  0.7561462E-02  0.1156822E+00
          2   -1    0    0  501    0  0.00000000000E+00  0.00000000000E+00  0.61604222853E+03  0.61604222853E+03  0.00000000000E+00 0. -1.
         -2   -1    0    0    0  501 -0.00000000000E+00 -0.00000000000E+00 -0.78475739836E+02  0.78475739836E+02  0.00000000000E+00 0.  1.
         25    2    1    2    0    0  0.11037829141E+03 -0.14250181924E+03  0.40105391513E+03  0.45714312891E+03  0.12508182030E+03 0.  0.
          5    1    3    3  502    0  0.23128254680E+02  0.75885902160E+01  0.14915063536E+03  0.15118163676E+03  0.41800000000E+01 0. -1.
         -5    1    3    3    0  502  0.87250036733E+02 -0.15009040946E+03  0.25190327977E+03  0.30596149216E+03  0.41800000000E+01 0. -1.
        -11    1    1    2    0    0 -0.37323270864E+02  0.83271588214E+02  0.31820758735E+02  0.96642354266E+02  0.00000000000E+00 0.  1.
         11    1    1    2    0    0 -0.73055020549E+02  0.59230231026E+02  0.10469181483E+03  0.14073248519E+03  0.00000000000E+00 0. -1.
</event>
<event>
 7    1  0.2530765E-009  0.1198367E+03  0.7561462E-02  0.1243367E+00
         -2   -1    0    0    0  501 -0.00000000000E+00  0.00000000000E+00  0.11180917808E+03  0.11180917808E+03  0.00000000000E+00 0.  1.
          2   -1    0    0  501    0  0.00000000000E+00 -0.00000000000E+00 -0.17887683589E+03  0.17887683589E+03  0.00000000000E+00 0. -1.
         25    2    1    2    0    0  0.78094617612E+02 -0.36779222564E+02 -0.42710954981E+01  0.15204551939E+03  0.12509243462E+03 0.  0.
          5    1    3    3  502    0  0.55335597477E+02 -0.83235604108E+02 -0.10205528971E+01  0.10004353086E+03  0.41800000000E+01 0. -1.
         -5    1    3    3    0  502  0.22759020135E+02  0.46456381544E+02 -0.32505426011E+01  0.52001988528E+02  0.41800000000E+01 0. -1.
        -11    1    1    2    0    0 -0.36198282444E+02  0.25713901953E+02 -0.80417954797E+02  0.91861677860E+02  0.00000000000E+00 0. -1.
         11    1    1    2    0    0 -0.41896335167E+02  0.11065320612E+02  0.17621392482E+02  0.46778816720E+02  0.00000000000E+00 0.  1.
</event>
<event>
 7    1  0.2530765E-009  0.8985473E+02  0.7561462E-02  0.1303204E+00
         -2   -1    0    0    0  501 -0.00000000000E+00  0.00000000000E+00  0.26524073298E+03  0.26524073298E+03  0.00000000000E+00 0.  1.
          2   -1    0    0  501    0  0.00000000000E+00 -0.00000000000E+00 -0.57822106124E+02  0.57822106124E+02  0.00000000000E+00 0. -1.
         25    2    1    2    0    0  0.18609487625E+02  0.23445044094E+02  0.48311507936E+02  0.13739453329E+03  0.12508905971E+03 0.  0.
          5    1    3    3  502    0 -0.12007356289E+02  0.44750153275E+02 -0.26612252861E+02  0.53595123150E+02  0.41800000000E+01 0. -1.
         -5    1    3    3    0  502  0.30616843914E+02 -0.21305109181E+02  0.74923760798E+02  0.83799410144E+02  0.41800000000E+01 0. -1.
        -11    1    1    2    0    0 -0.36548096525E+02  0.24809751227E+02  0.76188871568E+02  0.88068332937E+02  0.00000000000E+00 0. -1.
         11    1    1    2    0    0  0.17938608900E+02 -0.48254795321E+02  0.82918247351E+02  0.97599972872E+02  0.00000000000E+00 0.  1.
</event>
<event>
 7    1  0.2530765E-009  0.2141852E+03  0.7561462E-02  0.1138294E+00
         -1   -1    0    0    0  501 -0.00000000000E+00  0.00000000000E+00  0.11444491466E+04  0.11444491466E+04  0.00000000000E+00 0.  1.
          1   -1    0    0  501    0  0.00000000000E+00 -0.00000000000E+00 -0.47276581762E+02  0.47276581762E+02  0.00000000000E+00 0. -1.
         25    2    1    2    0    0  0.19208164450E+03  0.44703637108E+02  0.72250729924E+03  0.75931370456E+03  0.12508689440E+03 0.  0.
          5    1    3    3  502    0  0.84729035072E+02  0.63107228274E+02  0.20734462848E+03  0.23274621158E+03  0.41800000000E+01 0. -1.
         -5    1    3    3    0  502  0.10735260943E+03 -0.18403591166E+02  0.51516267076E+03  0.52656749298E+03  0.41800000000E+01 0. -1.
        -11    1    1    2    0    0 -0.10051268545E+03 -0.65198008161E+02  0.17877162081E+03  0.21520425788E+03  0.00000000000E+00 0. -1.
         11    1    1    2    0    0 -0.91568959052E+02  0.20494371053E+02  0.19589364478E+03  0.21720776591E+03  0.00000000000E+00 0.  1.
</event>
<event>
 7    1  0.2530765E-009  0.1065234E+03  0.7561462E-02  0.1267147E+00
          2   -1    0    0  501    0  0.00000000000E+00  0.00000000000E+00  0.72127606105E+03  0.72127606105E+03  0.00000000000E+00 0. -1.
         -2   -1    0    0    0  501 -0.00000000000E+00 -0.00000000000E+00 -0.18057200850E+02  0.18057200850E+02  0.00000000000E+00 0.  1.
         25    2    1    2    0    0  0.15149769355E+02 -0.33367177692E+02  0.39989103573E+03  0.42059912204E+03  0.12509155426E+03 0.  0.
          5    1    3    3  502    0 -0.27431194954E+02  0.33255471223E+02  0.21738792262E+03  0.22166050194E+03  0.41800000000E+01 0.  1.
         -5    1    3    3    0  502  0.42580964309E+02 -0.66622648914E+02  0.18250311311E+03  0.19893862010E+03  0.41800000000E+01 0.  1.
        -11    1    1    2    0    0  0.16769225399E+01  0.59474003636E+02  0.13448740354E+03  0.14706063678E+03  0.00000000000E+00 0.  1.
         11    1    1    2    0    0 -0.16826691895E+02 -0.26106825944E+02  0.16884042093E+03  0.17167350308E+03  0.00000000000E+00 0. -1.
</event>
<event>
 7    1  0.2530765E-009  0.1161117E+03  0.7561462E-02  0.1249653E+00
          2   -1    0    0  501    0  0.00000000000E+00  0.00000000000E+00  0.94879619374E+03  0.94879619374E+03  0.00000000000E+00 0. -1.
         -2   -1    0    0    0  501 -0.00000000000E+00 -0.00000000000E+00 -0.17154602594E+02  0.17154602594E+02  0.00000000000E+00 0.  1.
         25    2    1    2    0    0  0.50104798825E+02 -0.20085181933E+02  0.66554815953E+03  0.67934963280E+03  0.12509062930E+03 0.  0.
          5    1    3    3  502    0 -0.31605488126E+02 -0.30083249830E+02  0.12302394251E+03  0.13059966168E+03  0.41800000000E+01 0. -1.
         -5    1    3    3    0  502  0.81710286951E+02  0.99980678973E+01  0.54252421702E+03  0.54874997113E+03  0.41800000000E+01 0. -1.
        -11    1    1    2    0    0 -0.53567841708E+02  0.51529843947E+02  0.19885414856E+03  0.21229180597E+03  0.00000000000E+00 0. -1.
         11    1    1    2    0    0  0.34630428831E+01 -0.31444662014E+02  0.67239283050E+02  0.74309357555E+02  0.00000000000E+00 0.  1.
</event>
<event>
 7    1  0.2530765E-009  0.1811632E+03  0.7561462E-02  0.1166682E+00
          2   -1    0    0  501    0  0.00000000000E+00  0.00000000000E+00  0.12253056030E+04  0.12253056030E+04  0.00000000000E+00 0. -1.
         -2   -1    0    0    0  501 -0.00000000000E+00 -0.00000000000E+00 -0.35078761008E+02  0.35078761008E+02  0.00000000000E+00 0.  1.
         25    2    1    2    0    0  0.15067320568E+03  0.83022902740E+02  0.70422971923E+03  0.73565106609E+03  0.12509107206E+03 0.  0.
          5    1    3    3  502    0  0.15170930466E+03  0.93077723111E+02  0.70233629371E+03  0.72455014838E+03  0.41800000000E+01 0. -1.
         -5    1    3    3    0  502 -0.10360989872E+01 -0.10054820371E+02  0.18934255211E+01  0.11100917710E+02  0.41800000000E+01 0. -1.
        -11    1    1    2    0    0 -0.10701717175E+03 -0.47566526689E+02  0.18813247364E+03  0.22160567942E+03  0.00000000000E+00 0. -1.
         11    1    1    2    0    0 -0.43656033924E+02 -0.35456376051E+02  0.29786464911E+03  0.30312761849E+03  0.00000000000E+00 0.  1.
</event>
<event>
 7    1  0.2530765E-009  0.1463443E+03  0.7561462E-02  0.1205038E+00
          2   -1    0    0  501    0  0.00000000000E+00  0.00000000000E+00  0.31400415350E+03  0.31400415350E+03  0.00000000000E+00 0. -1.
         -2   -1    0    0    0  501 -0.00000000000E+00 -0.00000000000E+00 -0.10125657754E+03  0.10125657754E+03  0.00000000000E+00 0.  1.
         25    2    1    2    0    0  0.11159406127E+03 -0.85449938867E+02  0.13256603245E+03  0.23016509139E+03  0.12508912731E+03 0.  0.
          5    1    3    3  502    0 -0.72477600225E-01 -0.51848674962E+01  0.83995896565E+02  0.84259546306E+02  0.41800000000E+01 0.  1.
         -5    1    3    3    0  502  0.11166653887E+03 -0.80265071371E+02  0.48570135886E+02  0.14590554508E+03  0.41800000000E+01 0.  1.
        -11    1    1    2    0    0 -0.58389802284E+02  0.15227808654E+02 -0.74890464509E+01  0.60805764397E+02  0.00000000000E+00 0.  1.
         11    1    1    2    0    0 -0.53204258991E+02  0.70222130214E+02  0.87670589963E+02  0.12428987526E+03  0.00000000000E+00 0. -1.
</event>
<event>
 7    1  0.2530765E-009  0.1048254E+03  0.7561462E-02  0.1270464E+00
          4   -1    0    0  501    0  0.00000000000E+00  0.00000000000E+00  0.12796373068E+03  0.12796373068E+03  0.00000000000E+00 0. -1.
         -4   -1    0    0    0  501 -0.00000000000E+00 -0.00000000000E+00 -0.12892055335E+03  0.12892055335E+03  0.00000000000E+00 0.  1.
         25    2    1    2    0    0  0.38443894119E+02  0.55422858153E+02  0.13824927579E+02  0.14278745121E+03  0.12508997322E+03 0.  0.
          5    1    3    3  502    0 -0.35541758636E+02  0.57678794541E+02  0.39354111078E+01  0.67992792318E+02  0.41800000000E+01 0. -1.
         -5    1    3    3    0  502  0.73985652755E+02 -0.22559363879E+01  0.98895164711E+01  0.74794658891E+02  0.41800000000E+01 0. -1.
        -11    1    1    2    0    0 -0.24936131082E+02 -0.39959959728E+02 -0.52881380748E+02  0.70817013807E+02  0.00000000000E+00 0.  1.
         11    1    1    2    0    0 -0.13507763037E+02 -0.15462898425E+02  0.38099630496E+02  0.43279819014E+02  0.00000000000E+00 0. -1.
</event>
<event>
 7    1  0.2530765E-009  0.1893382E+03  0.7561462E-02  0.1159060E+00
         -1   -1    0    0    0  501 -0.00000000000E+00  0.00000000000E+00  0.69198059132E+02  0.69198059132E+02  0.00000000000E+00 0.  1.
          1   -1    0    0  501    0  0.00000000000E+00 -0.00000000000E+00 -0.59061490908E+03  0.59061490908E+03  0.00000000000E+00 0. -1.
         25    2    1    2    0    0 -0.11560957483E+02 -0.16937937931E+03 -0.24017903789E+03  0.31961966651E+03  0.12509089137E+03 0.  0.
          5    1    3    3  502    0 -0.47597165479E+02 -0.93017398859E+02 -0.20071252457E+03  0.22631994293E+03  0.41800000000E+01 0.  1.
         -5    1    3    3    0  502  0.36036207996E+02 -0.76361980448E+02 -0.39466513324E+02  0.93299723572E+02  0.41800000000E+01 0.  1.
        -11    1    1    2    0    0 -0.35775287463E+02  0.53191504587E+02 -0.11828575580E+03  0.13453894373E+03  0.00000000000E+00 0.  1.
         11    1    1    2    0    0  0.47336244946E+02  0.11618787472E+03 -0.16295205625E+03  0.20565435798E+03  0.00000000000E+00 0. -1.
</event>
<event>
 7    1  0.2530765E-009  0.1820726E+03  0.7561462E-02  0.1165812E+00
          2   -1    0    0  501    0  0.00000000000E+00  0.00000000000E+00  0.36059143232E+03  0.36059143232E+03  0.00000000000E+00 0. -1.
         -2   -1    0    0    0  501 -0.00000000000E+00 -0.00000000000E+00 -0.12567825636E+03  0.12567825636E+03  0.00000000000E+00 0.  1.
         25    2    1    2    0    0 -0.17762949031E+03  0.32382059882E+02  0.20439831231E+03  0.30004620538E+03  0.12509285215E+03 0.  0.
          5    1    3    3  502    0 -0.37507266540E+02  0.51009753529E+01  0.13687392125E+03  0.14207307173E+03  0.41800000000E+01 0.  1.
         -5    1    3    3    0  502 -0.14012222378E+03  0.27281084529E+02  0.67524391062E+02  0.15797313366E+03  0.41800000000E+01 0.  1.
        -11    1    1    2    0    0  0.13648736012E+03 -0.11127710570E+02  0.28482909681E+02  0.13987101758E+03  0.00000000000E+00 0.  1.
         11    1    1    2    0    0  0.41142130196E+02 -0.21254349312E+02  0.20319539699E+01  0.46352465724E+02  0.00000000000E+00 0. -1.
</event>
<event>
 7    1  0.2530765E-009  0.2459704E+03  0.7561462E-02  0.1115878E+00
         -2   -1    0    0    0  501 -0.00000000000E+00  0.00000000000E+00  0.19215290282E+03  0.19215290282E+03  0.00000000000E+00 0.  1.
          2   -1    0    0  501    0  0.00000000000E+00 -0.00000000000E+00 -0.36103877473E+03  0.36103877473E+03  0.00000000000E+00 0. -1.
         25    2    1    2    0    0 -0.96588182026E+02 -0.19969374328E+03  0.85473380297E+01  0.25480859137E+03  0.12508994058E+03 0.  0.
          5    1    3    3  502    0 -0.28489492456E+02 -0.18022620958E+03  0.17257550483E+02  0.18332602993E+03  0.41800000000E+01 0. -1.
         -5    1    3    3    0  502 -0.68098689570E+02 -0.19467533704E+02 -0.87102124529E+01  0.71482561444E+02  0.41800000000E+01 0. -1.
        -11    1    1    2    0    0  0.21361526154E+01  0.10400280131E+03 -0.61470822867E+02  0.12082966479E+03  0.00000000000E+00 0. -1.
         11    1    1    2    0    0  0.94452029410E+02  0.95690941970E+02 -0.11596238707E+03  0.17755342140E+03  0.00000000000E+00 0.  1.
</event>
<event>
 7    1  0.2530765E-009  0.9572499E+02  0.7561462E-02  0.1289552E+00
         -2   -1    0    0    0  501 -0.00000000000E+00  0.00000000000E+00  0.13410904453E+03  0.13410904453E+03  0.00000000000E+00 0.  1.
          2   -1    0    0  501    0  0.00000000000E+00 -0.00000000000E+00 -0.11088066632E+03  0.11088066632E+03  0.00000000000E+00 0. -1.
         25    2    1    2    0    0 -0.49500332579E+02  0.15618914004E+02 -0.67188653289E+01  0.13560297432E+03  0.12509512418E+03 0.  0.
          5    1    3    3  502    0  0.11018602954E+02  0.23258140986E+02  0.47303801527E+02  0.54013635057E+02  0.41800000000E+01 0.  1.
         -5    1    3    3    0  502 -0.60518935533E+02 -0.76392269819E+01 -0.54022666856E+02  0.81589339261E+02  0.41800000000E+01 0.  1.
        -11    1    1    2    0    0  0.22515369580E+02 -0.53315453576E+02  0.23974640366E+02  0.62643936961E+02  0.00000000000E+00 0.  1.
         11    1    1    2    0    0  0.26984963000E+02  0.37696539572E+02  0.59726031741E+01  0.46742799579E+02  0.00000000000E+00 0. -1.
</event>
<event>
 7    1  0.2530765E-009  0.1605183E+03  0.7561462E-02  0.1188113E+00
          1   -1    0    0  501    0  0.00000000000E+00  0.00000000000E+00  0.35141894919E+03  0.35141894919E+03  0.00000000000E+00 0. -1.
         -1   -1    0    0    0  501 -0.00000000000E+00 -0.00000000000E+00 -0.11294542065E+03  0.11294542065E+03  0.00000000000E+00 0.  1.
         25    2    1    2    0    0 -0.90258583861E+01 -0.14063815216E+03  0.19555749367E+02  0.18945012047E+03  0.12509342449E+03 0.  0.
          5    1    3    3  502    0  0.28155970013E+02 -0.92135985030E+02 -0.39642341768E+02  0.10426306175E+03  0.41800000000E+01 0. -1.
         -5    1    3    3    0  502 -0.37181828399E+02 -0.48502167129E+02  0.59198091135E+02  0.85187058720E+02  0.41800000000E+01 0. -1.
        -11    1    1    2    0    0  0.36544315859E+02  0.24509392630E+02  0.83701902316E+02  0.94563237043E+02  0.00000000000E+00 0. -1.
         11    1    1    2    0    0 -0.27518457473E+02  0.11612875953E+03  0.13521587686E+03  0.18035101232E+03  0.00000000000E+00 0.  1.
</event>
<event>
 7    1  0.2530765E-009  0.1164362E+03  0.7561462E-02  0.1249095E+00
         -1   -1    0    0    0  501 -0.00000000000E+00  0.00000000000E+00  0.25443944566E+03  0.25443944566E+03  0.00000000000E+00 0.  1.
          1   -1    0    0  501    0  0.00000000000E+00 -0.00000000000E+00 -0.67723516459E+02  0.67723516459E+02  0.00000000000E+00 0. -1.
         25    2    1    2    0    0  0.59986904080E+02  0.22530894403E+02  0.14800744753E+03  0.20410783097E+03  0.12509089604E+03 0.  0.
          5    1    3    3  502    0 -0.36326570959E+02 -0.34803524046E-01  0.18184825659E+02  0.40838477606E+02  0.41800000000E+01 0.  1.
         -5    1    3    3    0  502  0.96313475039E+02  0.22565697927E+02  0.12982262187E+03  0.16326935336E+03  0.41800000000E+01 0.  1.
        -11    1    1    2    0    0 -0.76978010862E+02 -0.22864206179E+02  0.51837172520E+01  0.80468981633E+02  0.00000000000E+00 0. -1.
         11    1    1    2    0    0  0.16991106782E+02  0.33331177613E+00  0.33524764415E+02  0.37586149517E+02  0.00000000000E+00 0.  1.
</event>
<event>
 7    1  0.2530765E-009  0.1040418E+03  0.7561462E-02  0.1272019E+00
         -1   -1    0    0    0  501 -0.00000000000E+00  0.00000000000E+00  0.33414417268E+03  0.33414417268E+03  0.00000000000E+00 0.  1.
          1   -1    0    0  501    0  0.00000000000E+00 -0.00000000000E+00 -0.38867667663E+02  0.38867667663E+02  0.00000000000E+00 0. -1.
         25    2    1    2    0    0  0.33390985871E+02 -0.45088908270E+01  0.19293823220E+03  0.23239511217E+03  0.12508812365E+03 0.  0.
          5    1    3    3  502    0 -0.34723911876E+02  0.22545313950E+02  0.12726929660E+03  0.13389916913E+03  0.41800000000E+01 0. -1.
         -5    1    3    3    0  502  0.68114897747E+02 -0.27054204777E+02  0.65668935606E+02  0.98495943037E+02  0.41800000000E+01 0. -1.
        -11    1    1    2    0    0 -0.61286380311E+02 -0.92119207306E+01  0.49520464016E+02  0.79329416055E+02  0.00000000000E+00 0. -1.
         11    1    1    2    0    0  0.27895394440E+02  0.13720811558E+02  0.52817808794E+02  0.61287312117E+02  0.00000000000E+00 0.  1.
</event>
<event>
 7    1  0.2530765E-009  0.6847702E+02  0.7561462E-02  0.1365350E+00
         -2   -1    0    0    0  501 -0.00000000000E+00  0.00000000000E+00  0.21494518116E+02  0.21494518116E+02  0.00000000000E+00 0.  1.
          2   -1    0    0  501    0  0.00000000000E+00 -0.00000000000E+00 -0.77967105359E+03  0.77967105359E+03  0.00000000000E+00 0. -1.
         25    2    1    2    0    0  0.17667881972E+02 -0.27140733073E+02 -0.61590219497E+03  0.62931048325E+03  0.12508955635E+03 0.  0.
          5    1    3    3  502    0  0.35625409404E+02 -0.81233816823E+01 -0.46471604988E+02  0.59264167887E+02  0.41800000000E+01 0.  1.
         -5    1    3    3    0  502 -0.17957527432E+02 -0.19017351391E+02 -0.56943058998E+03  0.57004631536E+03  0.41800000000E+01 0.  1.
        -11    1    1    2    0    0 -0.32658792056E+02  0.41581156396E+02 -0.36977655441E+02  0.64520820420E+02  0.00000000000E+00 0.  1.
         11    1    1    2    0    0  0.14990910084E+02 -0.14440423323E+02 -0.10529668506E+03  0.10733426804E+03  0.00000000000E+00 0. -1.
</event>
<event>
 7    1  0.2530765E-009  0.1577480E+03  0.7561462E-02  0.1191263E+00
          2   -1    0    0  501    0  0.00000000000E+00  0.00000000000E+00  0.43832365299E+03  0.43832365299E+03  0.00000000000E+00 0. -1.
         -2   -1    0    0    0  501 -0.00000000000E+00 -0.00000000000E+00 -0.81474629802E+02  0.81474629802E+02  0.00000000000E+00 0.  1.
         25    2    1    2    0    0 -0.56541850015E+01  0.13423106350E+03  0.10625710221E+03  0.21209651165E+03  0.12507761698E+03 0.  0.
          5    1    3    3  502    0  0.19973069417E+02  0.14938491838E+03  0.73835135355E+02  0.16788054370E+03  0.41800000000E+01 0.  1.
         -5    1    3    3    0  502 -0.25627254418E+02 -0.15153854885E+02  0.32421966854E+02  0.44215967948E+02  0.41800000000E+01 0.  1.
        -11    1    1    2    0    0  0.43326499706E+01 -0.22110927177E+02 -0.95132146439E+01  0.24457436686E+02  0.00000000000E+00 0.  1.
         11    1    1    2    0    0  0.13215350309E+01 -0.11212013632E+03  0.26010513563E+03  0.28324433446E+03  0.00000000000E+00 0. -1.
</event>
<event>
 7    1  0.2530765E-009  0.1131482E+03  0.7561462E-02  0.1254849E+00
         -1   -1    0    0    0  501 -0.00000000000E+00  0.00000000000E+00  0.18204802297E+03  0.18204802297E+03  0.00000000000E+00 0.  1.
          1   -1    0    0  501    0  0.00000000000E+00 -0.00000000000E+00 -0.77449181264E+02  0.77449181264E+02  0.00000000000E+00 0. -1.
         25    2    1    2    0    0 -0.41176853448E+02  0.24425424103E+02  0.51879990443E+02  0.14363465402E+03  0.12508895165E+03 0.  0.
          5    1    3    3  502    0  0.41113258086E+02  0.23050530554E+02  0.21149568279E+01  0.47366363504E+02  0.41800000000E+01 0.  1.
         -5    1    3    3    0  502 -0.82290111534E+02  0.13748935492E+01  0.49765033615E+02  0.96268290518E+02  0.41800000000E+01 0.  1.
        -11    1    1    2    0    0 -0.10241766545E+02  0.23902479482E+02  0.34096893977E+02  0.42881470196E+02  0.00000000000E+00 0. -1.
         11    1    1    2    0    0  0.51418619993E+02 -0.48327903585E+02  0.18621957284E+02  0.72981080014E+02  0.00000000000E+00 0.  1.
</event>
<event>
 7    1  0.2530765E-009  0.1064660E+03  0.7561462E-02  0.1267258E+00
          2   -1    0    0  501    0  0.00000000000E+00  0.00000000000E+00  0.69823050092E+03  0.69823050092E+03  0.00000000000E+00 0. -1.
         -2   -1    0    0    0  501 -0.00000000000E+00 -0.00000000000E+00 -0.24376342431E+02  0.24376342431E+02  0.00000000000E+00 0.  1.
         25    2    1    2    0    0  0.59889907022E+02 -0.48740336082E+00  0.26197505505E+03  0.29642081344E+03  0.12508929068E+03 0.  0.
          5    1    3    3  502    0 -0.82757206548E+01  0.31523557881E+02  0.18773639084E+03  0.19059025972E+03  0.41800000000E+01 0. -1.
         -5    1    3    3    0  502  0.68165627677E+02 -0.32010961241E+02  0.74238664210E+02  0.10583055372E+03  0.41800000000E+01 0. -1.
        -11    1    1    2    0    0 -0.45397846665E+02  0.41279785041E+02  0.30027429520E+03  0.30647942425E+03  0.00000000000E+00 0. -1.
         11    1    1    2    0    0 -0.14492060357E+02 -0.40792381680E+02  0.11160480824E+03  0.11970660566E+03  0.00000000000E+00 0.  1.
</event>
<event>
 7    1  0.2530765E-009  0.1208605E+03  0.7561462E-02  0.1241684E+00
          1   -1    0    0  501    0  0.00000000000E+00  0.00000000000E+00  0.27923879250E+03  0.27923879250E+03  0.00000000000E+00 0. -1.
         -1   -1    0    0    0  501 -0.00000000000E+00 -0.00000000000E+00 -0.86188325287E+02  0.86188325287E+02  0.00000000000E+00 0.  1.
         25    2    1    2    0    0 -0.90390768061E+02  0.19703205289E+02  0.18017655371E+03  0.23805413980E+03  0.12508987057E+03 0.  0.
          5    1    3    3  502    0 -0.11753341324E+03  0.48095285308E+01  0.10942734417E+03  0.16071418993E+03  0.41800000000E+01 0.  1.
         -5    1    3    3    0  502  0.27142645184E+02  0.14893676758E+02  0.70749209542E+02  0.77339949869E+02  0.41800000000E+01 0.  1.
        -11    1    1    2    0    0  0.43757041401E+02 -0.13092695860E+02 -0.36995570191E+02  0.58777287882E+02  0.00000000000E+00 0.  1.
         11    1    1    2    0    0  0.46633726660E+02 -0.66105094292E+01  0.49869483688E+02  0.68595690101E+02  0.00000000000E+00 0. -1.
</event>
<event>
 7    1  0.2530765E-009  0.1391634E+03  0.7561462E-02  0.1214459E+00
          2   -1    0    0  501    0  0.00000000000E+00  0.00000000000E+00  0.12363358507E+04  0.12363358507E+04  0.00000000000E+00 0.  1.
         -2   -1    0    0    0  501 -0.00000000000E+00 -0.00000000000E+00 -0.18814388001E+02  0.18814388001E+02  0.00000000000E+00 0. -1.
         25    2    1    2    0    0 -0.19702700475E+02 -0.10422445995E+03  0.66061358284E+03  0.68066691439E+03  0.12508480345E+03 0.  0.
          5    1    3    3  502    0 -0.28967089669E+02  0.19744126392E+02  0.22073151104E+03  0.22353701076E+03  0.41800000000E+01 0.  1.
         -5    1    3    3    0  502  0.92643891945E+01 -0.12396858634E+03  0.43988207179E+03  0.45712990363E+03  0.41800000000E+01 0.  1.
        -11    1    1    2    0    0  0.26448845817E+02  0.17641417444E+02  0.44051391623E+02  0.54325741214E+02  0.00000000000E+00 0. -1.
         11    1    1    2    0    0 -0.67461453429E+01  0.86583042509E+02  0.51285648819E+03  0.52015758305E+03  0.00000000000E+00 0.  1.
</event>
<event>
 7    1  0.2530765E-009  0.1051370E+03  0.7561462E-02  0.1269850E+00
         -2   -1    0    0    0  501 -0.00000000000E+00  0.00000000000E+00  0.23607871400E+02  0.23607871400E+02  0.00000000000E+00 0.  1.
          2   -1    0    0  501    0  0.00000000000E+00 -0.00000000000E+00 -0.50614160550E+03  0.50614160550E+03  0.00000000000E+00 0. -1.
         25    2    1    2    0    0  0.16428985647E+02 -0.65136004673E+01 -0.27543605012E+03  0.30302586550E+03  0.12508924373E+03 0.  0.
          5    1    3    3  502    0 -0.74380993020E+01 -0.59441906965E+02 -0.86319330984E+02  0.10515305476E+03  0.41800000000E+01 0. -1.
         -5    1    3    3    0  502  0.23867084949E+02  0.52928306497E+02 -0.18911671913E+03  0.19787281073E+03  0.41800000000E+01 0. -1.
        -11    1    1    2    0    0 -0.40372326808E+02 -0.28625520858E+02 -0.11983132922E+03  0.12964911369E+03  0.00000000000E+00 0.  1.
         11    1    1    2    0    0  0.23943341161E+02  0.35139121325E+02 -0.87266354763E+02  0.97074497718E+02  0.00000000000E+00 0. -1.
</event>
<event>
 7    1  0.2530765E-009  0.8907881E+02  0.7561462E-02  0.1305098E+00
          2   -1    0    0  501    0  0.00000000000E+00  0.00000000000E+00  0.28999483094E+03  0.28999483094E+03  0.00000000000E+00 0. -1.
         -2   -1    0    0    0  501 -0.00000000000E+00 -0.00000000000E+00 -0.52054139466E+02  0.52054139466E+02  0.00000000000E+00 0.  1.
         25    2    1    2    0    0  0.73266018617E+00  0.33742232264E+02  0.20468840387E+03  0.24224744047E+03  0.12508958673E+03 0.  0.
          5    1    3    3  502    0  0.26397597956E+02  0.49659247361E+02  0.20410634087E+03  0.21175397236E+03  0.41800000000E+01 0. -1.
         -5    1    3    3    0  502 -0.25664937769E+02 -0.15917015097E+02  0.58206299767E+00  0.30493468114E+02  0.41800000000E+01 0. -1.
        -11    1    1    2    0    0 -0.16166096656E+02 -0.59275237585E+02  0.33471048306E+02  0.69965759816E+02  0.00000000000E+00 0.  1.
         11    1    1    2    0    0  0.15433436470E+02  0.25533005321E+02 -0.21876070355E+00  0.29835770113E+02  0.00000000000E+00 0. -1.
</event>
<event>
 7    1  0.2530765E-009  0.1377501E+03  0.7561462E-02  0.1216389E+00
          3   -1    0    0  501    0  0.00000000000E+00  0.00000000000E+00  0.41915111527E+03  0.41915111527E+03  0.00000000000E+00 0. -1.
         -3   -1    0    0    0  501 -0.00000000000E+00 -0.00000000000E+00 -0.48839529289E+02  0.48839529289E+02  0.00000000000E+00 0.  1.
         25    2    1    2    0    0 -0.83700078762E+02  0.36918824383E+02  0.22819177119E+03  0.27583079498E+03  0.12506974151E+03 0.  0.
          5    1    3    3  502    0 -0.11746114604E+02 -0.41913183651E+02  0.98814629010E+02  0.10805780619E+03  0.41800000000E+01 0. -1.
         -5    1    3    3    0  502 -0.71953964159E+02  0.78832008034E+02  0.12937714218E+03  0.16777298879E+03  0.41800000000E+01 0. -1.
        -11    1    1    2    0    0  0.30218088442E+02  0.27758184333E+02  0.24909894006E+02  0.48001588370E+02  0.00000000000E+00 0.  1.
         11    1    1    2    0    0  0.53481990320E+02 -0.64677008716E+02  0.11720992078E+03  0.14415826121E+03  0.00000000000E+00 0. -1.
</event>
<event>
 7    1  0.2530765E-009  0.9758734E+02  0.7561462E-02  0.1285453E+00
          2   -1    0    0  501    0  0.00000000000E+00  0.00000000000E+00  0.27651685281E+03  0.27651685281E+03  0.00000000000E+00 0. -1.
         -2   -1    0    0    0  501 -0.00000000000E+00 -0.00000000000E+00 -0.69060953164E+02  0.69060953164E+02  0.00000000000E+00 0.  1.
         25    2    1    2    0    0  0.77082083333E+01 -0.10659138887E+02  0.22031028436E+03  0.25368490431E+03  0.12508547302E+03 0.  0.
          5    1    3    3  502    0  0.21825867873E+02  0.44361510067E+02  0.37460712571E+02  0.62169843737E+02  0.41800000000E+01 0.  1.
         -5    1    3    3    0  502 -0.14117659540E+02 -0.55020648955E+02  0.18284957179E+03  0.19151506057E+03  0.41800000000E+01 0.  1.
        -11    1    1    2    0    0 -0.12018082094E+01 -0.38748688885E+02  0.47130313722E+01  0.39052757879E+02  0.00000000000E+00 0. -1.
         11    1    1    2    0    0 -0.65064001239E+01  0.49407827772E+02 -0.17567416085E+02  0.52840143789E+02  0.00000000000E+00 0.  1.
</event>
<event>
 7    1  0.2530765E-009  0.8512335E+02  0.7561462E-02  0.1315110E+00
         -1   -1    0    0    0  501 -0.00000000000E+00  0.00000000000E+00  0.55007633656E+02  0.55007633656E+02  0.00000000000E+00 0.  1.
          1   -1    0    0  501    0  0.00000000000E+00 -0.00000000000E+00 -0.29474410417E+03  0.29474410417E+03  0.00000000000E+00 0. -1.
         25    2    1    2    0    0 -0.30954684417E+02  0.29106386340E+02 -0.20766228722E+03  0.24612436157E+03  0.12509277201E+03 0.  0.
          5    1    3    3  502    0  0.77201550020E+01  0.42216502250E+02 -0.19970915816E+03  0.20431116981E+03  0.41800000000E+01 0. -1.
         -5    1    3    3    0  502 -0.38674839419E+02 -0.13110115910E+02 -0.79531290612E+01  0.41813191759E+02  0.41800000000E+01 0. -1.
        -11    1    1    2    0    0  0.21352430132E+02  0.23991950386E+02  0.11661493384E+02  0.34169143738E+02  0.00000000000E+00 0.  1.
         11    1    1    2    0    0  0.96022542854E+01 -0.53098336726E+02 -0.43735676676E+02  0.69458232520E+02  0.00000000000E+00 0. -1.
</event>
<event>
 7    1  0.2530765E-009  0.1536130E+03  0.7561462E-02  0.1196102E+00
         -2   -1    0    0    0  501 -0.00000000000E+00  0.00000000000E+00  0.13394164536E+03  0.13394164536E+03  0.00000000000E+00 0. -1.
          2   -1    0    0  501    0  0.00000000000E+00 -0.00000000000E+00 -0.23083757580E+03  0.23083757580E+03  0.00000000000E+00 0.  1.
         25    2    1    2    0    0 -0.13531646577E+03  0.24502476617E+02 -0.63475554673E+02  0.19643743215E+03  0.12509037309E+03 0.  0.
          5    1    3    3  502    0 -0.35377417598E+02 -0.35895278670E+02  0.18340051474E+02  0.53794633512E+02  0.41800000000E+01 0.  1.
         -5    1    3    3    0  502 -0.99939048174E+02  0.60397755287E+02 -0.81815606147E+02  0.14264279864E+03  0.41800000000E+01 0.  1.
        -11    1    1    2    0    0  0.74464100507E+02 -0.70512893546E+00 -0.62120810385E+02  0.96976257682E+02  0.00000000000E+00 0.  1.
         11    1    1    2    0    0  0.60852365265E+02 -0.23797347681E+02  0.28700434614E+02  0.71365531330E+02  0.00000000000E+00 0. -1.
</event>
<event>
 7    1  0.2530765E-009  0.9005360E+02  0.7561462E-02  0.1302722E+00
         -3   -1    0    0    0  501 -0.00000000000E+00  0.00000000000E+00  0.44135452944E+02  0.44135452944E+02  0.00000000000E+00 0.  1.
          3   -1    0    0  501    0  0.00000000000E+00 -0.00000000000E+00 -0.36377092665E+03  0.36377092665E+03  0.00000000000E+00 0. -1.
         25    2    1    2    0    0 -0.15869415870E+01 -0.53266868545E+02 -0.11846448101E+03  0.18033663950E+03  0.12509033783E+03 0.  0.
          5    1    3    3  502    0 -0.30870852078E+02 -0.26558258031E+01  0.14916689345E+02  0.34641635928E+02  0.41800000000E+01 0. -1.
         -5    1    3    3    0  502  0.29283910491E+02 -0.50611042742E+02 -0.13338117036E+03  0.14569500357E+03  0.41800000000E+01 0. -1.
        -11    1    1    2    0    0 -0.47140144457E+01  0.71125933715E+02 -0.90058604523E+02  0.11485500698E+03  0.00000000000E+00 0.  1.
         11    1    1    2    0    0  0.63009560327E+01 -0.17859065170E+02 -0.11111238817E+03  0.11271473311E+03  0.00000000000E+00 0. -1.
</event>
<event>
 7    1  0.2968611E-009  0.1120231E+03  0.7561462E-02  0.1256869E+00
          1   -1    0    0  501    0  0.00000000000E+00  0.00000000000E+00  0.96302228286E+03  0.96302228286E+03  0.00000000000E+00 0. -1.
         -1   -1    0    0    0  501 -0.00000000000E+00 -0.00000000000E+00 -0.13598181117E+02  0.13598181117E+02  0.00000000000E+00 0.  1.
         25    2    1    2    0    0 -0.13303351758E+01 -0.31564470879E+02  0.46579056171E+03  0.48332887233E+03  0.12509142991E+03 0.  0.
          5    1    3    3  502    0 -0.22353678834E+02 -0.75834257179E+02  0.31053194931E+03  0.32046542007E+03  0.41800000000E+01 0. -1.
         -5    1    3    3    0  502  0.21023343658E+02  0.44269786300E+02  0.15525861240E+03  0.16286345226E+03  0.41800000000E+01 0. -1.
        -11    1    1    2    0    0 -0.44186307186E+02  0.99082160631E+01  0.18692229963E+03  0.19232927127E+03  0.00000000000E+00 0.  1.
         11    1    1    2    0    0  0.45516642362E+02  0.21656254816E+02  0.29671124040E+03  0.30096232037E+03  0.00000000000E+00 0. -1.
</event>
<event>
 7    1  0.2530765E-009  0.8977459E+02  0.7561462E-02  0.1303398E+00
          1   -1    0    0  501    0  0.00000000000E+00  0.00000000000E+00  0.20295138164E+03  0.20295138164E+03  0.00000000000E+00 0. -1.
         -1   -1    0    0    0  501 -0.00000000000E+00 -0.00000000000E+00 -0.81043108144E+02  0.81043108144E+02  0.00000000000E+00 0.  1.
         25    2    1    2    0    0 -0.25459530882E+02 -0.47220809244E+02  0.11453510965E+03  0.17788241245E+03  0.12508344726E+03 0.  0.
          5    1    3    3  502    0  0.14773754885E+01 -0.81686557366E+02  0.39305956408E+02  0.90759610520E+02  0.41800000000E+01 0.  1.
         -5    1    3    3    0  502 -0.26936906371E+02  0.34465748123E+02  0.75229153238E+02  0.87122801926E+02  0.41800000000E+01 0.  1.
        -11    1    1    2    0    0  0.16712509130E+02  0.34836102061E+02 -0.40452898275E+02  0.55940137174E+02  0.00000000000E+00 0.  1.
         11    1    1    2    0    0  0.87470217524E+01  0.12384707183E+02  0.47826062128E+02  0.50171940168E+02  0.00000000000E+00 0. -1.
</event>
<event>
 7    1  0.2530765E-009  0.8554462E+02  0.7561462E-02  0.1314014E+00
         -2   -1    0    0    0  501 -0.00000000000E+00  0.00000000000E+00  0.16837260689E+03  0.16837260689E+03  0.00000000000E+00 0.  1.
          2   -1    0    0  501    0  0.00000000000E+00 -0.00000000000E+00 -0.83758047309E+02  0.83758047309E+02  0.00000000000E+00 0. -1.
         25    2    1    2    0    0  0.35822744688E+02 -0.75159450165E+01  0.21715600018E+02  0.13213257769E+03  0.12509073642E+03 0.  0.
          5    1    3    3  502    0  0.41907429730E+02  0.38435187277E+02 -0.28434810165E+02  0.63714261486E+02  0.41800000000E+01 0.  1.
         -5    1    3    3    0  502 -0.60846850416E+01 -0.45951132294E+02  0.50150410183E+02  0.68418316207E+02  0.41800000000E+01 0.  1.
        -11    1    1    2    0    0 -0.96875688291E+01  0.30948879783E+02  0.75922061903E+02  0.82558110645E+02  0.00000000000E+00 0.  1.
         11    1    1    2    0    0 -0.26135175859E+02 -0.23432934767E+02 -0.13023102342E+02  0.37439965860E+02  0.00000000000E+00 0. -1.
</event>
<event>
 7    1  0.2530765E-009  0.2134278E+03  0.7561462E-02  0.1138880E+00
         -1   -1    0    0    0  501 -0.00000000000E+00  0.00000000000E+00  0.18710626819E+03  0.18710626819E+03  0.00000000000E+00 0.  1.
          1   -1    0    0  501    0  0.00000000000E+00 -0.00000000000E+00 -0.29953438741E+03  0.29953438741E+03  0.00000000000E+00 0. -1.
         25    2    1    2    0    0  0.10523332766E+03  0.15040084602E+03 -0.15989696198E+03  0.27369398730E+03  0.12508753934E+03 0.  0.
          5    1    3    3  502    0 -0.23927165601E+02  0.27142443973E+01 -0.86357069053E+01  0.25921500923E+02  0.41800000000E+01 0.  1.
         -5    1    3    3    0  502  0.12916049326E+03  0.14768660162E+03 -0.15126125507E+03  0.24777248637E+03  0.41800000000E+01 0.  1.
        -11    1    1    2    0    0 -0.12307601362E+03 -0.12868439713E+03  0.49349251859E+02  0.18477750905E+03  0.00000000000E+00 0. -1.
         11    1    1    2    0    0  0.17842685963E+02 -0.21716448893E+02 -0.18804090999E+01  0.28169159258E+02  0.00000000000E+00 0.  1.
</event>
<event>
 7    1  0.2530765E-009  0.1197267E+03  0.7561462E-02  0.1243549E+00
          2   -1    0    0  501    0  0.00000000000E+00  0.00000000000E+00  0.27486845953E+03  0.27486845953E+03  0.00000000000E+00 0. -1.
         -2   -1    0    0    0  501 -0.00000000000E+00 -0.00000000000E+00 -0.81695731077E+02  0.81695731077E+02  0.00000000000E+00 0.  1.
         25    2    1    2    0    0  0.18449725719E+02 -0.92296306474E+02  0.54082121503E+02  0.16562403815E+03  0.12508975009E+03 0.  0.
          5    1    3    3  502    0 -0.12980199931E+02 -0.74619581837E+02 -0.23962287433E+02  0.79550180407E+02  0.41800000000E+01 0. -1.
         -5    1    3    3    0  502  0.31429925650E+02 -0.17676724637E+02  0.78044408936E+02  0.86073857741E+02  0.41800000000E+01 0. -1.
        -11    1    1    2    0    0 -0.48957325013E+02  0.28669437709E+02  0.40528781174E+02  0.69723299079E+02  0.00000000000E+00 0.  1.
         11    1    1    2    0    0  0.30507599293E+02  0.63626868765E+02  0.98561825780E+02  0.12121685338E+03  0.00000000000E+00 0. -1.
</event>
<event>
 7    1  0.2530765E-009  0.2229204E+03  0.7561462E-02  0.1131724E+00
          1   -1    0    0  501    0  0.00000000000E+00  0.00000000000E+00  0.59223438228E+03  0.59223438228E+03  0.00000000000E+00 0. -1.
         -1   -1    0    0    0  501 -0.00000000000E+00 -0.00000000000E+00 -0.93304385769E+02  0.93304385769E+02  0.00000000000E+00 0.  1.
         25    2    1    2    0    0  0.19641540796E+03 -0.51985037243E+02  0.19839520207E+03  0.31030670754E+03  0.12509252559E+03 0.  0.
          5    1    3    3  502    0  0.16684013349E+03  0.25397526980E+00  0.98802572126E+02  0.19394616600E+03  0.41800000000E+01 0.  1.
         -5    1    3    3    0  502  0.29575274467E+02 -0.52239012513E+02  0.99592629946E+02  0.11636054154E+03  0.41800000000E+01 0.  1.
        -11    1    1    2    0    0 -0.19535559187E+03  0.31046431449E+02  0.29178497286E+03  0.35251405442E+03  0.00000000000E+00 0. -1.
         11    1    1    2    0    0 -0.10598160939E+01  0.20938605794E+02  0.87498215824E+01  0.22718006085E+02  0.00000000000E+00 0.  1.
</event>
<event>
 7    1  0.2530765E-009  0.2409103E+03  0.7561462E-02  0.1119188E+00
          1   -1    0    0  501    0  0.00000000000E+00  0.00000000000E+00  0.89400226923E+03  0.89400226923E+03  0.00000000000E+00 0. -1.
         -1   -1    0    0    0  501 -0.00000000000E+00 -0.00000000000E+00 -0.80717736634E+02  0.80717736634E+02  0.00000000000E+00 0.  1.
         25    2    1    2    0    0 -0.17424131147E+03 -0.15295625832E+03  0.56505286893E+03  0.62344903117E+03  0.12509315808E+03 0.  0.
          5    1    3    3  502    0 -0.18450215884E+03 -0.13701718755E+03  0.55675965956E+03  0.60234005945E+03  0.41800000000E+01 0.  1.
         -5    1    3    3    0  502  0.10260847368E+02 -0.15939070762E+02  0.82932093667E+01  0.21108971720E+02  0.41800000000E+01 0.  1.
        -11    1    1    2    0    0  0.14611203724E+03  0.13658128701E+03  0.24815493534E+03  0.31872252402E+03  0.00000000000E+00 0. -1.
         11    1    1    2    0    0  0.28129274238E+02  0.16374971302E+02  0.76728335540E-01  0.32548450678E+02  0.00000000000E+00 0.  1.
</event>
<event>
 7    1  0.2530765E-009  0.1571270E+03  0.7561462E-02  0.1191979E+00
         -2   -1    0    0    0  501 -0.00000000000E+00  0.00000000000E+00  0.10519604219E+03  0.10519604219E+03  0.00000000000E+00 0. -1.
          2   -1    0    0  501    0  0.00000000000E+00 -0.00000000000E+00 -0.27688811805E+03  0.27688811805E+03  0.00000000000E+00 0.  1.
         25    2    1    2    0    0 -0.26511866052E+02  0.11856495216E+03 -0.15038197331E+03  0.23026763628E+03  0.12509164440E+03 0.  0.
          5    1    3    3  502    0  0.43395694579E+02  0.11941487975E+02 -0.53770308472E+02  0.70246024202E+02  0.41800000000E+01 0. -1.
         -5    1    3    3    0  502 -0.69907560631E+02  0.10662346419E+03 -0.96611664835E+02  0.16002161208E+03  0.41800000000E+01 0. -1.
        -11    1    1    2    0    0 -0.28402350237E+01 -0.11118316746E+03 -0.37652592165E+02  0.11742010628E+03  0.00000000000E+00 0. -1.
         11    1    1    2    0    0  0.29352101076E+02 -0.73817847043E+01  0.16342489609E+02  0.34396417686E+02  0.00000000000E+00 0.  1.
</event>
<event>
 7    1  0.2530765E-009  0.1334574E+03  0.7561462E-02  0.1222414E+00
          1   -1    0    0  501    0  0.00000000000E+00  0.00000000000E+00  0.24205803942E+02  0.24205803942E+02  0.00000000000E+00 0. -1.
         -1   -1    0    0    0  501 -0.00000000000E+00 -0.00000000000E+00 -0.83471756908E+03  0.83471756908E+03  0.00000000000E+00 0.  1.
         25    2    1    2    0    0  0.46643843298E+02 -0.73945601471E+02 -0.35515479491E+03  0.38656006239E+03  0.12510057313E+03 0.  0.
          5    1    3    3  502    0  0.13091560453E+02  0.29555516688E+02 -0.32501263938E+02  0.46029578310E+02  0.41800000000E+01 0. -1.
         -5    1    3    3    0  502  0.33552282845E+02 -0.10350111816E+03 -0.32265353097E+03  0.34053048408E+03  0.41800000000E+01 0. -1.
        -11    1    1    2    0    0  0.25055880100E+02  0.41912868524E+01 -0.10248206036E+03  0.10558378999E+03  0.00000000000E+00 0.  1.
         11    1    1    2    0    0 -0.71699723398E+02  0.69754314619E+02 -0.35287490988E+03  0.36677952064E+03  0.00000000000E+00 0. -1.
</event>
<event>
 7    1  0.2530765E-009  0.1310269E+03  0.7561462E-02  0.1225940E+00
         -2   -1    0    0    0  501 -0.00000000000E+00  0.00000000000E+00  0.17049377321E+02  0.17049377321E+02  0.00000000000E+00 0. -1.
          2   -1    0    0  501    0  0.00000000000E+00 -0.00000000000E+00 -0.14086605311E+04  0.14086605311E+04  0.00000000000E+00 0.  1.
         25    2    1    2    0    0  0.14410828386E+02 -0.99519766451E+02 -0.95360126994E+03  0.96701132888E+03  0.12507466670E+03 0.  0.
          5    1    3    3  502    0  0.46879323825E+02 -0.10948607799E+03 -0.83863810210E+03  0.84706328628E+03  0.41800000000E+01 0. -1.
         -5    1    3    3    0  502 -0.32468495438E+02  0.99663115370E+01 -0.11496316785E+03  0.11994804260E+03  0.41800000000E+01 0. -1.
        -11    1    1    2    0    0 -0.22460974947E+02  0.24608530426E+02 -0.33556568533E+02  0.47287614203E+02  0.00000000000E+00 0. -1.
         11    1    1    2    0    0  0.80501465609E+01  0.74911236025E+02 -0.40445331533E+03  0.41141096536E+03  0.00000000000E+00 0.  1.
</event>
<event>
 7    1  0.2530765E-009  0.7920770E+02  0.7561462E-02  0.1331315E+00
          1   -1    0    0  501    0  0.00000000000E+00  0.00000000000E+00  0.44363702505E+02  0.44363702505E+02  0.00000000000E+00 0. -1.
         -1   -1    0    0    0  501 -0.00000000000E+00 -0.00000000000E+00 -0.35726276588E+03  0.35726276588E+03  0.00000000000E+00 0.  1.
         25    2    1    2    0    0  0.42962757541E+02 -0.40235045227E+02 -0.13803621667E+03  0.19535796442E+03  0.12508429058E+03 0.  0.
          5    1    3    3  502    0  0.62549443238E+01 -0.40354395275E+01 -0.14312965054E+03  0.14338402409E+03  0.41800000000E+01 0. -1.
         -5    1    3    3    0  502  0.36707813218E+02 -0.36199605699E+02  0.50934338768E+01  0.51973940323E+02  0.41800000000E+01 0. -1.
        -11    1    1    2    0    0 -0.37791772540E+02 -0.16462471480E+02 -0.31084058542E+02  0.51627993709E+02  0.00000000000E+00 0.  1.
         11    1    1    2    0    0 -0.51709850015E+01  0.56697516707E+02 -0.14377878817E+03  0.15464051026E+03  0.00000000000E+00 0. -1.
</event>
<event>
 7    1  0.2530765E-009  0.9754815E+02  0.7561462E-02  0.1285538E+00
         -1   -1    0    0    0  501 -0.00000000000E+00  0.00000000000E+00  0.73737604920E+02  0.73737604920E+02  0.00000000000E+00 0.  1.
          1   -1    0    0  501    0  0.00000000000E+00 -0.00000000000E+00 -0.27558468584E+03  0.27558468584E+03  0.00000000000E+00 0. -1.
         25    2    1    2    0    0  0.17275390042E+02  0.51513436723E+02 -0.17625691565E+02  0.13751177139E+03  0.12508696576E+03 0.  0.
          5    1    3    3  502    0  0.29498036660E+02 -0.80908663760E+01  0.42062482420E+02  0.52175867150E+02  0.41800000000E+01 0. -1.
         -5    1    3    3    0  502 -0.12222646618E+02  0.59604303099E+02 -0.59688173984E+02  0.85335904236E+02  0.41800000000E+01 0. -1.
        -11    1    1    2    0    0  0.16830894568E+02 -0.64561622353E+02 -0.10250520289E+03  0.12230616793E+03  0.00000000000E+00 0.  1.
         11    1    1    2    0    0 -0.34106284609E+02  0.13048185630E+02 -0.81716186459E+02  0.89504351444E+02  0.00000000000E+00 0. -1.
</event>
<event>
 7    1  0.2530765E-009  0.1091936E+03  0.7561462E-02  0.1262070E+00
         -2   -1    0    0    0  501 -0.00000000000E+00  0.00000000000E+00  0.14393912708E+03  0.14393912708E+03  0.00000000000E+00 0.  1.
          2   -1    0    0  501    0  0.00000000000E+00 -0.00000000000E+00 -0.12861072162E+03  0.12861072162E+03  0.00000000000E+00 0. -1.
         25    2    1    2    0    0  0.61588317364E+02 -0.28623397914E+02 -0.36368310548E+02  0.14691011660E+03  0.12509000201E+03 0.  0.
          5    1    3    3  502    0  0.88765799195E+01 -0.51354555704E+02  0.29021424722E+02  0.59797989560E+02  0.41800000000E+01 0. -1.
         -5    1    3    3    0  502  0.52711737444E+02  0.22731157789E+02 -0.65389735270E+02  0.87112127040E+02  0.41800000000E+01 0. -1.
        -11    1    1    2    0    0  0.17144451873E+02  0.24243717969E+02  0.33399537541E+02  0.44690258435E+02  0.00000000000E+00 0.  1.
         11    1    1    2    0    0 -0.78732769237E+02  0.43796799453E+01  0.18297178466E+02  0.80949473673E+02  0.00000000000E+00 0. -1.
</event>
<event>
 7    1  0.2530765E-009  0.1159246E+03  0.7561462E-02  0.1249976E+00
         -2   -1    0    0    0  501 -0.00000000000E+00  0.00000000000E+00  0.20530585361E+02  0.20530585361E+02  0.00000000000E+00 0. -1.
          2   -1    0    0  501    0  0.00000000000E+00 -0.00000000000E+00 -0.80578900456E+03  0.80578900456E+03  0.00000000000E+00 0.  1.
         25    2    1    2    0    0  0.43648535507E+02 -0.54799589087E+02 -0.45196872247E+03  0.47416412255E+03  0.12509076466E+03 0.  0.
          5    1    3    3  502    0  0.70699934062E+02 -0.19382854902E+02 -0.13173303447E+03  0.15081525291E+03  0.41800000000E+01 0. -1.
         -5    1    3    3    0  502 -0.27051398555E+02 -0.35416734186E+02 -0.32023568801E+03  0.32334886964E+03  0.41800000000E+01 0. -1.
        -11    1    1    2    0    0 -0.49316668165E+02  0.76617603114E+02 -0.27152731564E+03  0.28640788049E+03  0.00000000000E+00 0.  1.
         11    1    1    2    0    0  0.56681326579E+01 -0.21818014027E+02 -0.61762381078E+02  0.65747586879E+02  0.00000000000E+00 0. -1.
</event>
<event>
 7    1  0.2530765E-009  0.2238418E+03  0.7561462E-02  0.1131051E+00
         -1   -1    0    0    0  501 -0.00000000000E+00  0.00000000000E+00  0.14671167751E+03  0.14671167751E+03  0.00000000000E+00 0.  1.
          1   -1    0    0  501    0  0.00000000000E+00 -0.00000000000E+00 -0.37209396417E+03  0.37209396417E+03  0.00000000000E+00 0. -1.
         25    2    1    2    0    0  0.16265084149E+03 -0.12443874842E+03 -0.14627460793E+03  0.28104195729E+03  0.12509205606E+03 0.  0.
          5    1    3    3  502    0  0.17487911348E+03 -0.12329279717E+03 -0.15599438301E+03  0.26483115016E+03  0.41800000000E+01 0. -1.
         -5    1    3    3    0  502 -0.12228271992E+02 -0.11459512451E+01  0.97197750819E+01  0.16210807130E+02  0.41800000000E+01 0. -1.
        -11    1    1    2    0    0 -0.10363709429E+03  0.27524980232E+02 -0.59445091371E+02  0.12260501922E+03  0.00000000000E+00 0.  1.
         11    1    1    2    0    0 -0.59013747195E+02  0.96913768184E+02 -0.19662587362E+02  0.11515866517E+03  0.00000000000E+00 0. -1.
</event>
<event>
 7    1  0.2530765E-009  0.4059449E+03  0.7561462E-02  0.1041740E+00
         -2   -1    0    0    0  501 -0.00000000000E+00  0.00000000000E+00  0.14310861367E+03  0.14310861367E+03  0.00000000000E+00 0. -1.
          2   -1    0    0  501    0  0.00000000000E+00 -0.00000000000E+00 -0.19107904058E+04  0.19107904058E+04  0.00000000000E+00 0.  1.
         25    2    1    2    0    0 -0.35178567196E+03  0.17812445878E+03 -0.25079456331E+03  0.48376356971E+03  0.12509115308E+03 0.  0.
          5    1    3    3  502    0 -0.21043076791E+03  0.16351236525E+03 -0.12693419196E+03  0.29520698359E+03  0.41800000000E+01 0. -1.
         -5    1    3    3    0  502 -0.14135490406E+03  0.14612093529E+02 -0.12386037135E+03  0.18855658612E+03  0.41800000000E+01 0. -1.
        -11    1    1    2    0    0  0.78102742530E+02 -0.27624302459E+01 -0.36449874842E+03  0.37278278797E+03  0.00000000000E+00 0. -1.
         11    1    1    2    0    0  0.27368292943E+03 -0.17536202854E+03 -0.11523884804E+04  0.11973526618E+04  0.00000000000E+00 0.  1.
</event>
<event>
 7    1  0.2530765E-009  0.1634087E+03  0.7561462E-02  0.1184901E+00
         -2   -1    0    0    0  501 -0.00000000000E+00  0.00000000000E+00  0.11184764992E+03  0.11184764992E+03  0.00000000000E+00 0.  1.
          2   -1    0    0  501    0  0.00000000000E+00 -0.00000000000E+00 -0.24839478960E+03  0.24839478960E+03  0.00000000000E+00 0. -1.
         25    2    1    2    0    0  0.41928960167E+02  0.11967376629E+03 -0.73000327164E+02  0.19250402161E+03  0.12509557359E+03 0.  0.
          5    1    3    3  502    0 -0.42372509400E+02  0.61319334008E+02 -0.40129504662E+02  0.84754585838E+02  0.41800000000E+01 0.  1.
         -5    1    3    3    0  502  0.84301469568E+02  0.58354432282E+02 -0.32870822502E+02  0.10774943578E+03  0.41800000000E+01 0.  1.
        -11    1    1    2    0    0 -0.61738916541E+02 -0.57756626582E+02 -0.13318143788E+02  0.85585598577E+02  0.00000000000E+00 0.  1.
         11    1    1    2    0    0  0.19809956374E+02 -0.61917139709E+02 -0.50228668726E+02  0.82152819326E+02  0.00000000000E+00 0. -1.
</event>
<event>
 7    1  0.2530765E-009  0.9642239E+02  0.7561462E-02  0.1288004E+00
          1   -1    0    0  501    0  0.00000000000E+00  0.00000000000E+00  0.25532391472E+03  0.25532391472E+03  0.00000000000E+00 0. -1.
         -1   -1    0    0    0  501 -0.00000000000E+00 -0.00000000000E+00 -0.62989211591E+02  0.62989211591E+02  0.00000000000E+00 0.  1.
         25    2    1    2    0    0  0.67275451709E+02  0.90231593525E+00  0.10762272276E+03  0.17820203416E+03  0.12508602619E+03 0.  0.
          5    1    3    3  502    0  0.24461925899E+02  0.36142061349E+02 -0.12705408609E+02  0.45645747066E+02  0.41800000000E+01 0.  1.
         -5    1    3    3    0  502  0.42813525810E+02 -0.35239745414E+02  0.12032813137E+03  0.13255628710E+03  0.41800000000E+01 0.  1.
        -11    1    1    2    0    0 -0.27694690957E+02 -0.32535071570E+02  0.15803825343E+01  0.42755401977E+02  0.00000000000E+00 0. -1.
         11    1    1    2    0    0 -0.39580760752E+02  0.31632755635E+02  0.83131597831E+02  0.97355690171E+02  0.00000000000E+00 0.  1.
</event>
<event>
 7    1  0.2530765E-009  0.1302051E+03  0.7561462E-02  0.1227152E+00
         -1   -1    0    0    0  501 -0.00000000000E+00  0.00000000000E+00  0.42568199054E+02  0.42568199054E+02  0.00000000000E+00 0.  1.
          1   -1    0    0  501    0  0.00000000000E+00 -0.00000000000E+00 -0.43666375486E+03  0.43666375486E+03  0.00000000000E+00 0. -1.
         25    2    1    2    0    0 -0.51540088940E+02 -0.67291022892E+02 -0.22047243896E+03  0.26728267721E+03  0.12508985038E+03 0.  0.
          5    1    3    3  502    0 -0.92321934230E+02 -0.41312103158E+02 -0.13170499258E+03  0.16611353610E+03  0.41800000000E+01 0. -1.
         -5    1    3    3    0  502  0.40781845290E+02 -0.25978919734E+02 -0.88767446377E+02  0.10116914111E+03  0.41800000000E+01 0. -1.
        -11    1    1    2    0    0  0.16057352413E+01  0.60187858453E+02 -0.49413901112E+02  0.77890245307E+02  0.00000000000E+00 0.  1.
         11    1    1    2    0    0  0.49934353699E+02  0.71031644390E+01 -0.12420921574E+03  0.13405903140E+03  0.00000000000E+00 0. -1.
</event>
<event>
 7    1  0.2530765E-009  0.1182510E+03  0.7561462E-02  0.1246010E+00
          2   -1    0    0  501    0  0.00000000000E+00  0.00000000000E+00  0.95881615712E+03  0.95881615712E+03  0.00000000000E+00 0. -1.
         -2   -1    0    0    0  501 -0.00000000000E+00 -0.00000000000E+00 -0.30584184058E+02  0.30584184058E+02  0.00000000000E+00 0.  1.
         25    2    1    2    0    0  0.67150016648E+02  0.35756527061E+02  0.80805199392E+03  0.82120816199E+03  0.12508863444E+03 0.  0.
          5    1    3    3  502    0  0.27730857651E+02  0.68047644083E+02  0.66932576024E+03  0.67336017706E+03  0.41800000000E+01 0.  1.
         -5    1    3    3    0  502  0.39419158997E+02 -0.32291117021E+02  0.13872623369E+03  0.14784798493E+03  0.41800000000E+01 0.  1.
        -11    1    1    2    0    0  0.14572393560E+02  0.10414134505E+02  0.31744715619E+01  0.18190275459E+02  0.00000000000E+00 0.  1.
         11    1    1    2    0    0 -0.81722410208E+02 -0.46170661567E+02  0.11700550757E+03  0.15000190373E+03  0.00000000000E+00 0. -1.
</event>
<event>
 7    1  0.2530765E-009  0.1027885E+03  0.7561462E-02  0.1274539E+00
          1   -1    0    0  501    0  0.00000000000E+00  0.00000000000E+00  0.11972911487E+03  0.11972911487E+03  0.00000000000E+00 0. -1.
         -1   -1    0    0    0  501 -0.00000000000E+00 -0.00000000000E+00 -0.13693492043E+03  0.13693492043E+03  0.00000000000E+00 0.  1.
         25    2    1    2    0    0  0.52746316905E+02  0.39572794414E+02 -0.18954998563E+02  0.14267060138E+03  0.12508968192E+03 0.  0.
          5    1    3    3  502    0  0.41782037549E+02 -0.34889163166E+02  0.19595829927E+02  0.58003976749E+02  0.41800000000E+01 0. -1.
         -5    1    3    3    0  502  0.10964279355E+02  0.74461957580E+02 -0.38550828490E+02  0.84666624627E+02  0.41800000000E+01 0. -1.
        -11    1    1    2    0    0 -0.40668937170E+02 -0.75313654192E+01 -0.41659830245E+02  0.58704560059E+02  0.00000000000E+00 0.  1.
         11    1    1    2    0    0 -0.12077379734E+02 -0.32041428995E+02  0.43409023251E+02  0.55288873861E+02  0.00000000000E+00 0. -1.
</event>
<event>
 7    1  0.2530765E-009  0.2032477E+03  0.7561462E-02  0.1147028E+00
          2   -1    0    0  501    0  0.00000000000E+00  0.00000000000E+00  0.86301721045E+03  0.86301721045E+03  0.00000000000E+00 0. -1.
         -2   -1    0    0    0  501 -0.00000000000E+00 -0.00000000000E+00 -0.49626875585E+02  0.49626875585E+02  0.00000000000E+00 0.  1.
         25    2    1    2    0    0  0.17504184763E+03 -0.10447467598E+02  0.42962093165E+03  0.48059550287E+03  0.12509634073E+03 0.  0.
          5    1    3    3  502    0  0.30236686518E+01 -0.34997483365E+02  0.12464040882E+03  0.12956338343E+03  0.41800000000E+01 0.  1.
         -5    1    3    3    0  502  0.17201817898E+03  0.24550015767E+02  0.30498052283E+03  0.35103211944E+03  0.41800000000E+01 0.  1.
        -11    1    1    2    0    0 -0.60452988737E+02 -0.39598232514E+02  0.16357657522E+03  0.17882919176E+03  0.00000000000E+00 0.  1.
         11    1    1    2    0    0 -0.11458885890E+03  0.50045700112E+02  0.22019282800E+03  0.25321939141E+03  0.00000000000E+00 0. -1.
</event>
<event>
 7    1  0.2530765E-009  0.1070082E+03  0.7561462E-02  0.1266213E+00
         -2   -1    0    0    0  501 -0.00000000000E+00  0.00000000000E+00  0.32154561196E+03  0.32154561196E+03  0.00000000000E+00 0.  1.
          2   -1    0    0  501    0  0.00000000000E+00 -0.00000000000E+00 -0.62557766750E+02  0.62557766750E+02  0.00000000000E+00 0. -1.
         25    2    1    2    0    0 -0.66556668734E+02  0.10379115929E+02  0.23021010352E+03  0.27051548313E+03  0.12507765048E+03 0.  0.
          5    1    3    3  502    0  0.29392903732E+01  0.54570569431E+02  0.59289515090E+02  0.80742216191E+02  0.41800000000E+01 0.  1.
         -5    1    3    3    0  502 -0.69495959107E+02 -0.44191453502E+02  0.17092058843E+03  0.18977326694E+03  0.41800000000E+01 0.  1.
        -11    1    1    2    0    0  0.56311473174E+02  0.68224521177E+01  0.56057487661E+02  0.79749418724E+02  0.00000000000E+00 0.  1.
         11    1    1    2    0    0  0.10245195560E+02 -0.17201568046E+02 -0.27279745975E+02  0.33838476854E+02  0.00000000000E+00 0. -1.
</event>
<event>
 7    1  0.2530765E-009  0.8968827E+02  0.7561462E-02  0.1303608E+00
         -1   -1    0    0    0  501 -0.00000000000E+00  0.00000000000E+00  0.10206241420E+03  0.10206241420E+03  0.00000000000E+00 0.  1.
          1   -1    0    0  501    0  0.00000000000E+00 -0.00000000000E+00 -0.24210049035E+03  0.24210049035E+03  0.00000000000E+00 0. -1.
         25    2    1    2    0    0 -0.15351105657E+02 -0.81800134997E+01 -0.19797639152E+03  0.23482698499E+03  0.12508593932E+03 0.  0.
          5    1    3    3  502    0  0.99366213692E+01 -0.43186964328E+02 -0.15298849016E+02  0.47067796988E+02  0.41800000000E+01 0.  1.
         -5    1    3    3    0  502 -0.25287727027E+02  0.35006950828E+02 -0.18267754250E+03  0.18775918800E+03  0.41800000000E+01 0.  1.
        -11    1    1    2    0    0 -0.37180169859E+02 -0.44606062134E+01  0.15072409907E+02  0.40366317382E+02  0.00000000000E+00 0. -1.
         11    1    1    2    0    0  0.52531275517E+02  0.12640619713E+02  0.42865905461E+02  0.68969602182E+02  0.00000000000E+00 0.  1.
</event>
<event>
 7    1  0.2530765E-009  0.1012924E+03  0.7561462E-02  0.1277601E+00
          2   -1    0    0  501    0  0.00000000000E+00  0.00000000000E+00  0.39360555985E+03  0.39360555985E+03  0.00000000000E+00 0. -1.
         -2   -1    0    0    0  501 -0.00000000000E+00 -0.00000000000E+00 -0.41518250075E+02  0.41518250075E+02  0.00000000000E+00 0.  1.
         25    2    1    2    0    0  0.14106963375E+02 -0.49337347569E+02  0.27315904466E+03  0.30478131010E+03  0.12507039228E+03 0.  0.
          5    1    3    3  502    0 -0.43980628266E+02 -0.60315044403E+02  0.17189821991E+03  0.18745311588E+03  0.41800000000E+01 0. -1.
         -5    1    3    3    0  502  0.58087591641E+02  0.10977696834E+02  0.10126082474E+03  0.11732819422E+03  0.41800000000E+01 0. -1.
        -11    1    1    2    0    0 -0.29936155810E+02  0.22691232360E+02 -0.76926989301E+01  0.38343748741E+02  0.00000000000E+00 0. -1.
         11    1    1    2    0    0  0.15829192436E+02  0.26646115209E+02  0.86620964049E+02  0.91998751087E+02  0.00000000000E+00 0.  1.
</event>
<event>
 7    1  0.2530765E-009  0.1695420E+03  0.7561462E-02  0.1178326E+00
         -1   -1    0    0    0  501 -0.00000000000E+00  0.00000000000E+00  0.58512856020E+02  0.58512856020E+02  0.00000000000E+00 0. -1.
          1   -1    0    0  501    0  0.00000000000E+00 -0.00000000000E+00 -0.60927154679E+03  0.60927154679E+03  0.00000000000E+00 0.  1.
         25    2    1    2    0    0 -0.12132054517E+03  0.82132361535E+02 -0.20205529957E+03  0.27917544360E+03  0.12509270456E+03 0.  0.
          5    1    3    3  502    0  0.11380869058E+02 -0.20904216167E+02 -0.19592821720E+02  0.31110472465E+02  0.41800000000E+01 0.  1.
         -5    1    3    3    0  502 -0.13270141423E+03  0.10303657770E+03 -0.18246247785E+03  0.24806497113E+03  0.41800000000E+01 0.  1.
        -11    1    1    2    0    0  0.11264041607E+03 -0.72819327613E+02 -0.35092597347E+03  0.37568544909E+03  0.00000000000E+00 0.  1.
         11    1    1    2    0    0  0.86801290951E+01 -0.93130339220E+01  0.22225822573E+01  0.12923510120E+02  0.00000000000E+00 0. -1.
</event>
<event>
 7    1  0.2530765E-009  0.7959420E+02  0.7561462E-02  0.1330207E+00
          1   -1    0    0  501    0  0.00000000000E+00  0.00000000000E+00  0.61331958203E+02  0.61331958203E+02  0.00000000000E+00 0. -1.
         -1   -1    0    0    0  501 -0.00000000000E+00 -0.00000000000E+00 -0.21046378794E+03  0.21046378794E+03  0.00000000000E+00 0.  1.
         25    2    1    2    0    0 -0.96607147905E+01 -0.16311876755E+02 -0.10867815706E+03  0.16678343553E+03  0.12508543404E+03 0.  0.
          5    1    3    3  502    0  0.28093601600E+02 -0.14008707730E+02 -0.12232315371E+03  0.12635632424E+03  0.41800000000E+01 0.  1.
         -5    1    3    3    0  502 -0.37754316390E+02 -0.23031690255E+01  0.13644996640E+02  0.40427111286E+02  0.41800000000E+01 0.  1.
        -11    1    1    2    0    0  0.48812401062E+02  0.89448320467E+01 -0.42190055648E+02  0.65135714576E+02  0.00000000000E+00 0.  1.
         11    1    1    2    0    0 -0.39151686271E+02  0.73670447086E+01  0.17363829791E+01  0.39876596036E+02  0.00000000000E+00 0. -1.
</event>
<event>
 7    1  0.2530765E-009  0.8061624E+02  0.7561462E-02  0.1327312E+00
          2   -1    0    0  501    0  0.00000000000E+00  0.00000000000E+00  0.24025991822E+03  0.24025991822E+03  0.00000000000E+00 0.  1.
         -2   -1    0    0    0  501 -0.00000000000E+00 -0.00000000000E+00 -0.16733289849E+03  0.16733289849E+03  0.00000000000E+00 0. -1.
         25    2    1    2    0    0  0.22599733668E+02 -0.18416930110E+02  0.20614662199E+03  0.24288623267E+03  0.12508941197E+03 0.  0.
          5    1    3    3  502    0  0.53525920691E+02 -0.16575306513E+01  0.19980624783E+03  0.20690041243E+03  0.41800000000E+01 0. -1.
         -5    1    3    3    0  502 -0.30926187023E+02 -0.16759399459E+02  0.63403741634E+01  0.35985820242E+02  0.41800000000E+01 0. -1.
        -11    1    1    2    0    0 -0.43524594206E+01  0.42029147255E+02 -0.18424358806E+02  0.46096096574E+02  0.00000000000E+00 0.  1.
         11    1    1    2    0    0 -0.18247274247E+02 -0.23612217145E+02 -0.11479524345E+03  0.11861048746E+03  0.00000000000E+00 0. -1.
</event>
<event>
 7    1  0.2530765E-009  0.1093022E+03  0.7561462E-02  0.1261868E+00
         -2   -1    0    0    0  501 -0.00000000000E+00  0.00000000000E+00  0.41072798635E+02  0.41072798635E+02  0.00000000000E+00 0.  1.
          2   -1    0    0  501    0  0.00000000000E+00 -0.00000000000E+00 -0.35578507078E+03  0.35578507078E+03  0.00000000000E+00 0. -1.
         25    2    1    2    0    0  0.11926781781E+02  0.43715891144E+02 -0.12925541754E+03  0.18549417917E+03  0.12509116788E+03 0.  0.
          5    1    3    3  502    0 -0.34649714960E+02  0.62468063057E+02 -0.11067766215E+03  0.13179483657E+03  0.41800000000E+01 0.  1.
         -5    1    3    3    0  502  0.46576496741E+02 -0.18752171913E+02 -0.18577755392E+02  0.53699342598E+02  0.41800000000E+01 0.  1.
        -11    1    1    2    0    0  0.14502740829E+02 -0.62550961985E+02 -0.90127113464E+02  0.11066096384E+03  0.00000000000E+00 0. -1.
         11    1    1    2    0    0 -0.26429522610E+02  0.18835070841E+02 -0.95329741140E+02  0.10070272640E+03  0.00000000000E+00 0.  1.
</event>
<event>
 7    1  0.2530765E-009  0.1116021E+03  0.7561462E-02  0.1257631E+00
         -1   -1    0    0    0  501 -0.00000000000E+00  0.00000000000E+00  0.64681671420E+02  0.64681671420E+02  0.00000000000E+00 0.  1.
          1   -1    0    0  501    0  0.00000000000E+00 -0.00000000000E+00 -0.23989298787E+03  0.23989298787E+03  0.00000000000E+00 0. -1.
         25    2    1    2    0    0  0.30637409967E+02 -0.20841765764E+02 -0.15683153834E+03  0.20400215548E+03  0.12509083872E+03 0.  0.
          5    1    3    3  502    0  0.60264615176E+01  0.51436197505E+02 -0.46267623652E+02  0.69571301918E+02  0.41800000000E+01 0. -1.
         -5    1    3    3    0  502  0.24610948449E+02 -0.72277963269E+02 -0.11056391469E+03  0.13443085356E+03  0.41800000000E+01 0. -1.
        -11    1    1    2    0    0 -0.47457419155E+02  0.44962220302E+02  0.95185515017E+00  0.65381296374E+02  0.00000000000E+00 0.  1.
         11    1    1    2    0    0  0.16820009188E+02 -0.24120454538E+02 -0.19331633256E+02  0.35191207433E+02  0.00000000000E+00 0. -1.
</event>
<event>
 7    1  0.2530765E-009  0.1117977E+03  0.7561462E-02  0.1257277E+00
         -1   -1    0    0    0  501 -0.00000000000E+00  0.00000000000E+00  0.14500666360E+03  0.14500666360E+03  0.00000000000E+00 0.  1.
          1   -1    0    0  501    0  0.00000000000E+00 -0.00000000000E+00 -0.12240422253E+03  0.12240422253E+03  0.00000000000E+00 0. -1.
         25    2    1    2    0    0 -0.23465625515E+02  0.74444314199E+02 -0.31153265556E+01  0.14747550952E+03  0.12508688641E+03 0.  0.
          5    1    3    3  502    0  0.91846160107E+01  0.83794518417E+02 -0.43165454292E+02  0.94797717970E+02  0.41800000000E+01 0.  1.
         -5    1    3    3    0  502 -0.32650241525E+02 -0.93502042187E+01  0.40050127737E+02  0.52677791548E+02  0.41800000000E+01 0.  1.
        -11    1    1    2    0    0  0.30398474970E+02 -0.18984816786E+00  0.33162532482E+02  0.44987296912E+02  0.00000000000E+00 0.  1.
         11    1    1    2    0    0 -0.69328494551E+01 -0.74254466031E+02 -0.74447648640E+01  0.74948079702E+02  0.00000000000E+00 0. -1.
</event>
<event>
 7    1  0.2530765E-009  0.1739768E+03  0.7561462E-02  0.1173763E+00
         -2   -1    0    0    0  501 -0.00000000000E+00  0.00000000000E+00  0.74792506089E+02  0.74792506089E+02  0.00000000000E+00 0. -1.
          2   -1    0    0  501    0  0.00000000000E+00 -0.00000000000E+00 -0.48086967103E+03  0.48086967103E+03  0.00000000000E+00 0.  1.
         25    2    1    2    0    0  0.11330373958E+03 -0.87541599592E+02 -0.12626774881E+03  0.22823871269E+03  0.12509235196E+03 0.  0.
          5    1    3    3  502    0  0.14067451311E+03 -0.69526063983E+02 -0.10737765070E+03  0.19018576309E+03  0.41800000000E+01 0.  1.
         -5    1    3    3    0  502 -0.27370773530E+02 -0.18015535609E+02 -0.18890098111E+02  0.38052949604E+02  0.41800000000E+01 0.  1.
        -11    1    1    2    0    0 -0.36227757686E+02 -0.60218203663E+01 -0.22711010938E+02  0.43179888436E+02  0.00000000000E+00 0. -1.
         11    1    1    2    0    0 -0.77075981895E+02  0.93563419958E+02 -0.25709840520E+03  0.28424357599E+03  0.00000000000E+00 0.  1.
</event>
<event>
 7    1  0.2530765E-009  0.1509363E+03  0.7561462E-02  0.1199327E+00
          1   -1    0    0  501    0  0.00000000000E+00  0.00000000000E+00  0.94630267511E+03  0.94630267511E+03  0.00000000000E+00 0. -1.
         -1   -1    0    0    0  501 -0.00000000000E+00 -0.00000000000E+00 -0.30278732356E+02  0.30278732356E+02  0.00000000000E+00 0.  1.
         25    2    1    2    0    0 -0.81655652621E+02 -0.68534809708E+02  0.27392631250E+03  0.31944996347E+03  0.12509192112E+03 0.  0.
          5    1    3    3  502    0 -0.23912623781E+02  0.36198555431E+02  0.57623068402E+02  0.72249840162E+02  0.41800000000E+01 0.  1.
         -5    1    3    3    0  502 -0.57743028841E+02 -0.10473336514E+03  0.21630324410E+03  0.24720012330E+03  0.41800000000E+01 0.  1.
        -11    1    1    2    0    0  0.97819275012E+02  0.72759113942E+02  0.58832068460E+03  0.60081921337E+03  0.00000000000E+00 0. -1.
         11    1    1    2    0    0 -0.16163622390E+02 -0.42243042345E+01  0.53776945652E+02  0.56312230632E+02  0.00000000000E+00 0.  1.
</event>
<event>
 7    1  0.2530765E-009  0.1085740E+03  0.7561462E-02  0.1263234E+00
         -1   -1    0    0    0  501 -0.00000000000E+00  0.00000000000E+00  0.31744350965E+02  0.31744350965E+02  0.00000000000E+00 0.  1.
          1   -1    0    0  501    0  0.00000000000E+00 -0.00000000000E+00 -0.41604756456E+03  0.41604756456E+03  0.00000000000E+00 0. -1.
         25    2    1    2    0    0 -0.18659253128E+02  0.16622539174E+02 -0.28551131366E+03  0.31271142269E+03  0.12508895681E+03 0.  0.
          5    1    3    3  502    0  0.20060269498E+02  0.61957761817E+02 -0.17977674650E+03  0.19125461993E+03  0.41800000000E+01 0.  1.
         -5    1    3    3    0  502 -0.38719522626E+02 -0.45335222644E+02 -0.10573456716E+03  0.12145680276E+03  0.41800000000E+01 0.  1.
        -11    1    1    2    0    0 -0.32895880823E+02  0.96204109111E+01 -0.36521484527E+02  0.50085028834E+02  0.00000000000E+00 0.  1.
         11    1    1    2    0    0  0.51555133952E+02 -0.26242950085E+02 -0.62270415409E+02  0.84995464003E+02  0.00000000000E+00 0. -1.
</event>
<event>
 7    1  0.2530765E-009  0.1214870E+03  0.7561462E-02  0.1240664E+00
         -2   -1    0    0    0  501 -0.00000000000E+00  0.00000000000E+00  0.38249825536E+02  0.38249825536E+02  0.00000000000E+00 0.  1.
          2   -1    0    0  501    0  0.00000000000E+00 -0.00000000000E+00 -0.66243648717E+03  0.66243648717E+03  0.00000000000E+00 0. -1.
         25    2    1    2    0    0 -0.36322160492E+02  0.10849407760E+03 -0.39134153123E+03  0.42648088944E+03  0.12508993077E+03 0.  0.
          5    1    3    3  502    0  0.38821779895E+01  0.68658953379E+01  0.82722536273E+01  0.12170226161E+02  0.41800000000E+01 0.  1.
         -5    1    3    3    0  502 -0.40204338482E+02  0.10162818227E+03 -0.39961378486E+03  0.41431066328E+03  0.41800000000E+01 0.  1.
        -11    1    1    2    0    0 -0.38346336472E+00 -0.74951256211E+02 -0.65201660950E+02  0.99343316043E+02  0.00000000000E+00 0.  1.
         11    1    1    2    0    0  0.36705623857E+02 -0.33542821393E+02 -0.16764346945E+03  0.17486210722E+03  0.00000000000E+00 0. -1.
</event>
<event>
 7    1  0.2530765E-009  0.1797753E+03  0.7561462E-02  0.1168021E+00
         -2   -1    0    0    0  501 -0.00000000000E+00  0.00000000000E+00  0.28479721871E+02  0.28479721871E+02  0.00000000000E+00 0.  1.
          2   -1    0    0  501    0  0.00000000000E+00 -0.00000000000E+00 -0.13849460403E+04  0.13849460403E+04  0.00000000000E+00 0. -1.
         25    2    1    2    0    0 -0.61689039311E+02  0.15318444945E+03 -0.75511961284E+03  0.78302284089E+03  0.12509247197E+03 0.  0.
          5    1    3    3  502    0 -0.25433172406E+02  0.15085682093E+03 -0.44139785420E+03  0.46717680248E+03  0.41800000000E+01 0. -1.
         -5    1    3    3    0  502 -0.36255866906E+02  0.23276285133E+01 -0.31372175863E+03  0.31584603841E+03  0.41800000000E+01 0. -1.
        -11    1    1    2    0    0 -0.16780084238E+01 -0.41461104478E+02 -0.53526964391E+02  0.67727208814E+02  0.00000000000E+00 0.  1.
         11    1    1    2    0    0  0.63367047735E+02 -0.11172334497E+03 -0.54781974123E+03  0.56267571250E+03  0.00000000000E+00 0. -1.
</event>
<event>
 7    1  0.2530765E-009  0.1030285E+03  0.7561462E-02  0.1274053E+00
          1   -1    0    0  501    0  0.00000000000E+00  0.00000000000E+00  0.11340622057E+04  0.11340622057E+04  0.00000000000E+00 0. -1.
         -1   -1    0    0    0  501 -0.00000000000E+00 -0.00000000000E+00 -0.13253332827E+02  0.13253332827E+02  0.00000000000E+00 0.  1.
         25    2    1    2    0    0 -0.12241036123E+02  0.41677700288E+02  0.82400029602E+03  0.83457193156E+03  0.12508775896E+03 0.  0.
          5    1    3    3  502    0  0.54926769556E+02  0.28159528069E+02  0.32073956604E+03  0.32665157379E+03  0.41800000000E+01 0.  1.
         -5    1    3    3    0  502 -0.67167805678E+02  0.13518172219E+02  0.50326072998E+03  0.50792035777E+03  0.41800000000E+01 0.  1.
        -11    1    1    2    0    0  0.30356383915E+02 -0.27591088952E+00  0.32008557639E+02  0.44115008028E+02  0.00000000000E+00 0.  1.
         11    1    1    2    0    0 -0.18115347793E+02 -0.41401789399E+02  0.26480001919E+03  0.26862859891E+03  0.00000000000E+00 0. -1.
</event>
<event>
 7    1  0.2530765E-009  0.9339299E+02  0.7561462E-02  0.1294837E+00
          2   -1    0    0  501    0  0.00000000000E+00  0.00000000000E+00  0.71008334062E+03  0.71008334062E+03  0.00000000000E+00 0. -1.
         -2   -1    0    0    0  501 -0.00000000000E+00 -0.00000000000E+00 -0.34021672794E+02  0.34021672794E+02  0.00000000000E+00 0.  1.
         25    2    1    2    0    0  0.84914311686E+02  0.20453354560E+02  0.52973731102E+03  0.55126879320E+03  0.12508750388E+03 0.  0.
          5    1    3    3  502    0  0.85155182005E+02  0.28496316010E+02  0.17797013235E+03  0.19938476736E+03  0.41800000000E+01 0.  1.
         -5    1    3    3    0  502 -0.24087031844E+00 -0.80429614496E+01  0.35176717868E+03  0.35188402584E+03  0.41800000000E+01 0.  1.
        -11    1    1    2    0    0 -0.56289300725E+02 -0.17987861294E+02  0.18646478257E+02  0.61965633067E+02  0.00000000000E+00 0.  1.
         11    1    1    2    0    0 -0.28625010961E+02 -0.24654932655E+01  0.12767787854E+03  0.13087058714E+03  0.00000000000E+00 0. -1.
</event>
<event>
 7    1  0.2530765E-009  0.8059615E+02  0.7561462E-02  0.1327368E+00
         -3   -1    0    0    0  501 -0.00000000000E+00  0.00000000000E+00  0.29197683537E+02  0.29197683537E+02  0.00000000000E+00 0.  1.
          3   -1    0    0  501    0  0.00000000000E+00 -0.00000000000E+00 -0.50683514686E+03  0.50683514686E+03  0.00000000000E+00 0. -1.
         25    2    1    2    0    0 -0.52923308410E+02 -0.21013248740E+02 -0.28695167745E+03  0.31816627584E+03  0.12508429435E+03 0.  0.
          5    1    3    3  502    0 -0.28533844650E+02 -0.42039793706E+02 -0.29961680342E+02  0.59132894689E+02  0.41800000000E+01 0. -1.
         -5    1    3    3    0  502 -0.24389463760E+02  0.21026544967E+02 -0.25698999711E+03  0.25903338115E+03  0.41800000000E+01 0. -1.
        -11    1    1    2    0    0  0.63559426834E+02  0.21487181756E+02 -0.19512028011E+03  0.20633328240E+03  0.00000000000E+00 0. -1.
         11    1    1    2    0    0 -0.10636118424E+02 -0.47393301637E+00  0.44344942280E+01  0.11533272159E+02  0.00000000000E+00 0.  1.
</event>
<event>
 7    1  0.2530765E-009  0.9572362E+02  0.7561462E-02  0.1289555E+00
         -1   -1    0    0    0  501 -0.00000000000E+00  0.00000000000E+00  0.19350801278E+02  0.19350801278E+02  0.00000000000E+00 0.  1.
          1   -1    0    0  501    0  0.00000000000E+00 -0.00000000000E+00 -0.68697467114E+03  0.68697467114E+03  0.00000000000E+00 0. -1.
         25    2    1    2    0    0  0.20273282835E+02 -0.37303499093E+02 -0.42863929497E+03  0.44853334001E+03  0.12509178577E+03 0.  0.
          5    1    3    3  502    0  0.24006369348E+01  0.45637456670E+02 -0.12202362995E+03  0.13036786098E+03  0.41800000000E+01 0. -1.
         -5    1    3    3    0  502  0.17872645900E+02 -0.82940955763E+02 -0.30661566502E+03  0.31816547904E+03  0.41800000000E+01 0. -1.
        -11    1    1    2    0    0 -0.16664834705E+02 -0.55792352491E+01 -0.28929981431E+01  0.17810503080E+02  0.00000000000E+00 0.  1.
         11    1    1    2    0    0 -0.36084481301E+01  0.42882734342E+02 -0.23609157675E+03  0.23998162932E+03  0.00000000000E+00 0. -1.
</event>
<event>
 7    1  0.2530765E-009  0.1530957E+03  0.7561462E-02  0.1196720E+00
         -2   -1    0    0    0  501 -0.00000000000E+00  0.00000000000E+00  0.59605062291E+02  0.59605062291E+02  0.00000000000E+00 0. -1.
          2   -1    0    0  501    0  0.00000000000E+00 -0.00000000000E+00 -0.43049392263E+03  0.43049392263E+03  0.00000000000E+00 0.  1.
         25    2    1    2    0    0  0.61914830079E+02 -0.96597181912E+02 -0.21274940025E+03  0.27216570451E+03  0.12508957457E+03 0.  0.
          5    1    3    3  502    0  0.20223230909E+02 -0.11260493767E+03 -0.19011631504E+03  0.22192461941E+03  0.41800000000E+01 0. -1.
         -5    1    3    3    0  502  0.41691599171E+02  0.16007755755E+02 -0.22633085212E+02  0.50241085099E+02  0.41800000000E+01 0. -1.
        -11    1    1    2    0    0  0.22610131138E+02  0.69766313745E+01 -0.44166243539E+02  0.50105373802E+02  0.00000000000E+00 0.  1.
         11    1    1    2    0    0 -0.84524961218E+02  0.89620550538E+02 -0.11397321655E+03  0.16782790661E+03  0.00000000000E+00 0. -1.
</event>
<event>
 7    1  0.2530765E-009  0.1175781E+03  0.7561462E-02  0.1247147E+00
         -1   -1    0    0    0  501 -0.00000000000E+00  0.00000000000E+00  0.21506768119E+02  0.21506768119E+02  0.00000000000E+00 0.  1.
          1   -1    0    0  501    0  0.00000000000E+00 -0.00000000000E+00 -0.72492287843E+03  0.72492287843E+03  0.00000000000E+00 0. -1.
         25    2    1    2    0    0 -0.99142289110E+01  0.55918752129E+02 -0.33415199638E+03  0.36128975838E+03  0.12509010372E+03 0.  0.
          5    1    3    3  502    0 -0.57242633866E+02  0.57393722107E+02 -0.14414420308E+03  0.16542606249E+03  0.41800000000E+01 0. -1.
         -5    1    3    3    0  502  0.47328404955E+02 -0.14749699781E+01 -0.19000779330E+03  0.19586369588E+03  0.41800000000E+01 0. -1.
        -11    1    1    2    0    0  0.91363632643E+01  0.24439111558E+02 -0.13436471424E+03  0.13687446709E+03  0.00000000000E+00 0.  1.
         11    1    1    2    0    0  0.77786564663E+00 -0.80357863687E+02 -0.23489939968E+03  0.24826542108E+03  0.00000000000E+00 0. -1.
</event>
<event>
 7    1  0.2530765E-009  0.1101479E+03  0.7561462E-02  0.1260296E+00
         -1   -1    0    0    0  501 -0.00000000000E+00  0.00000000000E+00  0.22609173828E+03  0.22609173828E+03  0.00000000000E+00 0.  1.
          1   -1    0    0  501    0  0.00000000000E+00 -0.00000000000E+00 -0.10366267711E+03  0.10366267711E+03  0.00000000000E+00 0. -1.
         25    2    1    2    0    0  0.23424169157E+02  0.73051298346E+02 -0.16168792197E+02  0.14762750504E+03  0.12508903434E+03 0.  0.
          5    1    3    3  502    0 -0.85373991528E+01 -0.28990462078E+02 -0.26107932952E+02  0.40155082354E+02  0.41800000000E+01 0. -1.
         -5    1    3    3    0  502  0.31961568310E+02  0.10204176042E+03  0.99391407548E+01  0.10747242269E+03  0.41800000000E+01 0. -1.
        -11    1    1    2    0    0  0.75257806873E+01 -0.19808807742E+02  0.11376901875E+03  0.11572560593E+03  0.00000000000E+00 0.  1.
         11    1    1    2    0    0 -0.30949949844E+02 -0.53242490604E+02  0.24828834607E+02  0.66401304422E+02  0.00000000000E+00 0. -1.
</event>
<event>
 7    1  0.2530765E-009  0.1108559E+03  0.7561462E-02  0.1258993E+00
         -2   -1    0    0    0  501 -0.00000000000E+00  0.00000000000E+00  0.76750762666E+02  0.76750762666E+02  0.00000000000E+00 0.  1.
          2   -1    0    0  501    0  0.00000000000E+00 -0.00000000000E+00 -0.30664197185E+03  0.30664197185E+03  0.00000000000E+00 0. -1.
         25    2    1    2    0    0  0.27572639936E+02 -0.64981186757E+02 -0.22608045781E+03  0.26783931184E+03  0.12507085373E+03 0.  0.
          5    1    3    3  502    0  0.60461129905E+02 -0.85189983587E+02 -0.15779115500E+03  0.18928392042E+03  0.41800000000E+01 0. -1.
         -5    1    3    3    0  502 -0.32888489968E+02  0.20208796830E+02 -0.68289302814E+02  0.78555391416E+02  0.41800000000E+01 0. -1.
        -11    1    1    2    0    0 -0.31127071767E+02  0.30184817159E+02 -0.44340981087E+02  0.62017258787E+02  0.00000000000E+00 0. -1.
         11    1    1    2    0    0  0.35544318301E+01  0.34796369598E+02  0.40530229721E+02  0.53536163890E+02  0.00000000000E+00 0.  1.
</event>
<event>
 7    1  0.2530765E-009  0.1200202E+03  0.7561462E-02  0.1243064E+00
          1   -1    0    0  501    0  0.00000000000E+00  0.00000000000E+00  0.98679565129E+02  0.98679565129E+02  0.00000000000E+00 0. -1.
         -1   -1    0    0    0  501 -0.00000000000E+00 -0.00000000000E+00 -0.16516167422E+03  0.16516167422E+03  0.00000000000E+00 0.  1.
         25    2    1    2    0    0  0.74011719252E+01 -0.52793137510E+02  0.44102488443E+01  0.13604516093E+03  0.12508774042E+03 0.  0.
          5    1    3    3  502    0  0.45370710626E+02 -0.77120315861E+02  0.11125515266E+02  0.90262361985E+02  0.41800000000E+01 0. -1.
         -5    1    3    3    0  502 -0.37969538701E+02  0.24327178351E+02 -0.67152664222E+01  0.45782798940E+02  0.41800000000E+01 0. -1.
        -11    1    1    2    0    0 -0.34676805579E+02 -0.10522277311E+02 -0.33586516732E+02  0.49409040378E+02  0.00000000000E+00 0.  1.
         11    1    1    2    0    0  0.27275633654E+02  0.63315414820E+02 -0.37305841199E+02  0.78387038040E+02  0.00000000000E+00 0. -1.
</event>
<event>
 7    1  0.2530765E-009  0.1600968E+03  0.7561462E-02  0.1188587E+00
          2   -1    0    0  501    0  0.00000000000E+00  0.00000000000E+00  0.16238187470E+03  0.16238187470E+03  0.00000000000E+00 0. -1.
         -2   -1    0    0    0  501 -0.00000000000E+00 -0.00000000000E+00 -0.23549234161E+03  0.23549234161E+03  0.00000000000E+00 0.  1.
         25    2    1    2    0    0 -0.12525022638E+03 -0.13143398555E+02  0.65920621559E+02  0.18935130741E+03  0.12509205066E+03 0.  0.
          5    1    3    3  502    0 -0.14046236882E+03 -0.28536964336E+02  0.79006309739E+02  0.16371775947E+03  0.41800000000E+01 0.  1.
         -5    1    3    3    0  502  0.15212142439E+02  0.15393565781E+02 -0.13085688180E+02  0.25633547944E+02  0.41800000000E+01 0.  1.
        -11    1    1    2    0    0  0.12643075062E+03  0.36326328594E+02 -0.12460433605E+03  0.18119210085E+03  0.00000000000E+00 0.  1.
         11    1    1    2    0    0 -0.11805242391E+01 -0.23182930039E+02 -0.14426752420E+02  0.27330808039E+02  0.00000000000E+00 0. -1.
</event>
<event>
 7    1  0.3747019E-009  0.1071308E+03  0.7561462E-02  0.1265977E+00
          2   -1    0    0  501    0  0.00000000000E+00  0.00000000000E+00  0.14942807710E+03  0.14942807710E+03  0.00000000000E+00 0. -1.
         -2   -1    0    0    0  501 -0.00000000000E+00 -0.00000000000E+00 -0.12305287202E+03  0.12305287202E+03  0.00000000000E+00 0.  1.
         25    2    1    2    0    0 -0.27012606854E+01  0.71585955423E+02  0.52844563166E+02  0.15353326245E+03  0.12509224196E+03 0.  0.
          5    1    3    3  502    0 -0.56104102611E+02  0.68426884089E+02  0.44816167563E+02  0.99276734792E+02  0.41800000000E+01 0.  1.
         -5    1    3    3    0  502  0.53402841925E+02  0.31590713344E+01  0.80283956030E+01  0.54256527657E+02  0.41800000000E+01 0.  1.
        -11    1    1    2    0    0 -0.25689858687E+01 -0.20746549287E+02  0.33912235196E+02  0.39837905212E+02  0.00000000000E+00 0. -1.
         11    1    1    2    0    0  0.52702465541E+01 -0.50839406136E+02 -0.60381593279E+02  0.79109781455E+02  0.00000000000E+00 0.  1.
</event>
<event>
 7    1  0.2530765E-009  0.1660797E+03  0.7561462E-02  0.1181999E+00
          1   -1    0    0  501    0  0.00000000000E+00  0.00000000000E+00  0.68807059213E+03  0.68807059213E+03  0.00000000000E+00 0. -1.
         -1   -1    0    0    0  501 -0.00000000000E+00 -0.00000000000E+00 -0.53503922532E+02  0.53503922532E+02  0.00000000000E+00 0.  1.
         25    2    1    2    0    0 -0.67616201696E+02  0.14236482378E+03  0.31138499560E+03  0.37074011663E+03  0.12509166564E+03 0.  0.
          5    1    3    3  502    0 -0.19225661202E+02 -0.11799648666E+01 -0.46501281448E+01  0.20251282860E+02  0.41800000000E+01 0.  1.
         -5    1    3    3    0  502 -0.48390540495E+02  0.14354478864E+03  0.31603512374E+03  0.35048883377E+03  0.41800000000E+01 0.  1.
        -11    1    1    2    0    0  0.25108972294E+01 -0.36782689246E+02  0.16887420218E+03  0.17285186431E+03  0.00000000000E+00 0. -1.
         11    1    1    2    0    0  0.65105304467E+02 -0.10558213453E+03  0.15430747182E+03  0.19798253373E+03  0.00000000000E+00 0.  1.
</event>
<event>
 7    1  0.2530765E-009  0.1204189E+03  0.7561462E-02  0.1242408E+00
          2   -1    0    0  501    0  0.00000000000E+00  0.00000000000E+00  0.25960077098E+03  0.25960077098E+03  0.00000000000E+00 0. -1.
         -2   -1    0    0    0  501 -0.00000000000E+00 -0.00000000000E+00 -0.56547892872E+02  0.56547892872E+02  0.00000000000E+00 0.  1.
         25    2    1    2    0    0  0.12515274472E+01 -0.53387265541E+02  0.10500855428E+03  0.17183089372E+03  0.12508914070E+03 0.  0.
          5    1    3    3  502    0  0.19399786866E+02  0.37784018326E+02  0.27990640987E+02  0.51038535973E+02  0.41800000000E+01 0. -1.
         -5    1    3    3    0  502 -0.18148259419E+02 -0.91171283867E+02  0.77017913291E+02  0.12079235775E+03  0.41800000000E+01 0. -1.
        -11    1    1    2    0    0 -0.21658138781E+02 -0.19666602469E+02  0.19688920225E+02  0.35263349356E+02  0.00000000000E+00 0.  1.
         11    1    1    2    0    0  0.20406611334E+02  0.73053868010E+02  0.78355403605E+02  0.10905442078E+03  0.00000000000E+00 0. -1.
</event>
<event>
 7    1  0.2530765E-009  0.1151570E+03  0.7561462E-02  0.1251307E+00
          1   -1    0    0  501    0  0.00000000000E+00  0.00000000000E+00  0.85908675041E+02  0.85908675041E+02  0.00000000000E+00 0. -1.
         -1   -1    0    0    0  501 -0.00000000000E+00 -0.00000000000E+00 -0.20036800379E+03  0.20036800379E+03  0.00000000000E+00 0.  1.
         25    2    1    2    0    0  0.60515800128E+02  0.23511292745E+02 -0.10110270094E+03  0.17344955163E+03  0.12509215752E+03 0.  0.
          5    1    3    3  502    0 -0.27238000766E+02 -0.21944877259E+02 -0.50801425409E+01  0.35591664359E+02  0.41800000000E+01 0. -1.
         -5    1    3    3    0  502  0.87753800894E+02  0.45456170004E+02 -0.96022558394E+02  0.13785788727E+03  0.41800000000E+01 0. -1.
        -11    1    1    2    0    0 -0.50216708675E+02 -0.48084709189E+02 -0.35607449864E+02  0.78113683652E+02  0.00000000000E+00 0.  1.
         11    1    1    2    0    0 -0.10299091454E+02  0.24573416444E+02  0.22250822053E+02  0.34713443542E+02  0.00000000000E+00 0. -1.
</event>
<event>
 7    1  0.2530765E-009  0.1009201E+03  0.7561462E-02  0.1278373E+00
         -2   -1    0    0    0  501 -0.00000000000E+00  0.00000000000E+00  0.38148670841E+02  0.38148670841E+02  0.00000000000E+00 0.  1.
          2   -1    0    0  501    0  0.00000000000E+00 -0.00000000000E+00 -0.43506407765E+03  0.43506407765E+03  0.00000000000E+00 0. -1.
         25    2    1    2    0    0 -0.21632877286E+02 -0.24397295442E+02 -0.10620292095E+03  0.16729724301E+03  0.12508436231E+03 0.  0.
          5    1    3    3  502    0 -0.14664444762E+02 -0.67003847537E+02 -0.21276449280E+02  0.71935535161E+02  0.41800000000E+01 0. -1.
         -5    1    3    3    0  502 -0.69684325236E+01  0.42606552095E+02 -0.84926471674E+02  0.95361707851E+02  0.41800000000E+01 0. -1.
        -11    1    1    2    0    0  0.53215658390E+02  0.23445440590E+02 -0.13439200676E+03  0.14643362477E+03  0.00000000000E+00 0.  1.
         11    1    1    2    0    0 -0.31582781104E+02  0.95185485142E+00 -0.15632047910E+03  0.15948188072E+03  0.00000000000E+00 0. -1.
</event>
<event>
 7    1  0.2530765E-009  0.2090921E+03  0.7561462E-02  0.1142287E+00
         -1   -1    0    0    0  501 -0.00000000000E+00  0.00000000000E+00  0.75359519675E+02  0.75359519675E+02  0.00000000000E+00 0.  1.
          1   -1    0    0  501    0  0.00000000000E+00 -0.00000000000E+00 -0.87152597768E+03  0.87152597768E+03  0.00000000000E+00 0. -1.
         25    2    1    2    0    0 -0.18713506937E+03  0.79685574377E+02 -0.20100145045E+03  0.31211397027E+03  0.12507686597E+03 0.  0.
          5    1    3    3  502    0 -0.81132737004E+02  0.24871878765E+02 -0.16794640481E+03  0.18821423606E+03  0.41800000000E+01 0. -1.
         -5    1    3    3    0  502 -0.10600233237E+03  0.54813695612E+02 -0.33055045637E+02  0.12389973420E+03  0.41800000000E+01 0. -1.
        -11    1    1    2    0    0  0.12757475035E+03 -0.19353631147E+02 -0.27825474941E+03  0.30671743598E+03  0.00000000000E+00 0.  1.
         11    1    1    2    0    0  0.59560319020E+02 -0.60331943230E+02 -0.31691025814E+03  0.32805409110E+03  0.00000000000E+00 0. -1.
</event>
<event>
 7    1  0.2530765E-009  0.1002689E+03  0.7561462E-02  0.1279731E+00
         -4   -1    0    0    0  501 -0.00000000000E+00  0.00000000000E+00  0.29279660314E+02  0.29279660314E+02  0.00000000000E+00 0. -1.
          4   -1    0    0  501    0  0.00000000000E+00 -0.00000000000E+00 -0.43035978277E+03  0.43035978277E+03  0.00000000000E+00 0.  1.
         25    2    1    2    0    0  0.76747733736E+01  0.24878159026E+02 -0.23129779454E+03  0.26424143774E+03  0.12508813980E+03 0.  0.
          5    1    3    3  502    0 -0.43501228998E+02  0.39725834750E+02 -0.57565193559E+02  0.82472557741E+02  0.41800000000E+01 0.  1.
         -5    1    3    3    0  502  0.51176002372E+02 -0.14847675723E+02 -0.17373260098E+03  0.18176888000E+03  0.41800000000E+01 0.  1.
        -11    1    1    2    0    0 -0.35462130686E+00  0.31337011920E+02 -0.25581985291E+02  0.40454567650E+02  0.00000000000E+00 0. -1.
         11    1    1    2    0    0 -0.73201520667E+01 -0.56215170946E+02 -0.14420034263E+03  0.15494343769E+03  0.00000000000E+00 0.  1.
</event>
<event>
 7    1  0.2530765E-009  0.1217448E+03  0.7561462E-02  0.1240246E+00
          1   -1    0    0  501    0  0.00000000000E+00  0.00000000000E+00  0.18509984862E+03  0.18509984862E+03  0.00000000000E+00 0. -1.
         -1   -1    0    0    0  501 -0.00000000000E+00 -0.00000000000E+00 -0.16691042989E+03  0.16691042989E+03  0.00000000000E+00 0.  1.
         25    2    1    2    0    0  0.70160702031E+02  0.78809815432E+02 -0.79421983120E+02  0.18190366102E+03  0.12509028488E+03 0.  0.
          5    1    3    3  502    0  0.66727218846E+02  0.57377958512E+02 -0.11202157826E+03  0.14251687007E+03  0.41800000000E+01 0. -1.
         -5    1    3    3    0  502  0.34334831848E+01  0.21431856920E+02  0.32599595144E+02  0.39386790951E+02  0.41800000000E+01 0. -1.
        -11    1    1    2    0    0 -0.53870408828E+02 -0.10982626974E+01  0.15916414750E+02  0.56183266074E+02  0.00000000000E+00 0.  1.
         11    1    1    2    0    0 -0.16290293203E+02 -0.77711552735E+02  0.81694987097E+02  0.11392335142E+03  0.00000000000E+00 0. -1.
</event>
<event>
 7    1  0.2996260E-009  0.8352423E+02  0.7561462E-02  0.1319338E+00
          1   -1    0    0  501    0  0.00000000000E+00  0.00000000000E+00  0.82616910208E+03  0.82616910208E+03  0.00000000000E+00 0. -1.
         -1   -1    0    0    0  501 -0.00000000000E+00 -0.00000000000E+00 -0.18397774068E+02  0.18397774068E+02  0.00000000000E+00 0.  1.
         25    2    1    2    0    0 -0.10106519720E+02 -0.34706025362E+02  0.60635642277E+03  0.62018012154E+03  0.12509445145E+03 0.  0.
          5    1    3    3  502    0  0.22992774005E+02 -0.54857902372E+02  0.53955252724E+03  0.54283741503E+03  0.41800000000E+01 0. -1.
         -5    1    3    3    0  502 -0.33099293725E+02  0.20151877010E+02  0.66803895528E+02  0.77342706507E+02  0.41800000000E+01 0. -1.
        -11    1    1    2    0    0  0.32250305238E+02  0.70439934642E+01  0.18037127292E+02  0.37616990747E+02  0.00000000000E+00 0.  1.
         11    1    1    2    0    0 -0.22143785519E+02  0.27662031898E+02  0.18337777796E+03  0.18676976387E+03  0.00000000000E+00 0. -1.
</event>
<event>
 7    1  0.2530765E-009  0.1469860E+03  0.7561462E-02  0.1204226E+00
         -2   -1    0    0    0  501 -0.00000000000E+00  0.00000000000E+00  0.99865566260E+02  0.99865566260E+02  0.00000000000E+00 0.  1.
          2   -1    0    0  501    0  0.00000000000E+00 -0.00000000000E+00 -0.23022158798E+03  0.23022158798E+03  0.00000000000E+00 0. -1.
         25    2    1    2    0    0 -0.10402445399E+03 -0.51135659566E+01 -0.53148315710E+02  0.17123137016E+03  0.12509277788E+03 0.  0.
          5    1    3    3  502    0 -0.39038122836E+02  0.54292685993E+02  0.23965090133E+01  0.67043914283E+02  0.41800000000E+01 0. -1.
         -5    1    3    3    0  502 -0.64986331155E+02 -0.59406251950E+02 -0.55544824723E+02  0.10418745587E+03  0.41800000000E+01 0. -1.
        -11    1    1    2    0    0  0.64881607415E+02  0.48040263917E+02 -0.44125384378E+02  0.92002931934E+02  0.00000000000E+00 0.  1.
         11    1    1    2    0    0  0.39142846577E+02 -0.42926697961E+02 -0.33082321630E+02  0.66852852148E+02  0.00000000000E+00 0. -1.
</event>
<event>
 7    1  0.2530765E-009  0.1345097E+03  0.7561462E-02  0.1220914E+00
         -1   -1    0    0    0  501 -0.00000000000E+00  0.00000000000E+00  0.19462318571E+03  0.19462318571E+03  0.00000000000E+00 0.  1.
          1   -1    0    0  501    0  0.00000000000E+00 -0.00000000000E+00 -0.10467708944E+03  0.10467708944E+03  0.00000000000E+00 0. -1.
         25    2    1    2    0    0 -0.87658249305E+02  0.28210793761E+02  0.43847709856E+02  0.16140082322E+03  0.12509111288E+03 0.  0.
          5    1    3    3  502    0 -0.70679716388E+02 -0.37610937920E+02 -0.41932948833E+00  0.80173893489E+02  0.41800000000E+01 0. -1.
         -5    1    3    3    0  502 -0.16978532917E+02  0.65821731680E+02  0.44267039344E+02  0.81226929732E+02  0.41800000000E+01 0. -1.
        -11    1    1    2    0    0  0.39598385474E+02  0.26708123474E+02 -0.61329103437E+01  0.48155670289E+02  0.00000000000E+00 0.  1.
         11    1    1    2    0    0  0.48059863831E+02 -0.54918917234E+02  0.52231296755E+02  0.89743781636E+02  0.00000000000E+00 0. -1.
</event>
<event>
 7    1  0.2530765E-009  0.1071608E+03  0.7561462E-02  0.1265920E+00
          3   -1    0    0  501    0  0.00000000000E+00  0.00000000000E+00  0.23107568465E+03  0.23107568465E+03  0.00000000000E+00 0. -1.
         -3   -1    0    0    0  501 -0.00000000000E+00 -0.00000000000E+00 -0.77110775827E+02  0.77110775827E+02  0.00000000000E+00 0.  1.
         25    2    1    2    0    0 -0.60629072763E+02 -0.49774068249E+01  0.13619610507E+03  0.19467010992E+03  0.12508562515E+03 0.  0.
          5    1    3    3  502    0  0.20090570593E+02  0.41042293933E+02  0.40190149538E+02  0.60998536358E+02  0.41800000000E+01 0. -1.
         -5    1    3    3    0  502 -0.80719643356E+02 -0.46019700758E+02  0.96005955530E+02  0.13367157356E+03  0.41800000000E+01 0. -1.
        -11    1    1    2    0    0  0.59285608212E+02  0.18291261401E+02  0.49311481027E+02  0.79252607186E+02  0.00000000000E+00 0. -1.
         11    1    1    2    0    0  0.13434645500E+01 -0.13313854576E+02 -0.31542677268E+02  0.34263743373E+02  0.00000000000E+00 0.  1.
</event>
<event>
 7    1  0.2530765E-009  0.9664766E+02  0.7561462E-02  0.1287508E+00
          3   -1    0    0  501    0  0.00000000000E+00  0.00000000000E+00  0.26705572325E+03  0.26705572325E+03  0.00000000000E+00 0. -1.
         -3   -1    0    0    0  501 -0.00000000000E+00 -0.00000000000E+00 -0.59914073844E+02  0.59914073844E+02  0.00000000000E+00 0.  1.
         25    2    1    2    0    0 -0.45667148109E+02  0.17577651426E+02  0.58789935680E+02  0.14662061678E+03  0.12508751529E+03 0.  0.
          5    1    3    3  502    0 -0.79209677585E+01 -0.35365707975E+02 -0.22176546656E+02  0.42693637141E+02  0.41800000000E+01 0. -1.
         -5    1    3    3    0  502 -0.37746180350E+02  0.52943359400E+02  0.80966482336E+02  0.10392697964E+03  0.41800000000E+01 0. -1.
        -11    1    1    2    0    0 -0.22092005156E+02 -0.24233384507E+01  0.77485801130E+01  0.23536562086E+02  0.00000000000E+00 0.  1.
         11    1    1    2    0    0  0.67759153265E+02 -0.15154312975E+02  0.14060313361E+03  0.15681261822E+03  0.00000000000E+00 0. -1.
</event>
<event>
 7    1  0.2530765E-009  0.9366930E+02  0.7561462E-02  0.1294202E+00
         -2   -1    0    0    0  501 -0.00000000000E+00  0.00000000000E+00  0.40895661324E+03  0.40895661324E+03  0.00000000000E+00 0.  1.
          2   -1    0    0  501    0  0.00000000000E+00 -0.00000000000E+00 -0.37813693827E+02  0.37813693827E+02  0.00000000000E+00 0. -1.
         25    2    1    2    0    0 -0.15153989638E+02  0.52203217244E+02  0.17037247865E+03  0.21824160803E+03  0.12509116157E+03 0.  0.
          5    1    3    3  502    0 -0.20351358520E+02  0.91139174538E+02  0.14032582562E+03  0.16861001354E+03  0.41800000000E+01 0.  1.
         -5    1    3    3    0  502  0.51973688814E+01 -0.38935957293E+02  0.30046653023E+02  0.49631594489E+02  0.41800000000E+01 0.  1.
        -11    1    1    2    0    0  0.56065054885E+01 -0.19305966718E+02 -0.43490738612E+01  0.20568609534E+02  0.00000000000E+00 0. -1.
         11    1    1    2    0    0  0.95474841498E+01 -0.32897250527E+02  0.20511951463E+03  0.20796008950E+03  0.00000000000E+00 0.  1.
</event>
<event>
 7    1  0.2530765E-009  0.1431639E+03  0.7561462E-02  0.1209134E+00
          2   -1    0    0  501    0  0.00000000000E+00  0.00000000000E+00  0.57426646872E+02  0.57426646872E+02  0.00000000000E+00 0. -1.
         -2   -1    0    0    0  501 -0.00000000000E+00 -0.00000000000E+00 -0.45387737322E+03  0.45387737322E+03  0.00000000000E+00 0.  1.
         25    2    1    2    0    0  0.72258364665E+02 -0.82828128500E+02 -0.28384833505E+03  0.32908853345E+03  0.12509042892E+03 0.  0.
          5    1    3    3  502    0  0.96542489541E+02 -0.24804501906E+02 -0.13880831441E+03  0.17094132371E+03  0.41800000000E+01 0. -1.
         -5    1    3    3    0  502 -0.24284124876E+02 -0.58023626594E+02 -0.14504002064E+03  0.15814720974E+03  0.41800000000E+01 0. -1.
        -11    1    1    2    0    0 -0.35561540807E+02  0.30287543242E+01  0.43494280970E+01  0.35954333009E+02  0.00000000000E+00 0. -1.
         11    1    1    2    0    0 -0.36696823858E+02  0.79799374176E+02 -0.11695181939E+03  0.14626115362E+03  0.00000000000E+00 0.  1.
</event>
<event>
 7    1  0.2530765E-009  0.2060269E+03  0.7561462E-02  0.1144751E+00
         -2   -1    0    0    0  501 -0.00000000000E+00  0.00000000000E+00  0.33479372584E+03  0.33479372584E+03  0.00000000000E+00 0. -1.
          2   -1    0    0  501    0  0.00000000000E+00 -0.00000000000E+00 -0.15403743586E+03  0.15403743586E+03  0.00000000000E+00 0.  1.
         25    2    1    2    0    0 -0.61001789459E+02  0.18209409177E+03  0.35920831861E+02  0.23198597813E+03  0.12509081227E+03 0.  0.
          5    1    3    3  502    0 -0.33711313847E+02  0.15558056305E+02 -0.32807393384E+02  0.49722261191E+02  0.41800000000E+01 0.  1.
         -5    1    3    3    0  502 -0.27290475612E+02  0.16653603547E+03  0.68728225244E+02  0.18226371694E+03  0.41800000000E+01 0.  1.
        -11    1    1    2    0    0 -0.11635341276E+02 -0.21527653416E+01 -0.37825698460E+01  0.12422696964E+02  0.00000000000E+00 0.  1.
         11    1    1    2    0    0  0.72637130735E+02 -0.17994132643E+03  0.14861802796E+03  0.24442248660E+03  0.00000000000E+00 0. -1.
</event>
<event>
 7    1  0.2530765E-009  0.7777591E+02  0.7561462E-02  0.1335484E+00
         -2   -1    0    0    0  501 -0.00000000000E+00  0.00000000000E+00  0.54955456282E+02  0.54955456282E+02  0.00000000000E+00 0. -1.
          2   -1    0    0  501    0  0.00000000000E+00 -0.00000000000E+00 -0.26775786739E+03  0.26775786739E+03  0.00000000000E+00 0.  1.
         25    2    1    2    0    0  0.45815610820E+00 -0.47016752487E+02 -0.88170514864E+02  0.16010059778E+03  0.12508947516E+03 0.  0.
          5    1    3    3  502    0  0.21720984200E+02  0.20106315194E+02 -0.84319503457E+02  0.89461254901E+02  0.41800000000E+01 0.  1.
         -5    1    3    3    0  502 -0.21262828092E+02 -0.67123067681E+02 -0.38510114073E+01  0.70639342878E+02  0.41800000000E+01 0.  1.
        -11    1    1    2    0    0  0.10087995675E+02  0.42451328275E+02 -0.13814601199E+03  0.14487306016E+03  0.00000000000E+00 0.  1.
         11    1    1    2    0    0 -0.10546151783E+02  0.45654242122E+01  0.13514115754E+02  0.17739665732E+02  0.00000000000E+00 0. -1.
</event>
<event>
 7    1  0.2530765E-009  0.1396063E+03  0.7561462E-02  0.1213860E+00
         -2   -1    0    0    0  501 -0.00000000000E+00  0.00000000000E+00  0.23691771527E+02  0.23691771527E+02  0.00000000000E+00 0.  1.
          2   -1    0    0  501    0  0.00000000000E+00 -0.00000000000E+00 -0.13809712158E+04  0.13809712158E+04  0.00000000000E+00 0. -1.
         25    2    1    2    0    0  0.12288522863E+03  0.33106406791E+02 -0.96912928384E+03  0.98542181139E+03  0.12509102280E+03 0.  0.
          5    1    3    3  502    0  0.98375258117E+02  0.29567329575E+02 -0.94506109815E+03  0.95063656043E+03  0.41800000000E+01 0. -1.
         -5    1    3    3    0  502  0.24509970512E+02  0.35390772158E+01 -0.24068185684E+02  0.34785250957E+02  0.41800000000E+01 0. -1.
        -11    1    1    2    0    0 -0.10222414338E+03  0.10773086689E+02 -0.19909483196E+03  0.22406380118E+03  0.00000000000E+00 0.  1.
         11    1    1    2    0    0 -0.20661085251E+02 -0.43879493480E+02 -0.18905532845E+03  0.19517737473E+03  0.00000000000E+00 0. -1.
</event>
<event>
 7    1  0.2530765E-009  0.7340780E+02  0.7561462E-02  0.1348874E+00
         -1   -1    0    0    0  501 -0.00000000000E+00  0.00000000000E+00  0.33712753578E+02  0.33712753578E+02  0.00000000000E+00 0.  1.
          1   -1    0    0  501    0  0.00000000000E+00 -0.00000000000E+00 -0.36167989502E+03  0.36167989502E+03  0.00000000000E+00 0. -1.
         25    2    1    2    0    0 -0.25102886910E+02 -0.84999349343E+01 -0.23272438657E+03  0.26553913403E+03  0.12509191730E+03 0.  0.
          5    1    3    3  502    0 -0.41800962340E+02 -0.31263228165E+02 -0.29067604249E+02  0.59892469515E+02  0.41800000000E+01 0. -1.
         -5    1    3    3    0  502  0.16698075430E+02  0.22763293231E+02 -0.20365678232E+03  0.20564666452E+03  0.41800000000E+01 0. -1.
        -11    1    1    2    0    0 -0.11340995322E+02 -0.17703555949E+02  0.35682033192E+01  0.21325246612E+02  0.00000000000E+00 0.  1.
         11    1    1    2    0    0  0.36443882231E+02  0.26203490883E+02 -0.98810958188E+02  0.10852826795E+03  0.00000000000E+00 0. -1.
</event>
<event>
 7    1  0.2530765E-009  0.8518958E+02  0.7561462E-02  0.1314938E+00
          2   -1    0    0  501    0  0.00000000000E+00  0.00000000000E+00  0.15983932771E+03  0.15983932771E+03  0.00000000000E+00 0. -1.
         -2   -1    0    0    0  501 -0.00000000000E+00 -0.00000000000E+00 -0.90633892134E+02  0.90633892134E+02  0.00000000000E+00 0.  1.
         25    2    1    2    0    0  0.24742658170E+02  0.28805811647E+02  0.79158845813E+02  0.15281878580E+03  0.12508191118E+03 0.  0.
          5    1    3    3  502    0  0.10376432810E+02 -0.31521155759E+02 -0.17616362816E+02  0.37802939795E+02  0.41800000000E+01 0. -1.
         -5    1    3    3    0  502  0.14366225359E+02  0.60326967406E+02  0.96775208629E+02  0.11501584601E+03  0.41800000000E+01 0. -1.
        -11    1    1    2    0    0 -0.12774960435E+02  0.20436795613E+02  0.26051489387E+02  0.35490031394E+02  0.00000000000E+00 0.  1.
         11    1    1    2    0    0 -0.11967697735E+02 -0.49242607260E+02 -0.36004899628E+02  0.62164402644E+02  0.00000000000E+00 0. -1.
</event>
<event>
 7    1  0.2530765E-009  0.1460176E+03  0.7561462E-02  0.1205454E+00
          1   -1    0    0  501    0  0.00000000000E+00  0.00000000000E+00  0.91745664915E+03  0.91745664915E+03  0.00000000000E+00 0. -1.
         -1   -1    0    0    0  501 -0.00000000000E+00 -0.00000000000E+00 -0.26826541878E+02  0.26826541878E+02  0.00000000000E+00 0.  1.
         25    2    1    2    0    0 -0.68952244518E+02 -0.89514607240E+02  0.48895219525E+03  0.51719347850E+03  0.12509023958E+03 0.  0.
          5    1    3    3  502    0  0.42246342337E+01 -0.90310490206E+02  0.20801942270E+03  0.22685542708E+03  0.41800000000E+01 0. -1.
         -5    1    3    3    0  502 -0.73176878751E+02  0.79588296602E+00  0.28093277255E+03  0.29033805143E+03  0.41800000000E+01 0. -1.
        -11    1    1    2    0    0  0.10033465037E+02 -0.89745921425E+01  0.53608862319E+01  0.14489748996E+02  0.00000000000E+00 0.  1.
         11    1    1    2    0    0  0.58918779481E+02  0.98489199382E+02  0.39631702579E+03  0.41259996353E+03  0.00000000000E+00 0. -1.
</event>
<event>
 7    1  0.2530765E-009  0.1185136E+03  0.7561462E-02  0.1245569E+00
         -1   -1    0    0    0  501 -0.00000000000E+00  0.00000000000E+00  0.25760144820E+02  0.25760144820E+02  0.00000000000E+00 0.  1.
          1   -1    0    0  501    0  0.00000000000E+00 -0.00000000000E+00 -0.55926764753E+03  0.55926764753E+03  0.00000000000E+00 0. -1.
         25    2    1    2    0    0 -0.51527292574E+02 -0.67651150243E+00 -0.29881178631E+03  0.32801132029E+03  0.12508966007E+03 0.  0.
          5    1    3    3  502    0  0.46430876129E+01  0.55314194158E+02 -0.13204159978E+03  0.14329575992E+03  0.41800000000E+01 0. -1.
         -5    1    3    3    0  502 -0.56170380187E+02 -0.55990705661E+02 -0.16677018653E+03  0.18471556037E+03  0.41800000000E+01 0. -1.
        -11    1    1    2    0    0 -0.52719053163E+01 -0.34652441309E+02 -0.11087106098E+03  0.11627973528E+03  0.00000000000E+00 0. -1.
         11    1    1    2    0    0  0.56799197890E+02  0.35328952811E+02 -0.12382465543E+03  0.14073673678E+03  0.00000000000E+00 0.  1.
</event>
<event>
 7    1  0.2530765E-009  0.8819798E+02  0.7561462E-02  0.1307275E+00
          2   -1    0    0  501    0  0.00000000000E+00  0.00000000000E+00  0.82858147120E+02  0.82858147120E+02  0.00000000000E+00 0.  1.
         -2   -1    0    0    0  501 -0.00000000000E+00 -0.00000000000E+00 -0.16770500751E+03  0.16770500751E+03  0.00000000000E+00 0. -1.
         25    2    1    2    0    0  0.22718517324E+02 -0.22008194425E+02 -0.84811435422E+02  0.15440306316E+03  0.12508730825E+03 0.  0.
          5    1    3    3  502    0 -0.27036018278E+01  0.26489774304E+02  0.21676644212E+02  0.34588537260E+02  0.41800000000E+01 0.  1.
         -5    1    3    3    0  502  0.25422119151E+02 -0.48497968729E+02 -0.10648807963E+03  0.11981452590E+03  0.41800000000E+01 0.  1.
        -11    1    1    2    0    0  0.19190717540E+02 -0.25020968559E+02 -0.83520995512E+01  0.32620393533E+02  0.00000000000E+00 0. -1.
         11    1    1    2    0    0 -0.41909234864E+02  0.47029162984E+02  0.83166745806E+01  0.63539697937E+02  0.00000000000E+00 0.  1.
</event>
<event>
 7    1  0.2530765E-009  0.1202729E+03  0.7561462E-02  0.1242647E+00
          1   -1    0    0  501    0  0.00000000000E+00  0.00000000000E+00  0.14358896152E+03  0.14358896152E+03  0.00000000000E+00 0. -1.
         -1   -1    0    0    0  501 -0.00000000000E+00 -0.00000000000E+00 -0.12884027908E+03  0.12884027908E+03  0.00000000000E+00 0.  1.
         25    2    1    2    0    0 -0.18444810058E+02  0.69690981383E+02  0.42773394446E+02  0.15057752622E+03  0.12508790600E+03 0.  0.
          5    1    3    3  502    0 -0.51040630996E+02 -0.68184383035E+00  0.51242698734E+02  0.72449275338E+02  0.41800000000E+01 0.  1.
         -5    1    3    3    0  502  0.32595820938E+02  0.70372825213E+02 -0.84693042872E+01  0.78128250884E+02  0.41800000000E+01 0.  1.
        -11    1    1    2    0    0  0.52324977280E+02 -0.33727398268E+02  0.49505766314E+01  0.62449570456E+02  0.00000000000E+00 0. -1.
         11    1    1    2    0    0 -0.33880167222E+02 -0.35963583115E+02 -0.32975288638E+02  0.59402143919E+02  0.00000000000E+00 0.  1.
</event>
<event>
 7    1  0.2530765E-009  0.1077027E+03  0.7561462E-02  0.1264884E+00
         -1   -1    0    0    0  501 -0.00000000000E+00  0.00000000000E+00  0.25715193777E+03  0.25715193777E+03  0.00000000000E+00 0.  1.
          1   -1    0    0  501    0  0.00000000000E+00 -0.00000000000E+00 -0.84918204582E+02  0.84918204582E+02  0.00000000000E+00 0. -1.
         25    2    1    2    0    0  0.65626812854E+02 -0.12065090015E+02  0.18013696205E+03  0.22923613437E+03  0.12508970878E+03 0.  0.
          5    1    3    3  502    0  0.57925851829E+02  0.51041175761E+02  0.86991713128E+02  0.11638572286E+03  0.41800000000E+01 0.  1.
         -5    1    3    3    0  502  0.77009610247E+01 -0.63106265776E+02  0.93145248926E+02  0.11285041151E+03  0.41800000000E+01 0.  1.
        -11    1    1    2    0    0 -0.33910207334E+02 -0.10445605902E+02  0.38453362111E+02  0.52322785684E+02  0.00000000000E+00 0.  1.
         11    1    1    2    0    0 -0.31716605520E+02  0.22510695917E+02 -0.46356590978E+02  0.60511222294E+02  0.00000000000E+00 0. -1.
</event>
<event>
 7    1  0.2530765E-009  0.1148232E+03  0.7561462E-02  0.1251890E+00
          1   -1    0    0  501    0  0.00000000000E+00  0.00000000000E+00  0.96532084162E+02  0.96532084162E+02  0.00000000000E+00 0. -1.
         -1   -1    0    0    0  501 -0.00000000000E+00 -0.00000000000E+00 -0.17203169980E+03  0.17203169980E+03  0.00000000000E+00 0.  1.
         25    2    1    2    0    0 -0.39913347582E+02  0.49927780363E+02 -0.12683573293E+02  0.14104397681E+03  0.12508665715E+03 0.  0.
          5    1    3    3  502    0  0.42637388875E+02  0.36067210057E+02 -0.11783305083E+02  0.57228570225E+02  0.41800000000E+01 0. -1.
         -5    1    3    3    0  502 -0.82550736457E+02  0.13860570306E+02 -0.90026821004E+00  0.83815406589E+02  0.41800000000E+01 0. -1.
        -11    1    1    2    0    0  0.55680354223E+02 -0.26677908143E+02 -0.74790164746E+02  0.96982376605E+02  0.00000000000E+00 0.  1.
         11    1    1    2    0    0 -0.15767006640E+02 -0.23249872221E+02  0.11974122404E+02  0.30537430540E+02  0.00000000000E+00 0. -1.
</event>
<event>
 7    1  0.2530765E-009  0.1199186E+03  0.7561462E-02  0.1243231E+00
          2   -1    0    0  501    0  0.00000000000E+00  0.00000000000E+00  0.27745567124E+03  0.27745567124E+03  0.00000000000E+00 0. -1.
         -2   -1    0    0    0  501 -0.00000000000E+00 -0.00000000000E+00 -0.32011011227E+03  0.32011011227E+03  0.00000000000E+00 0.  1.
         25    2    1    2    0    0  0.49439933009E+01  0.11594680713E+03 -0.27379303289E+03  0.32261161543E+03  0.12509006516E+03 0.  0.
          5    1    3    3  502    0  0.10087915570E+02  0.40415758593E+02 -0.36430276387E+01  0.42023132125E+02  0.41800000000E+01 0. -1.
         -5    1    3    3    0  502 -0.51439222696E+01  0.75531048539E+02 -0.27015000525E+03  0.28058848331E+03  0.41800000000E+01 0. -1.
        -11    1    1    2    0    0  0.16572416806E+02 -0.42481851010E+02  0.17277773676E+03  0.17869386947E+03  0.00000000000E+00 0. -1.
         11    1    1    2    0    0 -0.21516410107E+02 -0.73464956122E+02  0.58360855090E+02  0.96260298611E+02  0.00000000000E+00 0.  1.
</event>
<event>
 7    1  0.2530765E-009  0.1758329E+03  0.7561462E-02  0.1171898E+00
          2   -1    0    0  501    0  0.00000000000E+00  0.00000000000E+00  0.55433434385E+03  0.55433434385E+03  0.00000000000E+00 0. -1.
         -2   -1    0    0    0  501 -0.00000000000E+00 -0.00000000000E+00 -0.64326502934E+02  0.64326502934E+02  0.00000000000E+00 0.  1.
         25    2    1    2    0    0 -0.54835569204E+02 -0.14210504968E+03  0.29176897693E+03  0.35210331303E+03  0.12508725897E+03 0.  0.
          5    1    3    3  502    0  0.18467487213E+02 -0.62682902993E+02  0.19937463371E+03  0.20985211788E+03  0.41800000000E+01 0.  1.
         -5    1    3    3    0  502 -0.73303056416E+02 -0.79422146689E+02  0.92394343221E+02  0.14225119516E+03  0.41800000000E+01 0.  1.
        -11    1    1    2    0    0  0.61368815560E+02  0.34855090252E+02  0.84361485752E+02  0.10999031375E+03  0.00000000000E+00 0. -1.
         11    1    1    2    0    0 -0.65332463564E+01  0.10724995943E+03  0.11387737823E+03  0.15656722000E+03  0.00000000000E+00 0.  1.
</event>
<event>
 7    1  0.2530765E-009  0.1076501E+03  0.7561462E-02  0.1264984E+00
          1   -1    0    0  501    0  0.00000000000E+00  0.00000000000E+00  0.81785130955E+02  0.81785130955E+02  0.00000000000E+00 0.  1.
         -1   -1    0    0    0  501 -0.00000000000E+00 -0.00000000000E+00 -0.22635993068E+03  0.22635993068E+03  0.00000000000E+00 0. -1.
         25    2    1    2    0    0 -0.19955190686E+02 -0.68539685408E+02 -0.12561151891E+03  0.19110528096E+03  0.12508827530E+03 0.  0.
          5    1    3    3  502    0 -0.52803123360E+02 -0.31526947694E+02 -0.12727332553E+03  0.14141460341E+03  0.41800000000E+01 0.  1.
         -5    1    3    3    0  502  0.32847932674E+02 -0.37012737714E+02  0.16618066200E+01  0.49690677549E+02  0.41800000000E+01 0.  1.
        -11    1    1    2    0    0 -0.28474344871E+02  0.16505951557E+02 -0.30682664206E+02  0.44996229125E+02  0.00000000000E+00 0. -1.
         11    1    1    2    0    0  0.48429535557E+02  0.52033733851E+02  0.11719383389E+02  0.72043551549E+02  0.00000000000E+00 0.  1.
</event>
<event>
 7    1  0.2530765E-009  0.8782858E+02  0.7561462E-02  0.1308197E+00
          1   -1    0    0  501    0  0.00000000000E+00  0.00000000000E+00  0.15475971134E+03  0.15475971134E+03  0.00000000000E+00 0. -1.
         -1   -1    0    0    0  501 -0.00000000000E+00 -0.00000000000E+00 -0.10435670242E+03  0.10435670242E+03  0.00000000000E+00 0.  1.
         25    2    1    2    0    0  0.61466193422E+02 -0.21671485534E+02  0.29055036983E+02  0.14399433671E+03  0.12506969102E+03 0.  0.
          5    1    3    3  502    0  0.28290263356E+02 -0.14759964183E+02  0.77964437688E+02  0.84345251719E+02  0.41800000000E+01 0.  1.
         -5    1    3    3    0  502  0.33175930066E+02 -0.69115213514E+01 -0.48909400705E+02  0.59649084993E+02  0.41800000000E+01 0.  1.
        -11    1    1    2    0    0 -0.76611492101E+02  0.39288333290E+02  0.41155208310E+01  0.86196469570E+02  0.00000000000E+00 0.  1.
         11    1    1    2    0    0  0.15145298678E+02 -0.17616847756E+02  0.17232451110E+02  0.28925607481E+02  0.00000000000E+00 0. -1.
</event>
<event>
 7    1  0.2530765E-009  0.1192505E+03  0.7561462E-02  0.1244339E+00
         -1   -1    0    0    0  501 -0.00000000000E+00  0.00000000000E+00  0.61786892771E+03  0.61786892771E+03  0.00000000000E+00 0. -1.
          1   -1    0    0  501    0  0.00000000000E+00 -0.00000000000E+00 -0.50785096537E+02  0.50785096537E+02  0.00000000000E+00 0.  1.
         25    2    1    2    0    0 -0.88672324640E+02  0.38429225195E+01  0.50332287134E+03  0.52617543007E+03  0.12509644754E+03 0.  0.
          5    1    3    3  502    0 -0.10961395813E+03  0.18194417278E+02  0.47529755364E+03  0.48813061115E+03  0.41800000000E+01 0. -1.
         -5    1    3    3    0  502  0.20941633494E+02 -0.14351494759E+02  0.28025317696E+02  0.38044818926E+02  0.41800000000E+01 0. -1.
        -11    1    1    2    0    0  0.36266425228E+02  0.22751191787E+02 -0.13969010589E+02  0.45033360782E+02  0.00000000000E+00 0.  1.
         11    1    1    2    0    0  0.52405899413E+02 -0.26594114306E+02  0.77729970425E+02  0.97445233395E+02  0.00000000000E+00 0. -1.
</event>
<event>
 7    1  0.2530765E-009  0.1052578E+03  0.7561462E-02  0.1269612E+00
          1   -1    0    0  501    0  0.00000000000E+00  0.00000000000E+00  0.21874354167E+03  0.21874354167E+03  0.00000000000E+00 0. -1.
         -1   -1    0    0    0  501 -0.00000000000E+00 -0.00000000000E+00 -0.62651869127E+02  0.62651869127E+02  0.00000000000E+00 0.  1.
         25    2    1    2    0    0  0.39404964237E+02  0.88093892969E+01  0.12555244334E+03  0.18177258470E+03  0.12508996751E+03 0.  0.
          5    1    3    3  502    0 -0.34726552792E+02  0.37780160177E+02  0.54894912553E+02  0.75260864970E+02  0.41800000000E+01 0. -1.
         -5    1    3    3    0  502  0.74131517028E+02 -0.28970770880E+02  0.70657530785E+02  0.10651171973E+03  0.41800000000E+01 0. -1.
        -11    1    1    2    0    0 -0.46360818648E+02  0.19413770073E+02 -0.84745417985E+01  0.50970950873E+02  0.00000000000E+00 0.  1.
         11    1    1    2    0    0  0.69558544114E+01 -0.28223159370E+02  0.39013771002E+02  0.48651875228E+02  0.00000000000E+00 0. -1.
</event>
<event>
 7    1  0.2530765E-009  0.1315005E+03  0.7561462E-02  0.1225246E+00
         -2   -1    0    0    0  501 -0.00000000000E+00  0.00000000000E+00  0.22227600783E+03  0.22227600783E+03  0.00000000000E+00 0.  1.
          2   -1    0    0  501    0  0.00000000000E+00 -0.00000000000E+00 -0.10475973703E+03  0.10475973703E+03  0.00000000000E+00 0. -1.
         25    2    1    2    0    0  0.38700429114E+02 -0.96419495285E+02  0.35605152210E+02  0.16646026366E+03  0.12508737039E+03 0.  0.
          5    1    3    3  502    0 -0.98653359608E+01  0.92305957919E+01 -0.29799030173E+02  0.32984592639E+02  0.41800000000E+01 0. -1.
         -5    1    3    3    0  502  0.48565765074E+02 -0.10565009108E+03  0.65404182383E+02  0.13347567102E+03  0.41800000000E+01 0. -1.
        -11    1    1    2    0    0  0.13420017089E+02 -0.81258325910E+01 -0.32376355637E+01  0.16018998034E+02  0.00000000000E+00 0.  1.
         11    1    1    2    0    0 -0.52120446203E+02  0.10454532788E+03  0.85148754152E+02  0.14455648317E+03  0.00000000000E+00 0. -1.
</event>
<event>
 7    1  0.2530765E-009  0.1009772E+03  0.7561462E-02  0.1278254E+00
         -1   -1    0    0    0  501 -0.00000000000E+00  0.00000000000E+00  0.88678304318E+02  0.88678304318E+02  0.00000000000E+00 0.  1.
          1   -1    0    0  501    0  0.00000000000E+00 -0.00000000000E+00 -0.19110702175E+03  0.19110702175E+03  0.00000000000E+00 0. -1.
         25    2    1    2    0    0 -0.69832232171E+01  0.57346583939E+02 -0.49262843754E+01  0.13787706334E+03  0.12509364581E+03 0.  0.
          5    1    3    3  502    0 -0.48236372464E+02  0.68217916624E+02  0.22949663693E+02  0.86744401782E+02  0.41800000000E+01 0.  1.
         -5    1    3    3    0  502  0.41253149247E+02 -0.10871332684E+02 -0.27875948068E+02  0.51132661556E+02  0.41800000000E+01 0.  1.
        -11    1    1    2    0    0  0.16653690402E+02  0.62211835492E+00  0.99675978582E+01  0.19418687966E+02  0.00000000000E+00 0.  1.
         11    1    1    2    0    0 -0.96704671849E+01 -0.57968702294E+02 -0.10747003092E+03  0.12248957477E+03  0.00000000000E+00 0. -1.
</event>
<event>
 7    1  0.2530765E-009  0.1138032E+03  0.7561462E-02  0.1253685E+00
          1   -1    0    0  501    0  0.00000000000E+00  0.00000000000E+00  0.31447811571E+03  0.31447811571E+03  0.00000000000E+00 0.  1.
         -1   -1    0    0    0  501 -0.00000000000E+00 -0.00000000000E+00 -0.77105517693E+02  0.77105517693E+02  0.00000000000E+00 0. -1.
         25    2    1    2    0    0  0.91465591612E+02 -0.23995433795E+02  0.59037666599E+02  0.16755344841E+03  0.12508787593E+03 0.  0.
          5    1    3    3  502    0  0.41394770388E+02  0.18275396756E+01 -0.37278117745E+02  0.55892731006E+02  0.41800000000E+01 0.  1.
         -5    1    3    3    0  502  0.50070821224E+02 -0.25822973470E+02  0.96315784344E+02  0.11166071740E+03  0.41800000000E+01 0.  1.
        -11    1    1    2    0    0 -0.97041457657E+01 -0.29970940527E+02  0.18418593296E+02  0.36492085445E+02  0.00000000000E+00 0. -1.
         11    1    1    2    0    0 -0.81761445847E+02  0.53966374322E+02  0.15991633813E+03  0.18753809955E+03  0.00000000000E+00 0.  1.
</event>
<event>
 7    1  0.2530765E-009  0.1247078E+03  0.7561462E-02  0.1235527E+00
          1   -1    0    0  501    0  0.00000000000E+00  0.00000000000E+00  0.18219062110E+03  0.18219062110E+03  0.00000000000E+00 0.  1.
         -1   -1    0    0    0  501 -0.00000000000E+00 -0.00000000000E+00 -0.16420916666E+03  0.16420916666E+03  0.00000000000E+00 0. -1.
         25    2    1    2    0    0  0.24130633261E+02 -0.10030752462E+03  0.92580544044E+02  0.18671543579E+03  0.12509040678E+03 0.  0.
          5    1    3    3  502    0  0.62525044188E+01 -0.11008422448E+03  0.11273810563E+03  0.15774974850E+03  0.41800000000E+01 0. -1.
         -5    1    3    3    0  502  0.17878128842E+02  0.97766998587E+01 -0.20157561585E+02  0.28965687289E+02  0.41800000000E+01 0. -1.
        -11    1    1    2    0    0 -0.37302146718E+02  0.33362180560E+02  0.99654700602E+01  0.51027402785E+02  0.00000000000E+00 0. -1.
         11    1    1    2    0    0  0.13171513457E+02  0.66945344057E+02 -0.84564559660E+02  0.10865694919E+03  0.00000000000E+00 0.  1.
</event>
<event>
 7    1  0.2530765E-009  0.1352958E+03  0.7561462E-02  0.1219803E+00
          2   -1    0    0  501    0  0.00000000000E+00  0.00000000000E+00  0.17549746080E+04  0.17549746080E+04  0.00000000000E+00 0. -1.
         -2   -1    0    0    0  501 -0.00000000000E+00 -0.00000000000E+00 -0.17531743878E+02  0.17531743878E+02  0.00000000000E+00 0.  1.
         25    2    1    2    0    0  0.88953305278E+01  0.85782338944E+02  0.14544578997E+04  0.14623726770E+04  0.12509327619E+03 0.  0.
          5    1    3    3  502    0  0.45267194948E+02 -0.54862177383E+01  0.70582823875E+03  0.70731194854E+03  0.41800000000E+01 0.  1.
         -5    1    3    3    0  502 -0.36371864420E+02  0.91268556682E+02  0.74862966094E+03  0.75506072842E+03  0.41800000000E+01 0.  1.
        -11    1    1    2    0    0 -0.48421308246E+02 -0.26458554086E+02  0.11092432392E+03  0.12389061229E+03  0.00000000000E+00 0.  1.
         11    1    1    2    0    0  0.39525977719E+02 -0.59323784857E+02  0.17206064047E+03  0.18624306259E+03  0.00000000000E+00 0. -1.
</event>
<event>
 7    1  0.2530765E-009  0.3474361E+03  0.7561462E-02  0.1063672E+00
         -2   -1    0    0    0  501 -0.00000000000E+00  0.00000000000E+00  0.40737455332E+03  0.40737455332E+03  0.00000000000E+00 0.  1.
          2   -1    0    0  501    0  0.00000000000E+00 -0.00000000000E+00 -0.30187467340E+03  0.30187467340E+03  0.00000000000E+00 0. -1.
         25    2    1    2    0    0 -0.29753491120E+03 -0.14702999393E+03  0.27674406384E+02  0.35575096430E+03  0.12509209941E+03 0.  0.
          5    1    3    3  502    0 -0.54010248603E+02  0.16910001826E+02  0.25331152659E+02  0.62146559124E+02  0.41800000000E+01 0. -1.
         -5    1    3    3    0  502 -0.24352466259E+03 -0.16393999576E+03  0.23432537250E+01  0.29360440517E+03  0.41800000000E+01 0. -1.
        -11    1    1    2    0    0  0.14248883857E+03  0.19592189487E+02  0.39739954634E+02  0.14921858799E+03  0.00000000000E+00 0. -1.
         11    1    1    2    0    0  0.15504607262E+03  0.12743780445E+03  0.38085518898E+02  0.20427967443E+03  0.00000000000E+00 0.  1.
</event>
<event>
 7    1  0.2530765E-009  0.1585701E+03  0.7561462E-02  0.1190321E+00
         -2   -1    0    0    0  501 -0.00000000000E+00  0.00000000000E+00  0.18119104704E+03  0.18119104704E+03  0.00000000000E+00 0.  1.
          2   -1    0    0  501    0  0.00000000000E+00 -0.00000000000E+00 -0.17135704145E+03  0.17135704145E+03  0.00000000000E+00 0. -1.
         25    2    1    2    0    0  0.11859904725E+03  0.60512828707E+02  0.43214907907E+02  0.18773162123E+03  0.12509235347E+03 0.  0.
          5    1    3    3  502    0  0.87340807974E+02  0.97813517706E+02  0.17001676813E+02  0.13229675128E+03  0.41800000000E+01 0. -1.
         -5    1    3    3    0  502  0.31258239272E+02 -0.37300688999E+02  0.26213231093E+02  0.55434869951E+02  0.41800000000E+01 0. -1.
        -11    1    1    2    0    0 -0.34241680496E+02 -0.17467174737E+01  0.28704431018E+02  0.44715635579E+02  0.00000000000E+00 0.  1.
         11    1    1    2    0    0 -0.84357366750E+02 -0.58766111233E+02 -0.62085333338E+02  0.12010083168E+03  0.00000000000E+00 0. -1.
</event>
<event>
 7    1  0.2530765E-009  0.6247812E+02  0.7561462E-02  0.1387717E+00
         -1   -1    0    0    0  501 -0.00000000000E+00  0.00000000000E+00  0.23000382817E+03  0.23000382817E+03  0.00000000000E+00 0.  1.
          1   -1    0    0  501    0  0.00000000000E+00 -0.00000000000E+00 -0.63546189153E+02  0.63546189153E+02  0.00000000000E+00 0. -1.
         25    2    1    2    0    0  0.12031642081E+02 -0.25220814098E+02  0.14793298282E+03  0.19573684929E+03  0.12509155403E+03 0.  0.
          5    1    3    3  502    0  0.83967346225E+01 -0.20279151281E+01  0.16571419212E+03  0.16599181745E+03  0.41800000000E+01 0. -1.
         -5    1    3    3    0  502  0.36349074586E+01 -0.23192898970E+02 -0.17781209300E+02  0.29745031838E+02  0.41800000000E+01 0. -1.
        -11    1    1    2    0    0  0.32702086782E+02 -0.10416410088E+02  0.21573658662E+02  0.40538263740E+02  0.00000000000E+00 0.  1.
         11    1    1    2    0    0 -0.44733728863E+02  0.35637224185E+02 -0.30490024627E+01  0.57274904292E+02  0.00000000000E+00 0. -1.
</event>
<event>
 7    1  0.2530765E-009  0.9641797E+02  0.7561462E-02  0.1288014E+00
          2   -1    0    0  501    0  0.00000000000E+00  0.00000000000E+00  0.10463795104E+04  0.10463795104E+04  0.00000000000E+00 0. -1.
         -2   -1    0    0    0  501 -0.00000000000E+00 -0.00000000000E+00 -0.15782078558E+02  0.15782078558E+02  0.00000000000E+00 0.  1.
         25    2    1    2    0    0 -0.55016680440E+02 -0.58858017234E+01  0.76094814670E+03  0.77314353256E+03  0.12508941676E+03 0.  0.
          5    1    3    3  502    0 -0.79428454562E+02 -0.32533271999E+02  0.66500901144E+03  0.67053840373E+03  0.41800000000E+01 0. -1.
         -5    1    3    3    0  502  0.24411774122E+02  0.26647470276E+02  0.95939135258E+02  0.10260512883E+03  0.41800000000E+01 0. -1.
        -11    1    1    2    0    0  0.53203788643E+01  0.18499462685E+02  0.56148690908E+01  0.20051516297E+02  0.00000000000E+00 0.  1.
         11    1    1    2    0    0  0.49696301575E+02 -0.12613660962E+02  0.26403441602E+03  0.26896654007E+03  0.00000000000E+00 0. -1.
</event>
<event>
 7    1  0.4181348E-009  0.1066163E+03  0.7561462E-02  0.1266967E+00
          2   -1    0    0  501    0  0.00000000000E+00  0.00000000000E+00  0.70498724540E+03  0.70498724540E+03  0.00000000000E+00 0. -1.
         -2   -1    0    0    0  501 -0.00000000000E+00 -0.00000000000E+00 -0.27309704086E+02  0.27309704086E+02  0.00000000000E+00 0.  1.
         25    2    1    2    0    0  0.27942462906E+02  0.53185813732E+02  0.53655992018E+03  0.55421433623E+03  0.12508984981E+03 0.  0.
          5    1    3    3  502    0  0.19548628095E+02  0.94080315973E+02  0.34829728156E+03  0.36133325817E+03  0.41800000000E+01 0.  1.
         -5    1    3    3    0  502  0.83938348110E+01 -0.40894502241E+02  0.18826263861E+03  0.19288107806E+03  0.41800000000E+01 0.  1.
        -11    1    1    2    0    0 -0.38599011917E+02 -0.27811420530E+02  0.14279356241E+03  0.15051033286E+03  0.00000000000E+00 0. -1.
         11    1    1    2    0    0  0.10656549011E+02 -0.25374393202E+02 -0.16759412676E+01  0.27572280398E+02  0.00000000000E+00 0.  1.
</event>
<event>
 7    1  0.2530765E-009  0.1882156E+03  0.7561462E-02  0.1160081E+00
         -2   -1    0    0    0  501 -0.00000000000E+00  0.00000000000E+00  0.29113219282E+02  0.29113219282E+02  0.00000000000E+00 0. -1.
          2   -1    0    0  501    0  0.00000000000E+00 -0.00000000000E+00 -0.12415970529E+04  0.12415970529E+04  0.00000000000E+00 0.  1.
         25    2    1    2    0    0 -0.39244670201E+02 -0.15240635464E+03 -0.72109161724E+03  0.74859094253E+03  0.12508971864E+03 0.  0.
          5    1    3    3  502    0 -0.80055102751E+02 -0.13214593958E+03 -0.58161777365E+03  0.60180401781E+03  0.41800000000E+01 0. -1.
         -5    1    3    3    0  502  0.40810432551E+02 -0.20260415060E+02 -0.13947384359E+03  0.14678692472E+03  0.41800000000E+01 0. -1.
        -11    1    1    2    0    0  0.35273488707E+02  0.14474593465E+02 -0.93296567227E+02  0.10078681619E+03  0.00000000000E+00 0.  1.
         11    1    1    2    0    0  0.39711814940E+01  0.13793176118E+03 -0.39809564910E+03  0.42133251341E+03  0.00000000000E+00 0. -1.
</event>
<event>
 7    1  0.2530765E-009  0.2068663E+03  0.7561462E-02  0.1144072E+00
          2   -1    0    0  501    0  0.00000000000E+00  0.00000000000E+00  0.72806658599E+02  0.72806658599E+02  0.00000000000E+00 0. -1.
         -2   -1    0    0    0  501 -0.00000000000E+00 -0.00000000000E+00 -0.66773078075E+03  0.66773078075E+03  0.00000000000E+00 0.  1.
         25    2    1    2    0    0  0.11107263480E+03  0.13938390937E+03 -0.19143139187E+03  0.28992804569E+03  0.12508912620E+03 0.  0.
          5    1    3    3  502    0  0.29581505662E+02  0.12859850630E+03 -0.92338062246E+02  0.16110999795E+03  0.41800000000E+01 0.  1.
         -5    1    3    3    0  502  0.81491129142E+02  0.10785403066E+02 -0.99093329624E+02  0.12881804774E+03  0.41800000000E+01 0.  1.
        -11    1    1    2    0    0 -0.82529561172E+02 -0.14811244971E+03 -0.32371785667E+03  0.36543354656E+03  0.00000000000E+00 0. -1.
         11    1    1    2    0    0 -0.28543073632E+02  0.87285403416E+01 -0.79774873612E+02  0.85175847097E+02  0.00000000000E+00 0.  1.
</event>
<event>
 7    1  0.2530765E-009  0.8490596E+02  0.7561462E-02  0.1315679E+00
         -2   -1    0    0    0  501 -0.00000000000E+00  0.00000000000E+00  0.63971777777E+02  0.63971777777E+02  0.00000000000E+00 0.  1.
          2   -1    0    0  501    0  0.00000000000E+00 -0.00000000000E+00 -0.22243083235E+03  0.22243083235E+03  0.00000000000E+00 0. -1.
         25    2    1    2    0    0 -0.87341126657E+01  0.23707099087E+02 -0.14237770126E+03  0.19120009701E+03  0.12509099093E+03 0.  0.
          5    1    3    3  502    0  0.29195845580E+02 -0.33570801779E+02 -0.10211138933E+03  0.11146122358E+03  0.41800000000E+01 0.  1.
         -5    1    3    3    0  502 -0.37929958246E+02  0.57277900866E+02 -0.40266311932E+02  0.79738873435E+02  0.41800000000E+01 0.  1.
        -11    1    1    2    0    0  0.27076116492E+02 -0.26335072939E+02 -0.46301844448E+02  0.59753769340E+02  0.00000000000E+00 0. -1.
         11    1    1    2    0    0 -0.18342003827E+02  0.26279738518E+01  0.30220491133E+02  0.35448743776E+02  0.00000000000E+00 0.  1.
</event>
<event>
 7    1  0.2530765E-009  0.4877020E+02  0.7561462E-02  0.1452090E+00
          2   -1    0    0  501    0  0.00000000000E+00  0.00000000000E+00  0.14873712807E+03  0.14873712807E+03  0.00000000000E+00 0. -1.
         -2   -1    0    0    0  501 -0.00000000000E+00 -0.00000000000E+00 -0.84732854257E+02  0.84732854257E+02  0.00000000000E+00 0.  1.
         25    2    1    2    0    0 -0.16369171297E+02 -0.53806647388E+01  0.15878694076E+02  0.12726311592E+03  0.12508743513E+03 0.  0.
          5    1    3    3  502    0 -0.79272828385E+01 -0.26447032728E+02  0.66229697347E+02  0.71875813484E+02  0.41800000000E+01 0.  1.
         -5    1    3    3    0  502 -0.84418884581E+01  0.21066367990E+02 -0.50351003271E+02  0.55387302438E+02  0.41800000000E+01 0.  1.
        -11    1    1    2    0    0 -0.73633307194E+00  0.22398556564E+02 -0.22389071032E+02  0.31678194775E+02  0.00000000000E+00 0.  1.
         11    1    1    2    0    0  0.17105504369E+02 -0.17017891825E+02  0.70514650768E+02  0.74528671629E+02  0.00000000000E+00 0. -1.
</event>
<event>
 7    1  0.2530765E-009  0.1235124E+03  0.7561462E-02  0.1237413E+00
         -1   -1    0    0    0  501 -0.00000000000E+00  0.00000000000E+00  0.60922908835E+03  0.60922908835E+03  0.00000000000E+00 0.  1.
          1   -1    0    0  501    0  0.00000000000E+00 -0.00000000000E+00 -0.33570740852E+02  0.33570740852E+02  0.00000000000E+00 0. -1.
         25    2    1    2    0    0 -0.13294223586E+02  0.69045278975E+02  0.45230561382E+03  0.47452320373E+03  0.12509162904E+03 0.  0.
          5    1    3    3  502    0 -0.57780831287E+02 -0.18866058614E+01  0.15000944603E+03  0.16081818941E+03  0.41800000000E+01 0.  1.
         -5    1    3    3    0  502  0.44486607701E+02  0.70931884836E+02  0.30229616779E+03  0.31370501432E+03  0.41800000000E+01 0.  1.
        -11    1    1    2    0    0 -0.27492212302E+02 -0.56039591147E+02  0.10400354936E+03  0.12129713844E+03  0.00000000000E+00 0. -1.
         11    1    1    2    0    0  0.40786435888E+02 -0.13005687828E+02  0.19349184314E+02  0.46979487033E+02  0.00000000000E+00 0.  1.
</event>
<event>
 7    1  0.2530765E-009  0.1255187E+03  0.7561462E-02  0.1234261E+00
          2   -1    0    0  501    0  0.00000000000E+00  0.00000000000E+00  0.15441978358E+04  0.15441978358E+04  0.00000000000E+00 0. -1.
         -2   -1    0    0    0  501 -0.00000000000E+00 -0.00000000000E+00 -0.12080153246E+02  0.12080153246E+02  0.00000000000E+00 0.  1.
         25    2    1    2    0    0  0.65827397512E+02 -0.50367950931E+02  0.90473429640E+03  0.91709415577E+03  0.12508943489E+03 0.  0.
          5    1    3    3  502    0  0.98327423046E+01  0.29513118127E+02  0.70578781874E+02  0.77243406280E+02  0.41800000000E+01 0.  1.
         -5    1    3    3    0  502  0.55994655207E+02 -0.79881069058E+02  0.83415551452E+03  0.83985074949E+03  0.41800000000E+01 0.  1.
        -11    1    1    2    0    0  0.10312323462E+02 -0.17302774310E+02  0.89355194895E+02  0.91597384617E+02  0.00000000000E+00 0.  1.
         11    1    1    2    0    0 -0.76139720974E+02  0.67670725240E+02  0.53802819126E+03  0.54758644866E+03  0.00000000000E+00 0. -1.
</event>
<event>
 7    1  0.2530765E-009  0.1269479E+03  0.7561462E-02  0.1232056E+00
          2   -1    0    0  501    0  0.00000000000E+00  0.00000000000E+00  0.10961454541E+03  0.10961454541E+03  0.00000000000E+00 0. -1.
         -2   -1    0    0    0  501 -0.00000000000E+00 -0.00000000000E+00 -0.16183838634E+03  0.16183838634E+03  0.00000000000E+00 0.  1.
         25    2    1    2    0    0 -0.43021860923E+02 -0.63873010706E+02 -0.26162078517E+02  0.14920430464E+03  0.12508728215E+03 0.  0.
          5    1    3    3  502    0  0.20826986407E+02  0.21932017065E+02 -0.29029322866E+02  0.42130164033E+02  0.41800000000E+01 0. -1.
         -5    1    3    3    0  502 -0.63848847331E+02 -0.85805027771E+02  0.28672443486E+01  0.10707414061E+03  0.41800000000E+01 0. -1.
        -11    1    1    2    0    0 -0.26343561096E+02  0.27193362472E+02  0.43180614523E+01  0.38106532622E+02  0.00000000000E+00 0.  1.
         11    1    1    2    0    0  0.69365422019E+02  0.36679648234E+02 -0.30379823872E+02  0.84142094489E+02  0.00000000000E+00 0. -1.
</event>
<event>
 7    1  0.2530765E-009  0.1024652E+03  0.7561462E-02  0.1275196E+00
          1   -1    0    0  501    0  0.00000000000E+00  0.00000000000E+00  0.16262256171E+02  0.16262256171E+02  0.00000000000E+00 0. -1.
         -1   -1    0    0    0  501 -0.00000000000E+00 -0.00000000000E+00 -0.89010224889E+03  0.89010224889E+03  0.00000000000E+00 0.  1.
         25    2    1    2    0    0  0.49440063981E+02 -0.10105709837E+02 -0.52297864986E+03  0.54009289880E+03  0.12508887171E+03 0.  0.
          5    1    3    3  502    0  0.28976438724E+02 -0.48185647318E+02 -0.99271822524E+02  0.11416592204E+03  0.41800000000E+01 0. -1.
         -5    1    3    3    0  502  0.20463625257E+02  0.38079937481E+02 -0.42370682734E+03  0.42592697676E+03  0.41800000000E+01 0. -1.
        -11    1    1    2    0    0 -0.15851786609E+02 -0.41001973332E+02 -0.14900122518E+03  0.15535059079E+03  0.00000000000E+00 0.  1.
         11    1    1    2    0    0 -0.33588277372E+02  0.51107683169E+02 -0.20186011768E+03  0.21092101546E+03  0.00000000000E+00 0. -1.
</event>
<event>
 7    1  0.2530765E-009  0.7252933E+02  0.7561462E-02  0.1351697E+00
         -3   -1    0    0    0  501 -0.00000000000E+00  0.00000000000E+00  0.36306302744E+02  0.36306302744E+02  0.00000000000E+00 0.  1.
          3   -1    0    0  501    0  0.00000000000E+00 -0.00000000000E+00 -0.36879881720E+03  0.36879881720E+03  0.00000000000E+00 0. -1.
         25    2    1    2    0    0 -0.16482200512E+02  0.33962714738E+02 -0.18218870260E+03  0.22420102743E+03  0.12509295911E+03 0.  0.
          5    1    3    3  502    0 -0.13549695350E+02  0.68949254353E-01  0.16969866709E+02  0.22114424573E+02  0.41800000000E+01 0.  1.
         -5    1    3    3    0  502 -0.29325051617E+01  0.33893765484E+02 -0.19915856931E+03  0.20208660286E+03  0.41800000000E+01 0.  1.
        -11    1    1    2    0    0  0.90398614326E+01 -0.64520882210E+02 -0.75299685601E+02  0.99572616655E+02  0.00000000000E+00 0.  1.
         11    1    1    2    0    0  0.74423390796E+01  0.30558167472E+02 -0.75004126253E+02  0.81331475858E+02  0.00000000000E+00 0. -1.
</event>
<event>
 7    1  0.2530765E-009  0.6326812E+02  0.7561462E-02  0.1384607E+00
          1   -1    0    0  501    0  0.00000000000E+00  0.00000000000E+00  0.53457128575E+03  0.53457128575E+03  0.00000000000E+00 0. -1.
         -1   -1    0    0    0  501 -0.00000000000E+00 -0.00000000000E+00 -0.23192912007E+02  0.23192912007E+02  0.00000000000E+00 0.  1.
         25    2    1    2    0    0  0.14654671264E+02 -0.18090120704E+02  0.26554227854E+03  0.29445958584E+03  0.12510689088E+03 0.  0.
          5    1    3    3  502    0  0.20064944561E+02 -0.22083263205E+02  0.13608353408E+01  0.30159522324E+02  0.41800000000E+01 0.  1.
         -5    1    3    3    0  502 -0.54102732965E+01  0.39931425003E+01  0.26418144320E+03  0.26430006352E+03  0.41800000000E+01 0.  1.
        -11    1    1    2    0    0 -0.48881843415E+02  0.22804319060E+02  0.19118263312E+03  0.19864609433E+03  0.00000000000E+00 0. -1.
         11    1    1    2    0    0  0.34227172151E+02 -0.47141983559E+01  0.54653462081E+02  0.64658517591E+02  0.00000000000E+00 0.  1.
</event>
<event>
 7    1  0.2530765E-009  0.1274598E+03  0.7561462E-02  0.1231274E+00
         -1   -1    0    0    0  501 -0.00000000000E+00  0.00000000000E+00  0.25600805617E+02  0.25600805617E+02  0.00000000000E+00 0.  1.
          1   -1    0    0  501    0  0.00000000000E+00 -0.00000000000E+00 -0.81480212760E+03  0.81480212760E+03  0.00000000000E+00 0. -1.
         25    2    1    2    0    0  0.77545289734E+02 -0.15482154576E+02 -0.27529983119E+03  0.31255193120E+03  0.12508294676E+03 0.  0.
          5    1    3    3  502    0  0.25697088946E+02 -0.66170760544E+02 -0.99117570029E+02  0.12198637227E+03  0.41800000000E+01 0. -1.
         -5    1    3    3    0  502  0.51848200788E+02  0.50688605968E+02 -0.17618226116E+03  0.19056555892E+03  0.41800000000E+01 0. -1.
        -11    1    1    2    0    0 -0.64042578099E+02 -0.24815395094E+02 -0.40798869608E+03  0.41372941854E+03  0.00000000000E+00 0. -1.
         11    1    1    2    0    0 -0.13502711635E+02  0.40297549670E+02 -0.10591279471E+03  0.11412158348E+03  0.00000000000E+00 0.  1.
</event>
<event>
 7    1  0.2530765E-009  0.2703460E+03  0.7561462E-02  0.1101082E+00
         -2   -1    0    0    0  501 -0.00000000000E+00  0.00000000000E+00  0.81339085920E+02  0.81339085920E+02  0.00000000000E+00 0.  1.
          2   -1    0    0  501    0  0.00000000000E+00 -0.00000000000E+00 -0.98131010259E+03  0.98131010259E+03  0.00000000000E+00 0. -1.
         25    2    1    2    0    0 -0.15585884697E+03  0.19427738770E+03 -0.31163092252E+03  0.41808174854E+03  0.12507131184E+03 0.  0.
          5    1    3    3  502    0  0.15273196004E+02  0.53475888857E+02 -0.79636006588E+02  0.97222976453E+02  0.41800000000E+01 0. -1.
         -5    1    3    3    0  502 -0.17113204298E+03  0.14080149884E+03 -0.23199491593E+03  0.32085877209E+03  0.41800000000E+01 0. -1.
        -11    1    1    2    0    0  0.11115828213E+03 -0.70402511038E+02 -0.28988518787E+03  0.31834902135E+03  0.00000000000E+00 0.  1.
         11    1    1    2    0    0  0.44700564845E+02 -0.12387487666E+03 -0.29845490628E+03  0.32621841862E+03  0.00000000000E+00 0. -1.
</event>
<event>
 7    1  0.2530765E-009  0.1461018E+03  0.7561462E-02  0.1205346E+00
         -2   -1    0    0    0  501 -0.00000000000E+00  0.00000000000E+00  0.37701885875E+02  0.37701885875E+02  0.00000000000E+00 0.  1.
          2   -1    0    0  501    0  0.00000000000E+00 -0.00000000000E+00 -0.10784441412E+04  0.10784441412E+04  0.00000000000E+00 0. -1.
         25    2    1    2    0    0  0.71181205091E+02  0.10346272327E+03 -0.85870220659E+03  0.87680531998E+03  0.12508713152E+03 0.  0.
          5    1    3    3  502    0  0.16271564046E+02 -0.17238788189E+02 -0.35852056512E+03  0.35932771620E+03  0.41800000000E+01 0. -1.
         -5    1    3    3    0  502  0.54909641045E+02  0.12070151146E+03 -0.50018164147E+03  0.51747760378E+03  0.41800000000E+01 0. -1.
        -11    1    1    2    0    0 -0.36869243003E+02 -0.13643688896E+02 -0.74306922435E+01  0.40008830444E+02  0.00000000000E+00 0.  1.
         11    1    1    2    0    0 -0.34311962089E+02 -0.89819034373E+02 -0.17460935652E+03  0.19933187669E+03  0.00000000000E+00 0. -1.
</event>
<event>
 7    1  0.2530765E-009  0.1279000E+03  0.7561462E-02  0.1230606E+00
         -1   -1    0    0    0  501 -0.00000000000E+00  0.00000000000E+00  0.28234757981E+03  0.28234757981E+03  0.00000000000E+00 0.  1.
          1   -1    0    0  501    0  0.00000000000E+00 -0.00000000000E+00 -0.99097111860E+02  0.99097111860E+02  0.00000000000E+00 0. -1.
         25    2    1    2    0    0  0.88310306268E+02 -0.54933064151E+02  0.18206287453E+03  0.24415311371E+03  0.12508997131E+03 0.  0.
          5    1    3    3  502    0 -0.59740988803E+01 -0.15201709610E+02  0.12656222105E+03  0.12768026484E+03  0.41800000000E+01 0. -1.
         -5    1    3    3    0  502  0.94284405148E+02 -0.39731354541E+02  0.55500653483E+02  0.11647284887E+03  0.41800000000E+01 0. -1.
        -11    1    1    2    0    0 -0.86314628765E+02  0.76225899914E+02  0.62156018896E+01  0.11532231642E+03  0.00000000000E+00 0. -1.
         11    1    1    2    0    0 -0.19956775022E+01 -0.21292835763E+02 -0.50280084709E+01  0.21969261542E+02  0.00000000000E+00 0.  1.
</event>
<event>
 7    1  0.2530765E-009  0.1426626E+03  0.7561462E-02  0.1209790E+00
         -1   -1    0    0    0  501 -0.00000000000E+00  0.00000000000E+00  0.21256419596E+02  0.21256419596E+02  0.00000000000E+00 0.  1.
          1   -1    0    0  501    0  0.00000000000E+00 -0.00000000000E+00 -0.10568703000E+04  0.10568703000E+04  0.00000000000E+00 0. -1.
         25    2    1    2    0    0  0.79385722355E+01 -0.10021234583E+03 -0.58133571889E+03  0.60308023608E+03  0.12509603472E+03 0.  0.
          5    1    3    3  502    0  0.23666002227E+02 -0.12049530381E+03 -0.54319715829E+03  0.55691994315E+03  0.41800000000E+01 0. -1.
         -5    1    3    3    0  502 -0.15727429991E+02  0.20282957979E+02 -0.38138560599E+02  0.46160292927E+02  0.41800000000E+01 0. -1.
        -11    1    1    2    0    0  0.35069414384E+02  0.83042264971E+02 -0.33987654045E+03  0.35162756483E+03  0.00000000000E+00 0. -1.
         11    1    1    2    0    0 -0.43007986620E+02  0.17170080862E+02 -0.11440162108E+03  0.12341891871E+03  0.00000000000E+00 0.  1.
</event>
<event>
 7    1  0.2530765E-009  0.1298032E+03  0.7561462E-02  0.1227748E+00
         -1   -1    0    0    0  501 -0.00000000000E+00  0.00000000000E+00  0.69110694472E+02  0.69110694472E+02  0.00000000000E+00 0.  1.
          1   -1    0    0  501    0  0.00000000000E+00 -0.00000000000E+00 -0.30870069753E+03  0.30870069753E+03  0.00000000000E+00 0. -1.
         25    2    1    2    0    0 -0.35380015065E+02  0.88786976129E+02 -0.15717600587E+03  0.22245641852E+03  0.12509072198E+03 0.  0.
          5    1    3    3  502    0  0.17344913790E+02  0.10117471746E+03 -0.95474806802E+02  0.14025006461E+03  0.41800000000E+01 0.  1.
         -5    1    3    3    0  502 -0.52724928856E+02 -0.12387741335E+02 -0.61701199067E+02  0.82206353918E+02  0.41800000000E+01 0.  1.
        -11    1    1    2    0    0  0.13392392749E+02 -0.75880404174E+02 -0.89242847107E+01  0.77568258835E+02  0.00000000000E+00 0.  1.
         11    1    1    2    0    0  0.21987622317E+02 -0.12906571955E+02 -0.73489712475E+02  0.77786714640E+02  0.00000000000E+00 0. -1.
</event>
<event>
 7    1  0.2530765E-009  0.8589463E+02  0.7561462E-02  0.1313109E+00
         -1   -1    0    0    0  501 -0.00000000000E+00  0.00000000000E+00  0.30511683129E+02  0.30511683129E+02  0.00000000000E+00 0.  1.
          1   -1    0    0  501    0  0.00000000000E+00 -0.00000000000E+00 -0.42061267707E+03  0.42061267707E+03  0.00000000000E+00 0. -1.
         25    2    1    2    0    0 -0.16523212825E+01  0.38754719800E+02 -0.24160635549E+03  0.27482152741E+03  0.12509429422E+03 0.  0.
          5    1    3    3  502    0  0.35826872854E+02  0.32468080115E+02 -0.22971135486E+03  0.23478185619E+03  0.41800000000E+01 0.  1.
         -5    1    3    3    0  502 -0.37479194137E+02  0.62866396849E+01 -0.11895000624E+02  0.40039671221E+02  0.41800000000E+01 0.  1.
        -11    1    1    2    0    0 -0.35826622156E+02 -0.84022440104E+01 -0.10535257311E+03  0.11159439601E+03  0.00000000000E+00 0. -1.
         11    1    1    2    0    0  0.37478943439E+02 -0.30352475790E+02 -0.43142065346E+02  0.64708436778E+02  0.00000000000E+00 0.  1.
</event>
<event>
 7    1  0.2530765E-009  0.1011152E+03  0.7561462E-02  0.1277968E+00
         -1   -1    0    0    0  501 -0.00000000000E+00  0.00000000000E+00  0.66613893466E+02  0.66613893466E+02  0.00000000000E+00 0.  1.
          1   -1    0    0  501    0  0.00000000000E+00 -0.00000000000E+00 -0.31263457630E+03  0.31263457630E+03  0.00000000000E+00 0. -1.
         25    2    1    2    0    0  0.37564116926E+02 -0.29101954702E+02 -0.24118415301E+03  0.27582190872E+03  0.12509973229E+03 0.  0.
          5    1    3    3  502    0  0.70995055189E+02 -0.41409134680E+02 -0.96823667359E+02  0.12707206324E+03  0.41800000000E+01 0.  1.
         -5    1    3    3    0  502 -0.33430938262E+02  0.12307179979E+02 -0.14436048565E+03  0.14874984547E+03  0.41800000000E+01 0.  1.
        -11    1    1    2    0    0 -0.41022926561E+02  0.48979957946E+02  0.23985699608E+02  0.68243905000E+02  0.00000000000E+00 0.  1.
         11    1    1    2    0    0  0.34588096346E+01 -0.19878003244E+02 -0.28822229441E+02  0.35182656054E+02  0.00000000000E+00 0. -1.
</event>
<event>
 7    1  0.2530765E-009  0.1071643E+03  0.7561462E-02  0.1265913E+00
          1   -1    0    0  501    0  0.00000000000E+00  0.00000000000E+00  0.26686488519E+03  0.26686488519E+03  0.00000000000E+00 0. -1.
         -1   -1    0    0    0  501 -0.00000000000E+00 -0.00000000000E+00 -0.48102391246E+02  0.48102391246E+02  0.00000000000E+00 0.  1.
         25    2    1    2    0    0 -0.26712264471E+02 -0.35840930068E+01  0.93579410442E+02  0.15852535855E+03  0.12508713942E+03 0.  0.
          5    1    3    3  502    0  0.32832278456E+02  0.35991584264E+02  0.65179233069E+02  0.81481025214E+02  0.41800000000E+01 0.  1.
         -5    1    3    3    0  502 -0.59544542927E+02 -0.39575677271E+02  0.28400177373E+02  0.77044333332E+02  0.41800000000E+01 0.  1.
        -11    1    1    2    0    0 -0.22349207088E+02  0.30532637773E+02  0.51725344445E+02  0.64087754562E+02  0.00000000000E+00 0.  1.
         11    1    1    2    0    0  0.49061471560E+02 -0.26948544766E+02  0.73457739052E+02  0.92354163324E+02  0.00000000000E+00 0. -1.
</event>
<event>
 7    1  0.2530765E-009  0.1216338E+03  0.7561462E-02  0.1240426E+00
          2   -1    0    0  501    0  0.00000000000E+00  0.00000000000E+00  0.83672688172E+03  0.83672688172E+03  0.00000000000E+00 0. -1.
         -2   -1    0    0    0  501 -0.00000000000E+00 -0.00000000000E+00 -0.20836128376E+02  0.20836128376E+02  0.00000000000E+00 0.  1.
         25    2    1    2    0    0  0.65123852523E+02 -0.24956602604E+02  0.35619254055E+03  0.38390655960E+03  0.12508865808E+03 0.  0.
          5    1    3    3  502    0 -0.35058370055E+02 -0.72921044223E+01  0.14555396429E+03  0.14995230248E+03  0.41800000000E+01 0.  1.
         -5    1    3    3    0  502  0.10018222258E+03 -0.17664498182E+02  0.21063857626E+03  0.23395425712E+03  0.41800000000E+01 0.  1.
        -11    1    1    2    0    0 -0.66873216174E+02 -0.12392939310E+02  0.37433825193E+03  0.38046647532E+03  0.00000000000E+00 0.  1.
         11    1    1    2    0    0  0.17493636511E+01  0.37349541915E+02  0.85359960869E+02  0.93189975180E+02  0.00000000000E+00 0. -1.
</event>
<event>
 7    1  0.2530765E-009  0.9922557E+02  0.7561462E-02  0.1281933E+00
          2   -1    0    0  501    0  0.00000000000E+00  0.00000000000E+00  0.63505331152E+03  0.63505331152E+03  0.00000000000E+00 0. -1.
         -2   -1    0    0    0  501 -0.00000000000E+00 -0.00000000000E+00 -0.23983652568E+02  0.23983652568E+02  0.00000000000E+00 0.  1.
         25    2    1    2    0    0  0.58243826937E+02  0.69998285534E+00  0.39172287613E+03  0.41531582756E+03  0.12509033371E+03 0.  0.
          5    1    3    3  502    0  0.80554950224E+01  0.47124774800E+02  0.61210905760E+02  0.77780992434E+02  0.41800000000E+01 0.  1.
         -5    1    3    3    0  502  0.50188331915E+02 -0.46424791945E+02  0.33051197037E+03  0.33753483513E+03  0.41800000000E+01 0.  1.
        -11    1    1    2    0    0 -0.42638667782E+02 -0.27652893657E+02  0.20153307743E+03  0.20784205498E+03  0.00000000000E+00 0. -1.
         11    1    1    2    0    0 -0.15605159155E+02  0.26952910802E+02  0.17813705386E+02  0.35879081545E+02  0.00000000000E+00 0.  1.
</event>
<event>
 7    1  0.2530765E-009  0.1145890E+03  0.7561462E-02  0.1252300E+00
         -2   -1    0    0    0  501 -0.00000000000E+00  0.00000000000E+00  0.35753148768E+02  0.35753148768E+02  0.00000000000E+00 0.  1.
          2   -1    0    0  501    0  0.00000000000E+00 -0.00000000000E+00 -0.39380838378E+03  0.39380838378E+03  0.00000000000E+00 0. -1.
         25    2    1    2    0    0 -0.11525001195E+02  0.36473235387E+02 -0.25073245608E+03  0.28280579606E+03  0.12509688725E+03 0.  0.
          5    1    3    3  502    0  0.21430691323E+02 -0.41025485934E+02 -0.91568666711E+02  0.10268718591E+03  0.41800000000E+01 0.  1.
         -5    1    3    3    0  502 -0.32955692517E+02  0.77498721321E+02 -0.15916378937E+03  0.18011861015E+03  0.41800000000E+01 0.  1.
        -11    1    1    2    0    0  0.13636215111E+02 -0.66702799685E+02 -0.86074484999E+02  0.10974528152E+03  0.00000000000E+00 0. -1.
         11    1    1    2    0    0 -0.21112139162E+01  0.30229564298E+02 -0.21248293933E+02  0.37010454968E+02  0.00000000000E+00 0.  1.
</event>
<event>
 7    1  0.2530765E-009  0.9471156E+02  0.7561462E-02  0.1291827E+00
         -4   -1    0    0    0  501 -0.00000000000E+00  0.00000000000E+00  0.50731367691E+03  0.50731367691E+03  0.00000000000E+00 0.  1.
          4   -1    0    0  501    0  0.00000000000E+00 -0.00000000000E+00 -0.29998217183E+02  0.29998217183E+02  0.00000000000E+00 0. -1.
         25    2    1    2    0    0 -0.36430883585E+01  0.53662604531E+02  0.33251468085E+03  0.35931642535E+03  0.12509729547E+03 0.  0.
          5    1    3    3  502    0 -0.26861716672E+02  0.56524356769E+02  0.32943519662E+03  0.33535291247E+03  0.41800000000E+01 0.  1.
         -5    1    3    3    0  502  0.23218628314E+02 -0.28617522388E+01  0.30794842278E+01  0.23963512884E+02  0.41800000000E+01 0.  1.
        -11    1    1    2    0    0  0.42860018184E+02 -0.95482812037E+01  0.52601185838E+02  0.68520329715E+02  0.00000000000E+00 0.  1.
         11    1    1    2    0    0 -0.39216929825E+02 -0.44114323327E+02  0.92199593047E+02  0.10947513903E+03  0.00000000000E+00 0. -1.
</event>
<event>
 7    1  0.2530765E-009  0.1099365E+03  0.7561462E-02  0.1260687E+00
         -1   -1    0    0    0  501 -0.00000000000E+00  0.00000000000E+00  0.39533035935E+03  0.39533035935E+03  0.00000000000E+00 0.  1.
          1   -1    0    0  501    0  0.00000000000E+00 -0.00000000000E+00 -0.44742137043E+02  0.44742137043E+02  0.00000000000E+00 0. -1.
         25    2    1    2    0    0  0.63145937407E+02 -0.37288994555E+02  0.15574345201E+03  0.21279451725E+03  0.12509038813E+03 0.  0.
          5    1    3    3  502    0  0.59203707995E+02 -0.79819253850E+02  0.12622671541E+03  0.16070733776E+03  0.41800000000E+01 0. -1.
         -5    1    3    3    0  502  0.39422294125E+01  0.42530259295E+02  0.29516736594E+02  0.52087179494E+02  0.41800000000E+01 0. -1.
        -11    1    1    2    0    0 -0.60051758034E+02  0.25396589987E+02  0.20254199642E+03  0.21277796112E+03  0.00000000000E+00 0.  1.
         11    1    1    2    0    0 -0.30941793735E+01  0.11892404567E+02 -0.76972261241E+01  0.14500018014E+02  0.00000000000E+00 0. -1.
</event>
<event>
 7    1  0.2530765E-009  0.1352770E+03  0.7561462E-02  0.1219829E+00
          1   -1    0    0  501    0  0.00000000000E+00  0.00000000000E+00  0.35075157057E+03  0.35075157057E+03  0.00000000000E+00 0. -1.
         -1   -1    0    0    0  501 -0.00000000000E+00 -0.00000000000E+00 -0.62309028643E+02  0.62309028643E+02  0.00000000000E+00 0.  1.
         25    2    1    2    0    0 -0.16842446962E+00 -0.90993001863E+02  0.98570961135E+02  0.18342811978E+03  0.12509950436E+03 0.  0.
          5    1    3    3  502    0 -0.16936584719E+02  0.22041797552E+02 -0.56942634196E+01  0.28680756217E+02  0.41800000000E+01 0.  1.
         -5    1    3    3    0  502  0.16768160249E+02 -0.11303479942E+03  0.10426522455E+03  0.15474736356E+03  0.41800000000E+01 0.  1.
        -11    1    1    2    0    0 -0.39804203850E+02  0.15581160877E+02  0.50049917375E+02  0.65819005217E+02  0.00000000000E+00 0.  1.
         11    1    1    2    0    0  0.39972628320E+02  0.75411840986E+02  0.13982166342E+03  0.16381347422E+03  0.00000000000E+00 0. -1.
</event>
<event>
 7    1  0.2530765E-009  0.8286673E+02  0.7561462E-02  0.1321107E+00
         -1   -1    0    0    0  501 -0.00000000000E+00  0.00000000000E+00  0.19615916322E+02  0.19615916322E+02  0.00000000000E+00 0.  1.
          1   -1    0    0  501    0  0.00000000000E+00 -0.00000000000E+00 -0.79016923824E+03  0.79016923824E+03  0.00000000000E+00 0. -1.
         25    2    1    2    0    0  0.22893721591E+02 -0.11085347348E+02 -0.60594818051E+03  0.61924923675E+03  0.12509761127E+03 0.  0.
          5    1    3    3  502    0 -0.24677364130E+02  0.14688405622E+02 -0.49390142530E+03  0.49475328384E+03  0.41800000000E+01 0. -1.
         -5    1    3    3    0  502  0.47571085721E+02 -0.25773752970E+02 -0.11204675521E+03  0.12449595291E+03  0.41800000000E+01 0. -1.
        -11    1    1    2    0    0  0.48093192118E+01 -0.31378946133E+02 -0.20544005535E+02  0.37813013303E+02  0.00000000000E+00 0.  1.
         11    1    1    2    0    0 -0.27703040803E+02  0.42464293480E+02 -0.14406113588E+03  0.15272290451E+03  0.00000000000E+00 0. -1.
</event>
<event>
 7    1  0.2530765E-009  0.1352217E+03  0.7561462E-02  0.1219907E+00
          1   -1    0    0  501    0  0.00000000000E+00  0.00000000000E+00  0.16366341208E+04  0.16366341208E+04  0.00000000000E+00 0. -1.
         -1   -1    0    0    0  501 -0.00000000000E+00 -0.00000000000E+00 -0.15541952793E+02  0.15541952793E+02  0.00000000000E+00 0.  1.
         25    2    1    2    0    0  0.26538180056E+02  0.10688378165E+03  0.11428095566E+04  0.11548976688E+04  0.12508607038E+03 0.  0.
          5    1    3    3  502    0 -0.16549446527E+02 -0.89020535956E+01  0.49649763272E+03  0.49687070998E+03  0.41800000000E+01 0. -1.
         -5    1    3    3    0  502  0.43087626583E+02  0.11578583525E+03  0.64631192385E+03  0.65802695881E+03  0.41800000000E+01 0. -1.
        -11    1    1    2    0    0 -0.47140917187E+02 -0.59513449757E+02  0.36443950383E+03  0.37226370858E+03  0.00000000000E+00 0. -1.
         11    1    1    2    0    0  0.20602737131E+02 -0.47370331895E+02  0.11384310757E+03  0.12501469618E+03  0.00000000000E+00 0.  1.
</event>
<event>
 7    1  0.2530765E-009  0.7792251E+02  0.7561462E-02  0.1335053E+00
         -1   -1    0    0    0  501 -0.00000000000E+00  0.00000000000E+00  0.72039976627E+02  0.72039976627E+02  0.00000000000E+00 0.  1.
          1   -1    0    0  501    0  0.00000000000E+00 -0.00000000000E+00 -0.18346200387E+03  0.18346200387E+03  0.00000000000E+00 0. -1.
         25    2    1    2    0    0 -0.46294354805E+02  0.78906179407E+01 -0.60769198425E+02  0.14678144869E+03  0.12508584678E+03 0.  0.
          5    1    3    3  502    0  0.23431102982E+02 -0.71844926744E+01 -0.70414393880E+02  0.74674579259E+02  0.41800000000E+01 0.  1.
         -5    1    3    3    0  502 -0.69725457788E+02  0.15075110615E+02  0.96451954558E+01  0.72106869431E+02  0.41800000000E+01 0.  1.
        -11    1    1    2    0    0  0.11366935822E+02  0.14206246113E+02  0.19893511460E+02  0.26958791828E+02  0.00000000000E+00 0.  1.
         11    1    1    2    0    0  0.34927418984E+02 -0.22096864054E+02 -0.70546340281E+02  0.81761739982E+02  0.00000000000E+00 0. -1.
</event>
<event>
 7    1  0.2530765E-009  0.1076927E+03  0.7561462E-02  0.1264903E+00
         -2   -1    0    0    0  501 -0.00000000000E+00  0.00000000000E+00  0.16010799376E+02  0.16010799376E+02  0.00000000000E+00 0.  1.
          2   -1    0    0  501    0  0.00000000000E+00 -0.00000000000E+00 -0.11745523533E+04  0.11745523533E+04  0.00000000000E+00 0. -1.
         25    2    1    2    0    0  0.57304082137E+02 -0.51328664435E+02 -0.50037037156E+03  0.52147383453E+03  0.12508421858E+03 0.  0.
          5    1    3    3  502    0 -0.73026482629E+01 -0.22715909357E+02 -0.10308225445E+02  0.26326281952E+02  0.41800000000E+01 0.  1.
         -5    1    3    3    0  502  0.64606730400E+02 -0.28612755078E+02 -0.49006214612E+03  0.49514755258E+03  0.41800000000E+01 0.  1.
        -11    1    1    2    0    0 -0.59506311660E+02 -0.88488219230E+01 -0.33031540184E+03  0.33574926280E+03  0.00000000000E+00 0.  1.
         11    1    1    2    0    0  0.22022295228E+01  0.60177486358E+02 -0.32785578057E+03  0.33334005539E+03  0.00000000000E+00 0. -1.
</event>
<event>
 7    1  0.2530765E-009  0.1172246E+03  0.7561462E-02  0.1247747E+00
          1   -1    0    0  501    0  0.00000000000E+00  0.00000000000E+00  0.43958034447E+03  0.43958034447E+03  0.00000000000E+00 0. -1.
         -1   -1    0    0    0  501 -0.00000000000E+00 -0.00000000000E+00 -0.48756261871E+02  0.48756261871E+02  0.00000000000E+00 0.  1.
         25    2    1    2    0    0  0.33252211659E+02  0.91242164799E+02  0.18842380230E+03  0.24613444647E+03  0.12509114376E+03 0.  0.
          5    1    3    3  502    0 -0.32102762697E+02  0.49085564537E+02  0.22714799223E+02  0.63035026155E+02  0.41800000000E+01 0.  1.
         -5    1    3    3    0  502  0.65354974356E+02  0.42156600262E+02  0.16570900307E+03  0.18309942031E+03  0.41800000000E+01 0.  1.
        -11    1    1    2    0    0 -0.17674937378E+02 -0.32531369816E+02  0.16874656976E+03  0.17276023338E+03  0.00000000000E+00 0. -1.
         11    1    1    2    0    0 -0.15577274281E+02 -0.58710794984E+02  0.33653710547E+02  0.69441926494E+02  0.00000000000E+00 0.  1.
</event>
<event>
 7    1  0.2530765E-009  0.2132832E+03  0.7561462E-02  0.1138992E+00
         -2   -1    0    0    0  501 -0.00000000000E+00  0.00000000000E+00  0.21203648899E+03  0.21203648899E+03  0.00000000000E+00 0.  1.
          2   -1    0    0  501    0  0.00000000000E+00 -0.00000000000E+00 -0.23591202765E+03  0.23591202765E+03  0.00000000000E+00 0. -1.
         25    2    1    2    0    0  0.68202794606E+02 -0.18270421772E+03 -0.30797526842E+00  0.23169069203E+03  0.12509208432E+03 0.  0.
          5    1    3    3  502    0  0.96677491020E+02 -0.14479765810E+03 -0.28352033043E+02  0.17644888563E+03  0.41800000000E+01 0. -1.
         -5    1    3    3    0  502 -0.28474696414E+02 -0.37906559623E+02  0.28044057775E+02  0.55241806404E+02  0.41800000000E+01 0. -1.
        -11    1    1    2    0    0  0.18955029209E+01  0.82528666405E+02  0.22564058107E+02  0.85578679752E+02  0.00000000000E+00 0.  1.
         11    1    1    2    0    0 -0.70098297527E+02  0.10017555132E+03 -0.46131621498E+02  0.13067914485E+03  0.00000000000E+00 0. -1.
</event>
<event>
 7    1  0.2530765E-009  0.1221036E+03  0.7561462E-02  0.1239667E+00
          1   -1    0    0  501    0  0.00000000000E+00  0.00000000000E+00  0.26488021365E+03  0.26488021365E+03  0.00000000000E+00 0. -1.
         -1   -1    0    0    0  501 -0.00000000000E+00 -0.00000000000E+00 -0.61313836330E+02  0.61313836330E+02  0.00000000000E+00 0.  1.
         25    2    1    2    0    0  0.55453321057E+02  0.36125309727E+02  0.12601200410E+03  0.18948829858E+03  0.12508669515E+03 0.  0.
          5    1    3    3  502    0  0.71842762458E+02 -0.26375433719E+02  0.64384063058E+02  0.10009908090E+03  0.41800000000E+01 0.  1.
         -5    1    3    3    0  502 -0.16389441400E+02  0.62500743445E+02  0.61627941039E+02  0.89389217680E+02  0.41800000000E+01 0.  1.
        -11    1    1    2    0    0 -0.46391637083E+02  0.16631987905E+02  0.65266932423E+02  0.81783736041E+02  0.00000000000E+00 0. -1.
         11    1    1    2    0    0 -0.90616839748E+01 -0.52757297632E+02  0.12287440802E+02  0.54922015361E+02  0.00000000000E+00 0.  1.
</event>
<event>
 7    1  0.2530765E-009  0.1002640E+03  0.7561462E-02  0.1279742E+00
         -1   -1    0    0    0  501 -0.00000000000E+00  0.00000000000E+00  0.66305144998E+02  0.66305144998E+02  0.00000000000E+00 0.  1.
          1   -1    0    0  501    0  0.00000000000E+00 -0.00000000000E+00 -0.29913039330E+03  0.29913039330E+03  0.00000000000E+00 0. -1.
         25    2    1    2    0    0  0.61164470089E+02  0.46346037191E+02 -0.19179027313E+03  0.24149566658E+03  0.12509036950E+03 0.  0.
          5    1    3    3  502    0  0.11326628668E+02  0.56918516982E+02 -0.17981376707E+03  0.18899331554E+03  0.41800000000E+01 0. -1.
         -5    1    3    3    0  502  0.49837841421E+02 -0.10572479791E+02 -0.11976506061E+02  0.52502351031E+02  0.41800000000E+01 0. -1.
        -11    1    1    2    0    0 -0.31734028373E+02  0.49188386787E+01 -0.54551870640E+02  0.63302054635E+02  0.00000000000E+00 0.  1.
         11    1    1    2    0    0 -0.29430441716E+02 -0.51264875870E+02  0.13516895472E+02  0.60637817084E+02  0.00000000000E+00 0. -1.
</event>
<event>
 7    1  0.2530765E-009  0.1206652E+03  0.7561462E-02  0.1242004E+00
         -2   -1    0    0    0  501 -0.00000000000E+00  0.00000000000E+00  0.72064751446E+02  0.72064751446E+02  0.00000000000E+00 0.  1.
          2   -1    0    0  501    0  0.00000000000E+00 -0.00000000000E+00 -0.23775572155E+03  0.23775572155E+03  0.00000000000E+00 0. -1.
         25    2    1    2    0    0 -0.50293033877E+02 -0.51419039965E+02 -0.84776998019E+02  0.16735320146E+03  0.12508656090E+03 0.  0.
          5    1    3    3  502    0 -0.82341322691E+02 -0.67553994154E+02 -0.52088497205E+02  0.11863523713E+03  0.41800000000E+01 0. -1.
         -5    1    3    3    0  502  0.32048288815E+02  0.16134954189E+02 -0.32688500814E+02  0.48717964326E+02  0.41800000000E+01 0. -1.
        -11    1    1    2    0    0  0.47425676804E+02  0.30754250953E+00 -0.84731401317E+00  0.47434242312E+02  0.00000000000E+00 0.  1.
         11    1    1    2    0    0  0.28673570733E+01  0.51111497456E+02 -0.80066658072E+02  0.95033029224E+02  0.00000000000E+00 0. -1.
</event>
<event>
 7    1  0.2530765E-009  0.3881530E+03  0.7561462E-02  0.1047961E+00
         -2   -1    0    0    0  501 -0.00000000000E+00  0.00000000000E+00  0.96171634519E+02  0.96171634519E+02  0.00000000000E+00 0.  1.
          2   -1    0    0  501    0  0.00000000000E+00 -0.00000000000E+00 -0.17843230660E+04  0.17843230660E+04  0.00000000000E+00 0. -1.
         25    2    1    2    0    0 -0.27632301896E+03  0.26581104964E+03 -0.59578060246E+03  0.71945398665E+03  0.12509831221E+03 0.  0.
          5    1    3    3  502    0  0.35391932064E+01  0.18745244175E+02 -0.42895814266E+01  0.19994573677E+02  0.41800000000E+01 0.  1.
         -5    1    3    3    0  502 -0.27986221217E+03  0.24706580546E+03 -0.59149102104E+03  0.69945941297E+03  0.41800000000E+01 0.  1.
        -11    1    1    2    0    0  0.54223923776E+02 -0.50045998525E+02 -0.12322100784E+03  0.14362538999E+03  0.00000000000E+00 0.  1.
         11    1    1    2    0    0  0.22209909518E+03 -0.21576505111E+03 -0.96914982114E+03  0.10174153238E+04  0.00000000000E+00 0. -1.
</event>
<event>
 7    1  0.2530765E-009  0.1961905E+03  0.7561462E-02  0.1152993E+00
          1   -1    0    0  501    0  0.00000000000E+00  0.00000000000E+00  0.84093092285E+02  0.84093092285E+02  0.00000000000E+00 0. -1.
         -1   -1    0    0    0  501 -0.00000000000E+00 -0.00000000000E+00 -0.51208069860E+03  0.51208069860E+03  0.00000000000E+00 0.  1.
         25    2    1    2    0    0  0.93267679401E+02  0.14740930774E+03 -0.18425841948E+03  0.28288964926E+03  0.12508806689E+03 0.  0.
          5    1    3    3  502    0  0.63305578363E+02  0.15349125567E+03 -0.18907055108E+03  0.25165910972E+03  0.41800000000E+01 0. -1.
         -5    1    3    3    0  502  0.29962101038E+02 -0.60819479318E+01  0.48121316018E+01  0.31230539537E+02  0.41800000000E+01 0. -1.
        -11    1    1    2    0    0  0.13595156816E+02 -0.46548380099E+02 -0.45221230984E+02  0.66306407763E+02  0.00000000000E+00 0. -1.
         11    1    1    2    0    0 -0.10686283622E+03 -0.10086092764E+03 -0.19850795585E+03  0.24697773386E+03  0.00000000000E+00 0.  1.
</event>
<event>
 7    1  0.2530765E-009  0.1053093E+03  0.7561462E-02  0.1269511E+00
          2   -1    0    0  501    0  0.00000000000E+00  0.00000000000E+00  0.78677307091E+03  0.78677307091E+03  0.00000000000E+00 0.  1.
         -2   -1    0    0    0  501 -0.00000000000E+00 -0.00000000000E+00 -0.16051925397E+02  0.16051925397E+02  0.00000000000E+00 0. -1.
         25    2    1    2    0    0 -0.60981768559E+01 -0.25640180946E+02  0.51098897028E+03  0.52673564889E+03  0.12508440920E+03 0.  0.
          5    1    3    3  502    0  0.47667178539E+02 -0.38679448965E+02  0.16062806766E+03  0.17200903523E+03  0.41800000000E+01 0.  1.
         -5    1    3    3    0  502 -0.53765355395E+02  0.13039268019E+02  0.35036090262E+03  0.35472661366E+03  0.41800000000E+01 0.  1.
        -11    1    1    2    0    0  0.11689737790E+02  0.58815280699E+02  0.16441080762E+03  0.17500514529E+03  0.00000000000E+00 0.  1.
         11    1    1    2    0    0 -0.55915609343E+01 -0.33175099753E+02  0.95321367614E+02  0.10108420213E+03  0.00000000000E+00 0. -1.
</event>
<event>
 7    1  0.2530765E-009  0.1196649E+03  0.7561462E-02  0.1243651E+00
          2   -1    0    0  501    0  0.00000000000E+00  0.00000000000E+00  0.10297078144E+04  0.10297078144E+04  0.00000000000E+00 0. -1.
         -2   -1    0    0    0  501 -0.00000000000E+00 -0.00000000000E+00 -0.18468607298E+02  0.18468607298E+02  0.00000000000E+00 0.  1.
         25    2    1    2    0    0 -0.75148464234E+01  0.84570084313E+02  0.59240266940E+03  0.61138859448E+03  0.12508604504E+03 0.  0.
          5    1    3    3  502    0 -0.13575586517E+02 -0.29316718869E+02  0.78974381173E+02  0.85429455320E+02  0.41800000000E+01 0. -1.
         -5    1    3    3    0  502  0.60607400933E+01  0.11388680318E+03  0.51342828823E+03  0.52595913916E+03  0.41800000000E+01 0. -1.
        -11    1    1    2    0    0 -0.14147335388E+02 -0.19821470467E+02  0.18269337279E+02  0.30443496427E+02  0.00000000000E+00 0.  1.
         11    1    1    2    0    0  0.21662181811E+02 -0.64748613846E+02  0.40056720039E+03  0.40634433077E+03  0.00000000000E+00 0. -1.
</event>
<event>
 7    1  0.2530765E-009  0.1866938E+03  0.7561462E-02  0.1161478E+00
          2   -1    0    0  501    0  0.00000000000E+00  0.00000000000E+00  0.10447642604E+04  0.10447642604E+04  0.00000000000E+00 0. -1.
         -2   -1    0    0    0  501 -0.00000000000E+00 -0.00000000000E+00 -0.36085419429E+02  0.36085419429E+02  0.00000000000E+00 0.  1.
         25    2    1    2    0    0 -0.15363399259E+03 -0.17440659920E+02  0.40736278456E+03  0.45332028595E+03  0.12508902073E+03 0.  0.
          5    1    3    3  502    0 -0.14784241597E+03 -0.53563134380E+02  0.36333420423E+03  0.39592373721E+03  0.41800000000E+01 0. -1.
         -5    1    3    3    0  502 -0.57915766236E+01  0.36122474460E+02  0.44028580332E+02  0.57396548737E+02  0.41800000000E+01 0. -1.
        -11    1    1    2    0    0  0.74780909160E+02 -0.37009461103E+02  0.29519321043E+03  0.30675872615E+03  0.00000000000E+00 0. -1.
         11    1    1    2    0    0  0.78853083432E+02  0.54450121022E+02  0.30612284599E+03  0.32077066774E+03  0.00000000000E+00 0.  1.
</event>
<event>
 7    1  0.2530765E-009  0.1602907E+03  0.7561462E-02  0.1188369E+00
         -2   -1    0    0    0  501 -0.00000000000E+00  0.00000000000E+00  0.14141249555E+03  0.14141249555E+03  0.00000000000E+00 0.  1.
          2   -1    0    0  501    0  0.00000000000E+00 -0.00000000000E+00 -0.30739478692E+03  0.30739478692E+03  0.00000000000E+00 0. -1.
         25    2    1    2    0    0 -0.45787223467E+01 -0.14769395259E+03 -0.19243437588E+03  0.27297191879E+03  0.12509280994E+03 0.  0.
          5    1    3    3  502    0  0.15303873702E+00 -0.80794678324E+00  0.16753529786E+02  0.17286681554E+02  0.41800000000E+01 0. -1.
         -5    1    3    3    0  502 -0.47317610838E+01 -0.14688600581E+03 -0.20918790566E+03  0.25568523724E+03  0.41800000000E+01 0. -1.
        -11    1    1    2    0    0 -0.30561555894E+02  0.19211214268E+02  0.22577926224E+02  0.42577484718E+02  0.00000000000E+00 0.  1.
         11    1    1    2    0    0  0.35140278241E+02  0.12848273832E+03  0.38741582889E+01  0.13325787896E+03  0.00000000000E+00 0. -1.
</event>
<event>
 7    1  0.2530765E-009  0.9392151E+02  0.7561462E-02  0.1293624E+00
         -1   -1    0    0    0  501 -0.00000000000E+00  0.00000000000E+00  0.19865105756E+02  0.19865105756E+02  0.00000000000E+00 0.  1.
          1   -1    0    0  501    0  0.00000000000E+00 -0.00000000000E+00 -0.85860499500E+03  0.85860499500E+03  0.00000000000E+00 0. -1.
         25    2    1    2    0    0  0.40146866611E+02 -0.30896712524E+01 -0.66859164084E+03  0.68138714288E+03  0.12510930950E+03 0.  0.
          5    1    3    3  502    0  0.26987350527E+02 -0.61483403987E+02 -0.43701315124E+03  0.44216116158E+03  0.41800000000E+01 0. -1.
         -5    1    3    3    0  502  0.13159516085E+02  0.58393732734E+02 -0.23157848960E+03  0.23922598131E+03  0.41800000000E+01 0. -1.
        -11    1    1    2    0    0 -0.19111294888E+02  0.24150063006E+02 -0.16377045589E+03  0.16664101944E+03  0.00000000000E+00 0. -1.
         11    1    1    2    0    0 -0.21035571723E+02 -0.21060391753E+02 -0.63777925187E+01  0.30441938439E+02  0.00000000000E+00 0.  1.
</event>
<event>
 7    1  0.2530765E-009  0.1051647E+03  0.7561462E-02  0.1269795E+00
          1   -1    0    0  501    0  0.00000000000E+00  0.00000000000E+00  0.41733276322E+02  0.41733276322E+02  0.00000000000E+00 0. -1.
         -1   -1    0    0    0  501 -0.00000000000E+00 -0.00000000000E+00 -0.39732227272E+03  0.39732227272E+03  0.00000000000E+00 0.  1.
         25    2    1    2    0    0  0.76265519916E+01 -0.19943615468E+02 -0.85814900471E+02  0.15318864807E+03  0.12508658066E+03 0.  0.
          5    1    3    3  502    0 -0.10032513793E+02  0.46605762436E+02 -0.68592997236E+01  0.48345328812E+02  0.41800000000E+01 0.  1.
         -5    1    3    3    0  502  0.17659065785E+02 -0.66549377903E+02 -0.78955600747E+02  0.10484331926E+03  0.41800000000E+01 0.  1.
        -11    1    1    2    0    0 -0.52808085065E+01  0.56558237921E+02 -0.18417987383E+03  0.19274062140E+03  0.00000000000E+00 0.  1.
         11    1    1    2    0    0 -0.23457434851E+01 -0.36614622454E+02 -0.85594222104E+02  0.93126279575E+02  0.00000000000E+00 0. -1.
</event>
<event>
 7    1  0.2530765E-009  0.1274871E+03  0.7561462E-02  0.1231233E+00
          2   -1    0    0  501    0  0.00000000000E+00  0.00000000000E+00  0.20059848114E+03  0.20059848114E+03  0.00000000000E+00 0. -1.
         -2   -1    0    0    0  501 -0.00000000000E+00 -0.00000000000E+00 -0.10976887256E+03  0.10976887256E+03  0.00000000000E+00 0.  1.
         25    2    1    2    0    0  0.49917325935E+02  0.83732958542E+02  0.83111590888E+02  0.17905109258E+03  0.12509520151E+03 0.  0.
          5    1    3    3  502    0 -0.82410454402E+01 -0.18215538179E+02 -0.15544797172E+02  0.25667757600E+02  0.41800000000E+01 0. -1.
         -5    1    3    3    0  502  0.58158371376E+02  0.10194849672E+03  0.98656388061E+02  0.15338333498E+03  0.41800000000E+01 0. -1.
        -11    1    1    2    0    0 -0.48140558251E+02 -0.94572195427E+02 -0.13940705912E+02  0.10703156907E+03  0.00000000000E+00 0.  1.
         11    1    1    2    0    0 -0.17767676841E+01  0.10839236885E+02  0.21658723602E+02  0.24284692045E+02  0.00000000000E+00 0. -1.
</event>
<event>
 7    1  0.2530765E-009  0.9084738E+02  0.7561462E-02  0.1300813E+00
         -2   -1    0    0    0  501 -0.00000000000E+00  0.00000000000E+00  0.61366395201E+02  0.61366395201E+02  0.00000000000E+00 0. -1.
          2   -1    0    0  501    0  0.00000000000E+00 -0.00000000000E+00 -0.21580140032E+03  0.21580140032E+03  0.00000000000E+00 0.  1.
         25    2    1    2    0    0  0.93080648978E+00  0.40485981402E+02 -0.89027016907E+02  0.15878651569E+03  0.12508943494E+03 0.  0.
          5    1    3    3  502    0  0.54714985352E+02 -0.11555769897E+02 -0.44612481398E+02  0.71658993410E+02  0.41800000000E+01 0.  1.
         -5    1    3    3    0  502 -0.53784178862E+02  0.52041751298E+02 -0.44414535509E+02  0.87127522279E+02  0.41800000000E+01 0.  1.
        -11    1    1    2    0    0  0.14710520357E+02 -0.21673570520E+02 -0.83784028955E+02  0.87783293264E+02  0.00000000000E+00 0.  1.
         11    1    1    2    0    0 -0.15641326847E+02 -0.18812410882E+02  0.18376040742E+02  0.30597986569E+02  0.00000000000E+00 0. -1.
</event>
<event>
 7    1  0.2530765E-009  0.8171785E+02  0.7561462E-02  0.1324246E+00
          1   -1    0    0  501    0  0.00000000000E+00  0.00000000000E+00  0.54673054675E+03  0.54673054675E+03  0.00000000000E+00 0. -1.
         -1   -1    0    0    0  501 -0.00000000000E+00 -0.00000000000E+00 -0.28815672456E+02  0.28815672456E+02  0.00000000000E+00 0.  1.
         25    2    1    2    0    0  0.21928251388E+02  0.48835736043E+02  0.36263806141E+03  0.38732400025E+03  0.12509092797E+03 0.  0.
          5    1    3    3  502    0  0.42897092602E+02  0.91030805053E+01  0.32665641645E+03  0.32961327861E+03  0.41800000000E+01 0.  1.
         -5    1    3    3    0  502 -0.20968841214E+02  0.39732655538E+02  0.35981644961E+02  0.57710721639E+02  0.41800000000E+01 0.  1.
        -11    1    1    2    0    0  0.16589590873E+02 -0.20893001299E+02  0.91708994189E+00  0.26694064557E+02  0.00000000000E+00 0.  1.
         11    1    1    2    0    0 -0.38517842261E+02 -0.27942734744E+02  0.15435972294E+03  0.16152815440E+03  0.00000000000E+00 0. -1.
</event>
<event>
 7    1  0.2530765E-009  0.1113101E+03  0.7561462E-02  0.1258163E+00
          2   -1    0    0  501    0  0.00000000000E+00  0.00000000000E+00  0.26298368579E+03  0.26298368579E+03  0.00000000000E+00 0. -1.
         -2   -1    0    0    0  501 -0.00000000000E+00 -0.00000000000E+00 -0.47332793715E+02  0.47332793715E+02  0.00000000000E+00 0.  1.
         25    2    1    2    0    0 -0.24262302152E+02 -0.42144927846E+01  0.11745726116E+03  0.17335153908E+03  0.12509247239E+03 0.  0.
          5    1    3    3  502    0  0.38346436892E+02  0.36154703011E+02  0.49906950553E+02  0.72703424167E+02  0.41800000000E+01 0. -1.
         -5    1    3    3    0  502 -0.62608739044E+02 -0.40369195796E+02  0.67550310603E+02  0.10064811492E+03  0.41800000000E+01 0. -1.
        -11    1    1    2    0    0 -0.23108739989E+02  0.32566278298E+02  0.47018390929E+02  0.61687157753E+02  0.00000000000E+00 0. -1.
         11    1    1    2    0    0  0.47371042142E+02 -0.28351785513E+02  0.51175239990E+02  0.75277782668E+02  0.00000000000E+00 0.  1.
</event>
<event>
 7    1  0.2530765E-009  0.1159682E+03  0.7561462E-02  0.1249900E+00
          2   -1    0    0  501    0  0.00000000000E+00  0.00000000000E+00  0.11631406425E+03  0.11631406425E+03  0.00000000000E+00 0. -1.
         -2   -1    0    0    0  501 -0.00000000000E+00 -0.00000000000E+00 -0.13436094103E+03  0.13436094103E+03  0.00000000000E+00 0.  1.
         25    2    1    2    0    0 -0.57916622482E+02  0.12184607938E+02  0.79071611146E+01  0.13860668023E+03  0.12508592557E+03 0.  0.
          5    1    3    3  502    0  0.20247532440E+02 -0.30159091149E+02 -0.24366951372E+02  0.43940346699E+02  0.41800000000E+01 0.  1.
         -5    1    3    3    0  502 -0.78164154922E+02  0.42343699087E+02  0.32274112486E+02  0.94666333529E+02  0.41800000000E+01 0.  1.
        -11    1    1    2    0    0  0.31945032266E+02  0.38136623535E+02 -0.24421832575E+02  0.55419428430E+02  0.00000000000E+00 0.  1.
         11    1    1    2    0    0  0.25971590216E+02 -0.50321231473E+02 -0.15322053290E+01  0.56648896622E+02  0.00000000000E+00 0. -1.
</event>
<event>
 7    1  0.2530765E-009  0.2517514E+03  0.7561462E-02  0.1112203E+00
         -2   -1    0    0    0  501 -0.00000000000E+00  0.00000000000E+00  0.16543118352E+03  0.16543118352E+03  0.00000000000E+00 0.  1.
          2   -1    0    0  501    0  0.00000000000E+00 -0.00000000000E+00 -0.52878618914E+03  0.52878618914E+03  0.00000000000E+00 0. -1.
         25    2    1    2    0    0 -0.13223149480E+03 -0.20149878549E+03 -0.30544132262E+02  0.27325220728E+03  0.12508755332E+03 0.  0.
          5    1    3    3  502    0  0.35911626366E+01 -0.40078480177E+02 -0.46515281020E+02  0.61646774374E+02  0.41800000000E+01 0. -1.
         -5    1    3    3    0  502 -0.13582265744E+03 -0.16142030531E+03  0.15971148758E+02  0.21160543290E+03  0.41800000000E+01 0. -1.
        -11    1    1    2    0    0  0.90848061497E+01  0.74837866171E+02 -0.14307144441E+03  0.16171789672E+03  0.00000000000E+00 0. -1.
         11    1    1    2    0    0  0.12314668865E+03  0.12666091932E+03 -0.18973942895E+03  0.25924726866E+03  0.00000000000E+00 0.  1.
</event>
<event>
 7    1  0.2530765E-009  0.1127417E+03  0.7561462E-02  0.1255575E+00
          2   -1    0    0  501    0  0.00000000000E+00  0.00000000000E+00  0.10996732980E+03  0.10996732980E+03  0.00000000000E+00 0. -1.
         -2   -1    0    0    0  501 -0.00000000000E+00 -0.00000000000E+00 -0.16618086596E+03  0.16618086596E+03  0.00000000000E+00 0.  1.
         25    2    1    2    0    0  0.59979576696E+02 -0.12925266417E+02 -0.71908683172E+02  0.15678951114E+03  0.12508988750E+03 0.  0.
          5    1    3    3  502    0  0.93882296448E+02 -0.32157015928E+02 -0.43806736075E+02  0.10855626092E+03  0.41800000000E+01 0.  1.
         -5    1    3    3    0  502 -0.33902719752E+02  0.19231749510E+02 -0.28101947097E+02  0.48233250217E+02  0.41800000000E+01 0.  1.
        -11    1    1    2    0    0 -0.29085395230E+01  0.27822527751E+02  0.45393267504E+02  0.53320740686E+02  0.00000000000E+00 0. -1.
         11    1    1    2    0    0 -0.57071037173E+02 -0.14897261333E+02 -0.29698120488E+02  0.66037943939E+02  0.00000000000E+00 0.  1.
</event>
<event>
 7    1  0.2530765E-009  0.9219683E+02  0.7561462E-02  0.1297617E+00
         -3   -1    0    0    0  501 -0.00000000000E+00  0.00000000000E+00  0.24475030786E+03  0.24475030786E+03  0.00000000000E+00 0.  1.
          3   -1    0    0  501    0  0.00000000000E+00 -0.00000000000E+00 -0.52850999247E+02  0.52850999247E+02  0.00000000000E+00 0. -1.
         25    2    1    2    0    0  0.28416187467E+02  0.19501786016E+02  0.10537628782E+03  0.16715289126E+03  0.12509247641E+03 0.  0.
          5    1    3    3  502    0  0.13531313108E+01 -0.44953529772E+02  0.59776850317E+01  0.45561561887E+02  0.41800000000E+01 0.  1.
         -5    1    3    3    0  502  0.27063056156E+02  0.64455315787E+02  0.99398602790E+02  0.12159132937E+03  0.41800000000E+01 0.  1.
        -11    1    1    2    0    0 -0.81567675466E+01 -0.39734135325E+02  0.13429097897E+01  0.40584945158E+02  0.00000000000E+00 0. -1.
         11    1    1    2    0    0 -0.20259419921E+02  0.20232349309E+02  0.85180111001E+02  0.89863470689E+02  0.00000000000E+00 0.  1.
</event>
<event>
 7    1  0.2530765E-009  0.7905943E+02  0.7561462E-02  0.1331742E+00
         -2   -1    0    0    0  501 -0.00000000000E+00  0.00000000000E+00  0.53810528647E+02  0.53810528647E+02  0.00000000000E+00 0.  1.
          2   -1    0    0  501    0  0.00000000000E+00 -0.00000000000E+00 -0.31252293152E+03  0.31252293152E+03  0.00000000000E+00 0. -1.
         25    2    1    2    0    0  0.54550750039E+02  0.44985447119E+02 -0.12822098020E+03  0.19257916337E+03  0.12508652853E+03 0.  0.
          5    1    3    3  502    0  0.18819274380E+02 -0.74782719700E+01 -0.12729051625E+03  0.12895905384E+03  0.41800000000E+01 0. -1.
         -5    1    3    3    0  502  0.35731475659E+02  0.52463719089E+02 -0.93046394771E+00  0.63620109530E+02  0.41800000000E+01 0. -1.
        -11    1    1    2    0    0 -0.99806177233E+01 -0.20912871862E+02 -0.11975129970E+03  0.12197268022E+03  0.00000000000E+00 0. -1.
         11    1    1    2    0    0 -0.44570132315E+02 -0.24072575257E+02 -0.10740122975E+02  0.51781616580E+02  0.00000000000E+00 0.  1.
</event>
<event>
 7    1  0.2530765E-009  0.1383485E+03  0.7561462E-02  0.1215569E+00
          2   -1    0    0  501    0  0.00000000000E+00  0.00000000000E+00  0.11734635133E+03  0.11734635133E+03  0.00000000000E+00 0.  1.
         -2   -1    0    0    0  501 -0.00000000000E+00 -0.00000000000E+00 -0.19797965541E+03  0.19797965541E+03  0.00000000000E+00 0. -1.
         25    2    1    2    0    0 -0.63167041003E+02  0.80278905488E+02 -0.75261242468E+02  0.17817456739E+03  0.12508854509E+03 0.  0.
          5    1    3    3  502    0 -0.81240537047E+02  0.10229063015E+03 -0.71973314592E+02  0.14920130123E+03  0.41800000000E+01 0.  1.
         -5    1    3    3    0  502  0.18073496044E+02 -0.22011724666E+02 -0.32879278757E+01  0.28973266155E+02  0.41800000000E+01 0.  1.
        -11    1    1    2    0    0  0.63061103423E+02 -0.35360224171E+02  0.31668795525E+02  0.78930100902E+02  0.00000000000E+00 0.  1.
         11    1    1    2    0    0  0.10593758008E+00 -0.44918681316E+02 -0.37040857139E+02  0.58221338456E+02  0.00000000000E+00 0. -1.
</event>
<event>
 7    1  0.2530765E-009  0.6359730E+02  0.7561462E-02  0.1383327E+00
          1   -1    0    0  501    0  0.00000000000E+00  0.00000000000E+00  0.10943179621E+03  0.10943179621E+03  0.00000000000E+00 0. -1.
         -1   -1    0    0    0  501 -0.00000000000E+00 -0.00000000000E+00 -0.13444842564E+03  0.13444842564E+03  0.00000000000E+00 0.  1.
         25    2    1    2    0    0  0.89348618013E+01 -0.39512571983E+01  0.43262995822E+02  0.13271927605E+03  0.12508906923E+03 0.  0.
          5    1    3    3  502    0  0.38621445671E+02  0.13827618566E+02 -0.30397986934E+02  0.51228206201E+02  0.41800000000E+01 0.  1.
         -5    1    3    3    0  502 -0.29686583870E+02 -0.17778875764E+02  0.73660982756E+02  0.81491069854E+02  0.41800000000E+01 0.  1.
        -11    1    1    2    0    0  0.34336467538E+01 -0.22048076516E+02 -0.77721217053E+02  0.80860962079E+02  0.00000000000E+00 0.  1.
         11    1    1    2    0    0 -0.12368508555E+02  0.25999333714E+02  0.94415917999E+01  0.30299983716E+02  0.00000000000E+00 0. -1.
</event>
<event>
 7    1  0.2530765E-009  0.3435626E+03  0.7561462E-02  0.1065289E+00
         -2   -1    0    0    0  501 -0.00000000000E+00  0.00000000000E+00  0.97546622453E+03  0.97546622453E+03  0.00000000000E+00 0. -1.
          2   -1    0    0  501    0  0.00000000000E+00 -0.00000000000E+00 -0.12621745996E+03  0.12621745996E+03  0.00000000000E+00 0.  1.
         25    2    1    2    0    0 -0.48118894194E+02 -0.32250606592E+03  0.32222578550E+03  0.47518699162E+03  0.12509048575E+03 0.  0.
          5    1    3    3  502    0  0.36739349444E+02 -0.43189704019E+02  0.61598149572E+02  0.83826814096E+02  0.41800000000E+01 0.  1.
         -5    1    3    3    0  502 -0.84858243637E+02 -0.27931636191E+03  0.26062763592E+03  0.39136017752E+03  0.41800000000E+01 0.  1.
        -11    1    1    2    0    0  0.64539029399E+02  0.13026601044E+03  0.21106423699E+03  0.25628623047E+03  0.00000000000E+00 0.  1.
         11    1    1    2    0    0 -0.16420135206E+02  0.19224005548E+03  0.31595874208E+03  0.37021046240E+03  0.00000000000E+00 0. -1.
</event>
<event>
 7    1  0.2530765E-009  0.1408818E+03  0.7561462E-02  0.1212147E+00
          2   -1    0    0  501    0  0.00000000000E+00  0.00000000000E+00  0.45827799652E+03  0.45827799652E+03  0.00000000000E+00 0.  1.
         -2   -1    0    0    0  501 -0.00000000000E+00 -0.00000000000E+00 -0.65021321866E+02  0.65021321866E+02  0.00000000000E+00 0. -1.
         25    2    1    2    0    0  0.11223533389E+03  0.49789808325E+02  0.29786963563E+03  0.34561742014E+03  0.12509710665E+03 0.  0.
          5    1    3    3  502    0 -0.17193510241E+02 -0.13330032551E+01  0.10579584584E+01  0.17775977278E+02  0.41800000000E+01 0.  1.
         -5    1    3    3    0  502  0.12942884413E+03  0.51122811580E+02  0.29681167717E+03  0.32784144287E+03  0.41800000000E+01 0.  1.
        -11    1    1    2    0    0 -0.74393784141E+02 -0.21157481798E+02  0.73779936948E+01  0.77694973749E+02  0.00000000000E+00 0. -1.
         11    1    1    2    0    0 -0.37841549745E+02 -0.28632326527E+02  0.88009045332E+02  0.99986924494E+02  0.00000000000E+00 0.  1.
</event>
<event>
 7    1  0.2530765E-009  0.1223568E+03  0.7561462E-02  0.1239259E+00
          1   -1    0    0  501    0  0.00000000000E+00  0.00000000000E+00  0.50198684264E+02  0.50198684264E+02  0.00000000000E+00 0. -1.
         -1   -1    0    0    0  501 -0.00000000000E+00 -0.00000000000E+00 -0.61309321627E+03  0.61309321627E+03  0.00000000000E+00 0.  1.
         25    2    1    2    0    0 -0.11843704424E+03  0.16793470284E+01 -0.16538734558E+03  0.23881007650E+03  0.12508846831E+03 0.  0.
          5    1    3    3  502    0 -0.40030201683E+02 -0.87526793638E+01 -0.15323626993E+03  0.15867530768E+03  0.41800000000E+01 0.  1.
         -5    1    3    3    0  502 -0.78406842561E+02  0.10432026392E+02 -0.12151075646E+02  0.80134768824E+02  0.41800000000E+01 0.  1.
        -11    1    1    2    0    0  0.61903165169E+02  0.17981486445E+02 -0.87116181358E+02  0.10837234318E+03  0.00000000000E+00 0. -1.
         11    1    1    2    0    0  0.56533879075E+02 -0.19660833473E+02 -0.31039100507E+03  0.31610948085E+03  0.00000000000E+00 0.  1.
</event>
<event>
 7    1  0.2530765E-009  0.7498554E+02  0.7561462E-02  0.1343916E+00
          3   -1    0    0  501    0  0.00000000000E+00  0.00000000000E+00  0.13748045219E+02  0.13748045219E+02  0.00000000000E+00 0. -1.
         -3   -1    0    0    0  501 -0.00000000000E+00 -0.00000000000E+00 -0.11354701387E+04  0.11354701387E+04  0.00000000000E+00 0.  1.
         25    2    1    2    0    0  0.49603966447E+00 -0.53110753933E+02 -0.75759119793E+03  0.76968088360E+03  0.12507294337E+03 0.  0.
          5    1    3    3  502    0 -0.66789820614E+01 -0.12291424431E+02 -0.69086901001E+03  0.69102326249E+03  0.41800000000E+01 0. -1.
         -5    1    3    3    0  502  0.71750217259E+01 -0.40819329501E+02 -0.66722187923E+02  0.78657621112E+02  0.41800000000E+01 0. -1.
        -11    1    1    2    0    0 -0.38655998829E+02  0.21978170291E+02 -0.26654195149E+03  0.27022571698E+03  0.00000000000E+00 0.  1.
         11    1    1    2    0    0  0.38159959165E+02  0.31132583641E+02 -0.97588944057E+02  0.10931158333E+03  0.00000000000E+00 0. -1.
</event>
<event>
 7    1  0.2585054E-009  0.7912020E+02  0.7561462E-02  0.1331567E+00
          1   -1    0    0  501    0  0.00000000000E+00  0.00000000000E+00  0.16394037444E+03  0.16394037444E+03  0.00000000000E+00 0. -1.
         -1   -1    0    0    0  501 -0.00000000000E+00 -0.00000000000E+00 -0.11499778228E+03  0.11499778228E+03  0.00000000000E+00 0.  1.
         25    2    1    2    0    0  0.35241101698E+02  0.41866530832E+02 -0.37810381993E+02  0.14167016364E+03  0.12508424612E+03 0.  0.
          5    1    3    3  502    0  0.34152087519E+02 -0.89308731339E+01 -0.71992762021E+02  0.80290446258E+02  0.41800000000E+01 0. -1.
         -5    1    3    3    0  502  0.10890141785E+01  0.50797403966E+02  0.34182380028E+02  0.61379717383E+02  0.41800000000E+01 0. -1.
        -11    1    1    2    0    0 -0.99926298697E+00 -0.37131416195E+02 -0.65944704226E+01  0.37725689328E+02  0.00000000000E+00 0.  1.
         11    1    1    2    0    0 -0.34241838711E+02 -0.47351146379E+01  0.93347444576E+02  0.99542303760E+02  0.00000000000E+00 0. -1.
</event>
<event>
 7    1  0.2530765E-009  0.1028854E+03  0.7561462E-02  0.1274343E+00
         -2   -1    0    0    0  501 -0.00000000000E+00  0.00000000000E+00  0.28996122780E+03  0.28996122780E+03  0.00000000000E+00 0.  1.
          2   -1    0    0  501    0  0.00000000000E+00 -0.00000000000E+00 -0.61287770668E+02  0.61287770668E+02  0.00000000000E+00 0. -1.
         25    2    1    2    0    0  0.57632114548E+02  0.48709089581E+02  0.13753239866E+03  0.20064127223E+03  0.12509086059E+03 0.  0.
          5    1    3    3  502    0  0.62866678592E+02  0.36607509405E+02  0.15911494997E+03  0.17500676766E+03  0.41800000000E+01 0. -1.
         -5    1    3    3    0  502 -0.52345640437E+01  0.12101580176E+02 -0.21582551308E+02  0.25634504568E+02  0.41800000000E+01 0. -1.
        -11    1    1    2    0    0  0.11603845445E+02  0.18978443984E+02  0.10497146188E+02  0.24597167382E+02  0.00000000000E+00 0. -1.
         11    1    1    2    0    0 -0.69235959993E+02 -0.67687533565E+02  0.80643912281E+02  0.12601055886E+03  0.00000000000E+00 0.  1.
</event>
<event>
 7    1  0.2530765E-009  0.2331947E+03  0.7561462E-02  0.1124411E+00
          1   -1    0    0  501    0  0.00000000000E+00  0.00000000000E+00  0.19235568880E+03  0.19235568880E+03  0.00000000000E+00 0. -1.
         -1   -1    0    0    0  501 -0.00000000000E+00 -0.00000000000E+00 -0.33354712762E+03  0.33354712762E+03  0.00000000000E+00 0.  1.
         25    2    1    2    0    0  0.18616494466E+03  0.13344063416E+03 -0.71196611344E+02  0.27051857472E+03  0.12509017681E+03 0.  0.
          5    1    3    3  502    0  0.60116919189E+02  0.12044413442E+02  0.29932503939E+02  0.68355973111E+02  0.41800000000E+01 0. -1.
         -5    1    3    3    0  502  0.12604802547E+03  0.12139622072E+03 -0.10112911528E+03  0.20216260161E+03  0.41800000000E+01 0. -1.
        -11    1    1    2    0    0 -0.34347512090E+02 -0.34441862698E+02  0.20523336312E+02  0.52793946871E+02  0.00000000000E+00 0. -1.
         11    1    1    2    0    0 -0.15181743257E+03 -0.98998771463E+02 -0.90518163791E+02  0.20259029483E+03  0.00000000000E+00 0.  1.
</event>
<event>
 7    1  0.2530765E-009  0.1125525E+03  0.7561462E-02  0.1255915E+00
          2   -1    0    0  501    0  0.00000000000E+00  0.00000000000E+00  0.50297677624E+03  0.50297677624E+03  0.00000000000E+00 0. -1.
         -2   -1    0    0    0  501 -0.00000000000E+00 -0.00000000000E+00 -0.44083874535E+02  0.44083874535E+02  0.00000000000E+00 0.  1.
         25    2    1    2    0    0 -0.58015365174E+02 -0.77746424602E+02  0.19595082535E+03  0.25189734686E+03  0.12508100682E+03 0.  0.
          5    1    3    3  502    0 -0.54529881225E+02 -0.83339146875E+01  0.13978561830E+02  0.57059921760E+02  0.41800000000E+01 0.  1.
         -5    1    3    3    0  502 -0.34854839491E+01 -0.69412509914E+02  0.18197226352E+03  0.19483742510E+03  0.41800000000E+01 0.  1.
        -11    1    1    2    0    0  0.35219440924E+02  0.65283797354E+02  0.25834004719E+03  0.26877865094E+03  0.00000000000E+00 0. -1.
         11    1    1    2    0    0  0.22795924250E+02  0.12462627247E+02  0.46020291677E+01  0.26384652978E+02  0.00000000000E+00 0.  1.
</event>
<event>
 7    1  0.2530765E-009  0.1113351E+03  0.7561462E-02  0.1258117E+00
         -2   -1    0    0    0  501 -0.00000000000E+00  0.00000000000E+00  0.69012099874E+03  0.69012099874E+03  0.00000000000E+00 0.  1.
          2   -1    0    0  501    0  0.00000000000E+00 -0.00000000000E+00 -0.21607300921E+02  0.21607300921E+02  0.00000000000E+00 0. -1.
         25    2    1    2    0    0  0.34792837533E+02 -0.30626650955E+02  0.45477768265E+03  0.47394071399E+03  0.12509407042E+03 0.  0.
          5    1    3    3  502    0  0.41839076482E+02 -0.74908933565E+02  0.33895726390E+03  0.34967321287E+03  0.41800000000E+01 0.  1.
         -5    1    3    3    0  502 -0.70462389495E+01  0.44282282610E+02  0.11582041874E+03  0.12426750112E+03  0.41800000000E+01 0.  1.
        -11    1    1    2    0    0  0.23107780162E+02 -0.51455087515E+01  0.11783910943E+03  0.12019359998E+03  0.00000000000E+00 0.  1.
         11    1    1    2    0    0 -0.57900617695E+02  0.35772159706E+02  0.95896905744E+02  0.11759398569E+03  0.00000000000E+00 0. -1.
</event>
<event>
 7    1  0.2530765E-009  0.6925732E+02  0.7561462E-02  0.1362637E+00
         -1   -1    0    0    0  501 -0.00000000000E+00  0.00000000000E+00  0.17014388596E+03  0.17014388596E+03  0.00000000000E+00 0.  1.
          1   -1    0    0  501    0  0.00000000000E+00 -0.00000000000E+00 -0.72728936889E+02  0.72728936889E+02  0.00000000000E+00 0. -1.
         25    2    1    2    0    0  0.33162797716E+02 -0.23759674360E+02  0.67728872301E+02  0.14798490839E+03  0.12509212481E+03 0.  0.
          5    1    3    3  502    0  0.46782265173E+02  0.25624749491E+01  0.95942500455E+02  0.10685308796E+03  0.41800000000E+01 0. -1.
         -5    1    3    3    0  502 -0.13619467457E+02 -0.26322149309E+02 -0.28213628155E+02  0.41131820428E+02  0.41800000000E+01 0. -1.
        -11    1    1    2    0    0  0.11399255538E+02  0.82695625831E+00 -0.20810885946E+02  0.23742785374E+02  0.00000000000E+00 0. -1.
         11    1    1    2    0    0 -0.44562053254E+02  0.22932718102E+02  0.50496962719E+02  0.71145129093E+02  0.00000000000E+00 0.  1.
</event>
<event>
 7    1  0.2530765E-009  0.1735336E+03  0.7561462E-02  0.1174212E+00
         -2   -1    0    0    0  501 -0.00000000000E+00  0.00000000000E+00  0.37931534375E+02  0.37931534375E+02  0.00000000000E+00 0. -1.
          2   -1    0    0  501    0  0.00000000000E+00 -0.00000000000E+00 -0.12447270791E+04  0.12447270791E+04  0.00000000000E+00 0.  1.
         25    2    1    2    0    0  0.52232567690E+02  0.14018167374E+03 -0.93037137664E+03  0.95058786936E+03  0.12508899282E+03 0.  0.
          5    1    3    3  502    0  0.10320338684E+02  0.13150150914E+03 -0.46892811704E+03  0.48714495548E+03  0.41800000000E+01 0. -1.
         -5    1    3    3    0  502  0.41912229006E+02  0.86801645974E+01 -0.46144325960E+03  0.46344291389E+03  0.41800000000E+01 0. -1.
        -11    1    1    2    0    0 -0.56026822876E+02 -0.33371865200E+02 -0.16621221728E+03  0.17854743751E+03  0.00000000000E+00 0.  1.
         11    1    1    2    0    0  0.37942551859E+01 -0.10680980854E+03 -0.11021195082E+03  0.15352330662E+03  0.00000000000E+00 0. -1.
</event>
<event>
 7    1  0.2530765E-009  0.1012988E+03  0.7561462E-02  0.1277588E+00
          1   -1    0    0  501    0  0.00000000000E+00  0.00000000000E+00  0.37691846211E+03  0.37691846211E+03  0.00000000000E+00 0. -1.
         -1   -1    0    0    0  501 -0.00000000000E+00 -0.00000000000E+00 -0.38960285905E+02  0.38960285905E+02  0.00000000000E+00 0.  1.
         25    2    1    2    0    0  0.14438071528E+01  0.53263645171E+02  0.16310498205E+03  0.21234553068E+03  0.12509312034E+03 0.  0.
          5    1    3    3  502    0  0.47389325793E+02  0.55587817154E+02  0.14559370103E+03  0.16294401430E+03  0.41800000000E+01 0.  1.
         -5    1    3    3    0  502 -0.45945518640E+02 -0.23241719836E+01  0.17511281020E+02  0.49401516389E+02  0.41800000000E+01 0.  1.
        -11    1    1    2    0    0 -0.28721837053E+02 -0.47266158842E+02  0.46746599135E+02  0.72417388976E+02  0.00000000000E+00 0. -1.
         11    1    1    2    0    0  0.27278029901E+02 -0.59974863287E+01  0.12810659502E+03  0.13111582835E+03  0.00000000000E+00 0.  1.
</event>
<event>
 7    1  0.2530765E-009  0.1070569E+03  0.7561462E-02  0.1266119E+00
         -3   -1    0    0    0  501 -0.00000000000E+00  0.00000000000E+00  0.41659099969E+03  0.41659099969E+03  0.00000000000E+00 0.  1.
          3   -1    0    0  501    0  0.00000000000E+00 -0.00000000000E+00 -0.41156294968E+02  0.41156294968E+02  0.00000000000E+00 0. -1.
         25    2    1    2    0    0  0.12347818819E+02 -0.59971091519E+02  0.13714684108E+03  0.19546184343E+03  0.12508827191E+03 0.  0.
          5    1    3    3  502    0 -0.15930339553E+02 -0.74912244441E+02  0.28005545387E+02  0.81654167425E+02  0.41800000000E+01 0. -1.
         -5    1    3    3    0  502  0.28278158372E+02  0.14941152922E+02  0.10914129569E+03  0.11380767600E+03  0.41800000000E+01 0. -1.
        -11    1    1    2    0    0  0.74421560460E+00 -0.22068079079E+02  0.24814078955E+02  0.33215846903E+02  0.00000000000E+00 0. -1.
         11    1    1    2    0    0 -0.13092034424E+02  0.82039170598E+02  0.21347378468E+03  0.22906960432E+03  0.00000000000E+00 0.  1.
</event>
<event>
 7    1  0.2530765E-009  0.1523871E+03  0.7561462E-02  0.1197570E+00
          1   -1    0    0  501    0  0.00000000000E+00  0.00000000000E+00  0.92222529956E+03  0.92222529956E+03  0.00000000000E+00 0. -1.
         -1   -1    0    0    0  501 -0.00000000000E+00 -0.00000000000E+00 -0.40091041739E+02  0.40091041739E+02  0.00000000000E+00 0.  1.
         25    2    1    2    0    0 -0.14448430047E+03 -0.30988614353E+02  0.62557011638E+03  0.65484435881E+03  0.12508859439E+03 0.  0.
          5    1    3    3  502    0 -0.90990089962E+02 -0.43959216441E+02  0.18510509972E+03  0.21093359032E+03  0.41800000000E+01 0. -1.
         -5    1    3    3    0  502 -0.53494210508E+02  0.12970602088E+02  0.44046501666E+03  0.44391076849E+03  0.41800000000E+01 0. -1.
        -11    1    1    2    0    0  0.10668151306E+03  0.16507578542E+02  0.10499557623E+03  0.15059055882E+03  0.00000000000E+00 0. -1.
         11    1    1    2    0    0  0.37802787408E+02  0.14481035811E+02  0.15156856521E+03  0.15688142367E+03  0.00000000000E+00 0.  1.
</event>
<event>
 7    1  0.2530765E-009  0.1161511E+03  0.7561462E-02  0.1249585E+00
         -4   -1    0    0    0  501 -0.00000000000E+00  0.00000000000E+00  0.10788655635E+04  0.10788655635E+04  0.00000000000E+00 0.  1.
          4   -1    0    0  501    0  0.00000000000E+00 -0.00000000000E+00 -0.16517039161E+02  0.16517039161E+02  0.00000000000E+00 0. -1.
         25    2    1    2    0    0  0.35639535212E+01  0.69088837817E+02  0.73885756048E+03  0.75255899701E+03  0.12509428455E+03 0.  0.
          5    1    3    3  502    0 -0.50799678569E+02  0.71854642024E+02  0.43389875740E+03  0.44275196329E+03  0.41800000000E+01 0.  1.
         -5    1    3    3    0  502  0.54363632090E+02 -0.27658042065E+01  0.30495880308E+03  0.30980703372E+03  0.41800000000E+01 0.  1.
        -11    1    1    2    0    0  0.26638096996E+02 -0.36389086155E+02  0.26759645231E+03  0.27136988612E+03  0.00000000000E+00 0.  1.
         11    1    1    2    0    0 -0.30202050518E+02 -0.32699751662E+02  0.55894511562E+02  0.71453719546E+02  0.00000000000E+00 0. -1.
</event>
<event>
 7    1  0.2530765E-009  0.1171168E+03  0.7561462E-02  0.1247931E+00
          3   -1    0    0  501    0  0.00000000000E+00  0.00000000000E+00  0.45315806551E+03  0.45315806551E+03  0.00000000000E+00 0. -1.
         -3   -1    0    0    0  501 -0.00000000000E+00 -0.00000000000E+00 -0.63694242425E+02  0.63694242425E+02  0.00000000000E+00 0.  1.
         25    2    1    2    0    0 -0.73824341488E+02 -0.55256663573E+02  0.34659868472E+03  0.37984699698E+03  0.12509900318E+03 0.  0.
          5    1    3    3  502    0 -0.42376153329E+02 -0.15927611213E+01  0.19501235291E+02  0.46861987120E+02  0.41800000000E+01 0. -1.
         -5    1    3    3    0  502 -0.31448188159E+02 -0.53663902452E+02  0.32709744943E+03  0.33298500986E+03  0.41800000000E+01 0. -1.
        -11    1    1    2    0    0  0.47500490379E+02 -0.18494359392E+02  0.24579847166E+02  0.56590695369E+02  0.00000000000E+00 0.  1.
         11    1    1    2    0    0  0.26323851109E+02  0.73751022966E+02  0.18285291191E+02  0.80414615585E+02  0.00000000000E+00 0. -1.
</event>
<event>
 7    1  0.2530765E-009  0.1436171E+03  0.7561462E-02  0.1208543E+00
          2   -1    0    0  501    0  0.00000000000E+00  0.00000000000E+00  0.83519823851E+03  0.83519823851E+03  0.00000000000E+00 0.  1.
         -2   -1    0    0    0  501 -0.00000000000E+00 -0.00000000000E+00 -0.53964991270E+02  0.53964991270E+02  0.00000000000E+00 0. -1.
         25    2    1    2    0    0  0.10950253609E+03 -0.86520960894E+02  0.65222587810E+03  0.67861841714E+03  0.12509067886E+03 0.  0.
          5    1    3    3  502    0  0.87783649961E+02 -0.43304785849E+02  0.59743154353E+03  0.60541159163E+03  0.41800000000E+01 0. -1.
         -5    1    3    3    0  502  0.21718886130E+02 -0.43216175046E+02  0.54794334570E+02  0.73206825510E+02  0.41800000000E+01 0. -1.
        -11    1    1    2    0    0 -0.45488791052E+02  0.24887145254E+02 -0.24054068968E+01  0.51907476269E+02  0.00000000000E+00 0. -1.
         11    1    1    2    0    0 -0.64013745039E+02  0.61633815640E+02  0.13141277604E+03  0.15863733637E+03  0.00000000000E+00 0.  1.
</event>
<event>
 7    1  0.2997092E-009  0.1031867E+03  0.7561462E-02  0.1273734E+00
         -2   -1    0    0    0  501 -0.00000000000E+00  0.00000000000E+00  0.21893006381E+02  0.21893006381E+02  0.00000000000E+00 0.  1.
          2   -1    0    0  501    0  0.00000000000E+00 -0.00000000000E+00 -0.69266723979E+03  0.69266723979E+03  0.00000000000E+00 0. -1.
         25    2    1    2    0    0  0.49964647030E+02 -0.47720540611E+01 -0.45988371432E+03  0.47922852448E+03  0.12509080511E+03 0.  0.
          5    1    3    3  502    0  0.75237417912E+02  0.78273817519E+01 -0.43441576846E+03  0.44097218648E+03  0.41800000000E+01 0.  1.
         -5    1    3    3    0  502 -0.25272770882E+02 -0.12599435813E+02 -0.25467945857E+02  0.38256337998E+02  0.41800000000E+01 0.  1.
        -11    1    1    2    0    0 -0.37736140429E+02  0.45749331826E+02 -0.97181873232E+02  0.11384785524E+03  0.00000000000E+00 0.  1.
         11    1    1    2    0    0 -0.12228506601E+02 -0.40977277765E+02 -0.11370864586E+03  0.12148386646E+03  0.00000000000E+00 0. -1.
</event>
<event>
 7    1  0.2530765E-009  0.1153028E+03  0.7561462E-02  0.1251054E+00
         -1   -1    0    0    0  501 -0.00000000000E+00  0.00000000000E+00  0.86050758847E+02  0.86050758847E+02  0.00000000000E+00 0.  1.
          1   -1    0    0  501    0  0.00000000000E+00 -0.00000000000E+00 -0.21187650219E+03  0.21187650219E+03  0.00000000000E+00 0. -1.
         25    2    1    2    0    0 -0.60569880380E+02  0.37949542653E+02 -0.31185817577E+02  0.14740672675E+03  0.12508920687E+03 0.  0.
          5    1    3    3  502    0 -0.91516818589E+02  0.47535310022E+02 -0.44156767365E+02  0.11225963784E+03  0.41800000000E+01 0.  1.
         -5    1    3    3    0  502  0.30946938208E+02 -0.95857673689E+01  0.12970949788E+02  0.35147088911E+02  0.41800000000E+01 0.  1.
        -11    1    1    2    0    0 -0.97570919889E+01 -0.19837401927E+02 -0.70666908228E+02  0.74044144116E+02  0.00000000000E+00 0. -1.
         11    1    1    2    0    0  0.70326972369E+02 -0.18112140726E+02 -0.23973017542E+02  0.76476390176E+02  0.00000000000E+00 0.  1.
</event>
<event>
 7    1  0.2530765E-009  0.2133240E+03  0.7561462E-02  0.1138960E+00
         -1   -1    0    0    0  501 -0.00000000000E+00  0.00000000000E+00  0.70810883193E+03  0.70810883193E+03  0.00000000000E+00 0.  1.
          1   -1    0    0  501    0  0.00000000000E+00 -0.00000000000E+00 -0.75070984843E+02  0.75070984843E+02  0.00000000000E+00 0. -1.
         25    2    1    2    0    0  0.15370791460E+03  0.12807262756E+03  0.26845699560E+03  0.35741491770E+03  0.12509014338E+03 0.  0.
          5    1    3    3  502    0  0.68060434024E+02  0.12071835708E+03  0.21586215716E+03  0.25655230989E+03  0.41800000000E+01 0.  1.
         -5    1    3    3    0  502  0.85647480581E+02  0.73542704734E+01  0.52594838433E+02  0.10086260781E+03  0.41800000000E+01 0.  1.
        -11    1    1    2    0    0 -0.68157067279E+02 -0.74616918269E+02  0.26669895930E+03  0.28520414654E+03  0.00000000000E+00 0. -1.
         11    1    1    2    0    0 -0.85550847326E+02 -0.53455709288E+02  0.97881892194E+02  0.14056075253E+03  0.00000000000E+00 0.  1.
</event>
<event>
 7    1  0.2530765E-009  0.1210309E+03  0.7561462E-02  0.1241406E+00
         -2   -1    0    0    0  501 -0.00000000000E+00  0.00000000000E+00  0.74922333182E+02  0.74922333182E+02  0.00000000000E+00 0. -1.
          2   -1    0    0  501    0  0.00000000000E+00 -0.00000000000E+00 -0.26914859201E+03  0.26914859201E+03  0.00000000000E+00 0.  1.
         25    2    1    2    0    0 -0.43671471028E+02 -0.79672948363E+02 -0.11967693497E+03  0.19551700834E+03  0.12509738488E+03 0.  0.
          5    1    3    3  502    0 -0.70818982434E+02 -0.93113668003E+02 -0.11585805236E+03  0.16469986077E+03  0.41800000000E+01 0.  1.
         -5    1    3    3    0  502  0.27147511407E+02  0.13440719640E+02 -0.38188826169E+01  0.30817147572E+02  0.41800000000E+01 0.  1.
        -11    1    1    2    0    0  0.20931013508E+02  0.62542235670E+02 -0.93451110689E+02  0.11437984376E+03  0.00000000000E+00 0.  1.
         11    1    1    2    0    0  0.22740457520E+02  0.17130712693E+02  0.18901786839E+02  0.34174073086E+02  0.00000000000E+00 0. -1.
</event>
<event>
 7    1  0.2530765E-009  0.1291655E+03  0.7561462E-02  0.1228699E+00
          2   -1    0    0  501    0  0.00000000000E+00  0.00000000000E+00  0.28266281841E+03  0.28266281841E+03  0.00000000000E+00 0. -1.
         -2   -1    0    0    0  501 -0.00000000000E+00 -0.00000000000E+00 -0.78651377018E+02  0.78651377018E+02  0.00000000000E+00 0.  1.
         25    2    1    2    0    0  0.50619675395E+02 -0.71315320513E+02  0.44718261912E+02  0.15904391875E+03  0.12508804366E+03 0.  0.
          5    1    3    3  502    0 -0.16581771137E+02 -0.82419243102E+02  0.28861454659E+02  0.88985070279E+02  0.41800000000E+01 0.  1.
         -5    1    3    3    0  502  0.67201446532E+02  0.11103922590E+02  0.15856807253E+02  0.70058848471E+02  0.41800000000E+01 0.  1.
        -11    1    1    2    0    0 -0.61185369565E+02  0.40590691315E+02  0.15224210372E+03  0.16902340611E+03  0.00000000000E+00 0. -1.
         11    1    1    2    0    0  0.10565694170E+02  0.30724629198E+02  0.70510757598E+01  0.33246870559E+02  0.00000000000E+00 0.  1.
</event>
<event>
 7    1  0.2530765E-009  0.1379251E+03  0.7561462E-02  0.1216148E+00
         -2   -1    0    0    0  501 -0.00000000000E+00  0.00000000000E+00  0.28843857948E+02  0.28843857948E+02  0.00000000000E+00 0.  1.
          2   -1    0    0  501    0  0.00000000000E+00 -0.00000000000E+00 -0.97286421097E+03  0.97286421097E+03  0.00000000000E+00 0. -1.
         25    2    1    2    0    0  0.82998838836E+02  0.86711197420E+02 -0.62421094811E+03  0.64783799415E+03  0.12508844838E+03 0.  0.
          5    1    3    3  502    0  0.18194086466E+02 -0.14119332246E+02 -0.17082301505E+02  0.28976848519E+02  0.41800000000E+01 0.  1.
         -5    1    3    3    0  502  0.64804752370E+02  0.10083052967E+03 -0.60712864661E+03  0.61886114564E+03  0.41800000000E+01 0.  1.
        -11    1    1    2    0    0 -0.26872866444E+02  0.26316241737E+01 -0.14091100502E+02  0.30457109352E+02  0.00000000000E+00 0.  1.
         11    1    1    2    0    0 -0.56125972392E+02 -0.89342821594E+02 -0.30571830440E+03  0.32341296541E+03  0.00000000000E+00 0. -1.
</event>
<event>
 7    1  0.2530765E-009  0.1642780E+03  0.7561462E-02  0.1183950E+00
          1   -1    0    0  501    0  0.00000000000E+00  0.00000000000E+00  0.15037736696E+04  0.15037736696E+04  0.00000000000E+00 0. -1.
         -1   -1    0    0    0  501 -0.00000000000E+00 -0.00000000000E+00 -0.26472906939E+02  0.26472906939E+02  0.00000000000E+00 0.  1.
         25    2    1    2    0    0  0.33701564343E+02 -0.13421709642E+03  0.11203111807E+04  0.11357349584E+04  0.12508688871E+03 0.  0.
          5    1    3    3  502    0 -0.21523031000E+02 -0.94523599291E+02  0.89770515439E+03  0.90293408857E+03  0.41800000000E+01 0. -1.
         -5    1    3    3    0  502  0.55224595343E+02 -0.39693497132E+02  0.22260602632E+03  0.23280086985E+03  0.41800000000E+01 0. -1.
        -11    1    1    2    0    0 -0.63140999043E+02  0.82686791616E+02  0.26861818385E+03  0.28806183357E+03  0.00000000000E+00 0. -1.
         11    1    1    2    0    0  0.29439434700E+02  0.51530304807E+02  0.88371398113E+02  0.10644978456E+03  0.00000000000E+00 0.  1.
</event>
<event>
 7    1  0.2530765E-009  0.1154247E+03  0.7561462E-02  0.1250842E+00
         -2   -1    0    0    0  501 -0.00000000000E+00  0.00000000000E+00  0.41333195361E+02  0.41333195361E+02  0.00000000000E+00 0.  1.
          2   -1    0    0  501    0  0.00000000000E+00 -0.00000000000E+00 -0.65605636008E+03  0.65605636008E+03  0.00000000000E+00 0. -1.
         25    2    1    2    0    0 -0.38780186087E+02  0.95114013687E+02 -0.47406227953E+03  0.50093186155E+03  0.12508839519E+03 0.  0.
          5    1    3    3  502    0 -0.14487576498E+02  0.79503261020E+02 -0.11461460360E+03  0.14030195346E+03  0.41800000000E+01 0.  1.
         -5    1    3    3    0  502 -0.24292609588E+02  0.15610752668E+02 -0.35944767593E+03  0.36062990809E+03  0.41800000000E+01 0.  1.
        -11    1    1    2    0    0  0.56461866542E+02 -0.68046792566E+02 -0.53151239104E+02  0.10316667374E+03  0.00000000000E+00 0.  1.
         11    1    1    2    0    0 -0.17681680456E+02 -0.27067221121E+02 -0.87509646082E+02  0.93291020149E+02  0.00000000000E+00 0. -1.
</event>
<event>
 7    1  0.2530765E-009  0.1546023E+03  0.7561462E-02  0.1194929E+00
          1   -1    0    0  501    0  0.00000000000E+00  0.00000000000E+00  0.41100990487E+02  0.41100990487E+02  0.00000000000E+00 0. -1.
         -1   -1    0    0    0  501 -0.00000000000E+00 -0.00000000000E+00 -0.70323007380E+03  0.70323007380E+03  0.00000000000E+00 0.  1.
         25    2    1    2    0    0  0.11813307174E+03  0.36475263699E+02 -0.43310767333E+03  0.46745537134E+03  0.12508557069E+03 0.  0.
          5    1    3    3  502    0 -0.86619115407E+01  0.45662411479E+02 -0.14989778112E+03  0.15699331743E+03  0.41800000000E+01 0.  1.
         -5    1    3    3    0  502  0.12679498328E+03 -0.91871477806E+01 -0.28320989222E+03  0.31046205391E+03  0.41800000000E+01 0.  1.
        -11    1    1    2    0    0 -0.55487574333E+02  0.11217461417E+02 -0.16794531580E+03  0.17722960093E+03  0.00000000000E+00 0.  1.
         11    1    1    2    0    0 -0.62645497406E+02 -0.47692725116E+02 -0.61076094179E+02  0.99646092018E+02  0.00000000000E+00 0. -1.
</event>
<event>
 7    1  0.2530765E-009  0.1373390E+03  0.7561462E-02  0.1216955E+00
          2   -1    0    0  501    0  0.00000000000E+00  0.00000000000E+00  0.36104243888E+03  0.36104243888E+03  0.00000000000E+00 0. -1.
         -2   -1    0    0    0  501 -0.00000000000E+00 -0.00000000000E+00 -0.71470673822E+02  0.71470673822E+02  0.00000000000E+00 0.  1.
         25    2    1    2    0    0  0.10391229024E+03 -0.39485520657E+02  0.20221167184E+03  0.26248080503E+03  0.12509893036E+03 0.  0.
          5    1    3    3  502    0  0.11012935222E+03 -0.63760924057E+02  0.19985432116E+03  0.23696656250E+03  0.41800000000E+01 0.  1.
         -5    1    3    3    0  502 -0.62170619785E+01  0.24275403400E+02  0.23573506823E+01  0.25514242534E+02  0.41800000000E+01 0.  1.
        -11    1    1    2    0    0 -0.32136612835E+02  0.38521892890E+02 -0.78682555440E+01  0.50779991745E+02  0.00000000000E+00 0.  1.
         11    1    1    2    0    0 -0.71775677406E+02  0.96362776760E+00  0.95228348766E+02  0.11925231593E+03  0.00000000000E+00 0. -1.
</event>
<event>
 7    1  0.2530765E-009  0.1591192E+03  0.7561462E-02  0.1189695E+00
          2   -1    0    0  501    0  0.00000000000E+00  0.00000000000E+00  0.63272322297E+03  0.63272322297E+03  0.00000000000E+00 0.  1.
         -2   -1    0    0    0  501 -0.00000000000E+00 -0.00000000000E+00 -0.62109918315E+02  0.62109918315E+02  0.00000000000E+00 0. -1.
         25    2    1    2    0    0 -0.82117362393E+02 -0.83523034050E+02  0.50168852910E+03  0.53014890066E+03  0.12508844159E+03 0.  0.
          5    1    3    3  502    0 -0.54343675903E+01  0.30486465380E+02  0.13426175524E+03  0.13785009337E+03  0.41800000000E+01 0. -1.
         -5    1    3    3    0  502 -0.76682994802E+02 -0.11400949943E+03  0.36742677386E+03  0.39229880729E+03  0.41800000000E+01 0. -1.
        -11    1    1    2    0    0  0.20310220037E+02  0.85310669411E+02  0.38568942543E+02  0.95801767637E+02  0.00000000000E+00 0.  1.
         11    1    1    2    0    0  0.61807142355E+02 -0.17876353617E+01  0.30355833005E+02  0.68882472979E+02  0.00000000000E+00 0. -1.
</event>
<event>
 7    1  0.2530765E-009  0.1328246E+03  0.7561462E-02  0.1223324E+00
          1   -1    0    0  501    0  0.00000000000E+00  0.00000000000E+00  0.73832542473E+03  0.73832542473E+03  0.00000000000E+00 0. -1.
         -1   -1    0    0    0  501 -0.00000000000E+00 -0.00000000000E+00 -0.53021284273E+02  0.53021284273E+02  0.00000000000E+00 0.  1.
         25    2    1    2    0    0 -0.11289130391E+03 -0.55925611097E+02  0.57424944368E+03  0.60106852771E+03  0.12509528750E+03 0.  0.
          5    1    3    3  502    0 -0.11150081325E+03 -0.45091343157E+02  0.57669649574E+03  0.58911966626E+03  0.41800000000E+01 0. -1.
         -5    1    3    3    0  502 -0.13904906591E+01 -0.10834267940E+02 -0.24470520527E+01  0.11948861445E+02  0.41800000000E+01 0. -1.
        -11    1    1    2    0    0  0.29059398754E+02  0.38073347957E+02  0.90104320260E+02  0.10204321149E+03  0.00000000000E+00 0. -1.
         11    1    1    2    0    0  0.83831905156E+02  0.17852263140E+02  0.20950376514E+02  0.88234969811E+02  0.00000000000E+00 0.  1.
</event>
<event>
 7    1  0.2530765E-009  0.1037726E+03  0.7561462E-02  0.1272557E+00
         -2   -1    0    0    0  501 -0.00000000000E+00  0.00000000000E+00  0.60074767308E+02  0.60074767308E+02  0.00000000000E+00 0.  1.
          2   -1    0    0  501    0  0.00000000000E+00 -0.00000000000E+00 -0.20698868656E+03  0.20698868656E+03  0.00000000000E+00 0. -1.
         25    2    1    2    0    0 -0.15196052850E+02 -0.10175874011E+02 -0.11054439251E+03  0.16793366587E+03  0.12508870846E+03 0.  0.
          5    1    3    3  502    0  0.25700758452E+02 -0.55919848166E+02 -0.74213176972E+02  0.96501950447E+02  0.41800000000E+01 0. -1.
         -5    1    3    3    0  502 -0.40896811302E+02  0.45743974155E+02 -0.36331215535E+02  0.71431715424E+02  0.41800000000E+01 0. -1.
        -11    1    1    2    0    0  0.37086163190E+02 -0.23709326849E+02 -0.38854115549E+02  0.58712502714E+02  0.00000000000E+00 0. -1.
         11    1    1    2    0    0 -0.21890110340E+02  0.33885200860E+02  0.24845888051E+01  0.40417285282E+02  0.00000000000E+00 0.  1.
</event>
<event>
 7    1  0.2530765E-009  0.1234067E+03  0.7561462E-02  0.1237581E+00
         -2   -1    0    0    0  501 -0.00000000000E+00  0.00000000000E+00  0.70788615114E+02  0.70788615114E+02  0.00000000000E+00 0.  1.
          2   -1    0    0  501    0  0.00000000000E+00 -0.00000000000E+00 -0.21748704342E+03  0.21748704342E+03  0.00000000000E+00 0. -1.
         25    2    1    2    0    0 -0.74596306324E+02 -0.26752288749E+02 -0.89474967920E+02  0.17301110840E+03  0.12508708916E+03 0.  0.
          5    1    3    3  502    0 -0.47163460578E+02 -0.77156135553E+02 -0.55879352415E+02  0.10638343712E+03  0.41800000000E+01 0. -1.
         -5    1    3    3    0  502 -0.27432845746E+02  0.50403846804E+02 -0.33595615505E+02  0.66627671275E+02  0.41800000000E+01 0. -1.
        -11    1    1    2    0    0  0.73289279992E+02  0.13375652060E+01 -0.50271330785E+02  0.88883712464E+02  0.00000000000E+00 0. -1.
         11    1    1    2    0    0  0.13070263318E+01  0.25414723543E+02 -0.69521296048E+01  0.26380837679E+02  0.00000000000E+00 0.  1.
</event>
<event>
 7    1  0.2530765E-009  0.1464232E+03  0.7561462E-02  0.1204938E+00
         -2   -1    0    0    0  501 -0.00000000000E+00  0.00000000000E+00  0.37276810396E+02  0.37276810396E+02  0.00000000000E+00 0.  1.
          2   -1    0    0  501    0  0.00000000000E+00 -0.00000000000E+00 -0.73192481954E+03  0.73192481954E+03  0.00000000000E+00 0. -1.
         25    2    1    2    0    0 -0.11853085107E+03 -0.28765216409E+00 -0.46484123311E+03  0.49575580771E+03  0.12508718352E+03 0.  0.
          5    1    3    3  502    0 -0.77609821945E+02 -0.49737404247E+02 -0.36877672971E+03  0.38014581757E+03  0.41800000000E+01 0. -1.
         -5    1    3    3    0  502 -0.40921029127E+02  0.49449752083E+02 -0.96064503398E+02  0.11560999013E+03  0.41800000000E+01 0. -1.
        -11    1    1    2    0    0  0.26465013158E+02  0.29528429415E+02 -0.12395492714E+03  0.13014280245E+03  0.00000000000E+00 0. -1.
         11    1    1    2    0    0  0.92065837914E+02 -0.29240777251E+02 -0.10585184890E+03  0.14330301979E+03  0.00000000000E+00 0.  1.
</event>
<event>
 7    1  0.2530765E-009  0.1479942E+03  0.7561462E-02  0.1202960E+00
         -1   -1    0    0    0  501 -0.00000000000E+00  0.00000000000E+00  0.13422376703E+03  0.13422376703E+03  0.00000000000E+00 0.  1.
          1   -1    0    0  501    0  0.00000000000E+00 -0.00000000000E+00 -0.24923575905E+03  0.24923575905E+03  0.00000000000E+00 0. -1.
         25    2    1    2    0    0  0.92724887677E+02 -0.10496562476E+03 -0.10460917538E+03  0.21495360971E+03  0.12508512133E+03 0.  0.
          5    1    3    3  502    0  0.80340214947E+02 -0.68962312263E+02 -0.26031072134E+01  0.10599339233E+03  0.41800000000E+01 0.  1.
         -5    1    3    3    0  502  0.12384672730E+02 -0.36003312495E+02 -0.10200606817E+03  0.10896021738E+03  0.41800000000E+01 0.  1.
        -11    1    1    2    0    0 -0.46655575315E+02  0.93123806696E+02 -0.41012644622E+02  0.11194115910E+03  0.00000000000E+00 0. -1.
         11    1    1    2    0    0 -0.46069312362E+02  0.11841818063E+02  0.30609827981E+02  0.56564757275E+02  0.00000000000E+00 0.  1.
</event>
<event>
 7    1  0.2530765E-009  0.1274564E+03  0.7561462E-02  0.1231279E+00
          3   -1    0    0  501    0  0.00000000000E+00  0.00000000000E+00  0.68118183156E+02  0.68118183156E+02  0.00000000000E+00 0. -1.
         -3   -1    0    0    0  501 -0.00000000000E+00 -0.00000000000E+00 -0.36442027206E+03  0.36442027206E+03  0.00000000000E+00 0.  1.
         25    2    1    2    0    0  0.62451747738E+02 -0.30277383411E+02 -0.28147827830E+03  0.31574232846E+03  0.12508499544E+03 0.  0.
          5    1    3    3  502    0  0.60325927315E+02  0.37782230193E+02 -0.10887372825E+03  0.13014482521E+03  0.41800000000E+01 0. -1.
         -5    1    3    3    0  502  0.21258204225E+01 -0.68059613604E+02 -0.17260455005E+03  0.18559750325E+03  0.41800000000E+01 0. -1.
        -11    1    1    2    0    0 -0.51303097502E+02  0.62751386628E+02 -0.56151113001E+01  0.81248223439E+02  0.00000000000E+00 0.  1.
         11    1    1    2    0    0 -0.11148650236E+02 -0.32474003218E+02 -0.92086992974E+01  0.35547903311E+02  0.00000000000E+00 0. -1.
</event>
<event>
 7    1  0.2530765E-009  0.1296676E+03  0.7561462E-02  0.1227950E+00
         -2   -1    0    0    0  501 -0.00000000000E+00  0.00000000000E+00  0.25565649048E+02  0.25565649048E+02  0.00000000000E+00 0.  1.
          2   -1    0    0  501    0  0.00000000000E+00 -0.00000000000E+00 -0.82965490942E+03  0.82965490942E+03  0.00000000000E+00 0. -1.
         25    2    1    2    0    0  0.31863344457E+02 -0.71420749466E+02 -0.59886577489E+03  0.61676678862E+03  0.12507941088E+03 0.  0.
          5    1    3    3  502    0 -0.44044574649E+02 -0.12992917322E+02 -0.28088618284E+03  0.28464585113E+03  0.41800000000E+01 0.  1.
         -5    1    3    3    0  502  0.75907919105E+02 -0.58427832145E+02 -0.31797959205E+03  0.33212093748E+03  0.41800000000E+01 0.  1.
        -11    1    1    2    0    0 -0.13353881979E+02 -0.20010264461E+02 -0.20895405484E+02  0.31864632714E+02  0.00000000000E+00 0.  1.
         11    1    1    2    0    0 -0.18509462478E+02  0.91431013927E+02 -0.18432808000E+03  0.20658913714E+03  0.00000000000E+00 0. -1.
</event>
<event>
 7    1  0.2530765E-009  0.1360527E+03  0.7561462E-02  0.1218741E+00
         -1   -1    0    0    0  501 -0.00000000000E+00  0.00000000000E+00  0.33762626352E+03  0.33762626352E+03  0.00000000000E+00 0.  1.
          1   -1    0    0  501    0  0.00000000000E+00 -0.00000000000E+00 -0.66250495776E+02  0.66250495776E+02  0.00000000000E+00 0. -1.
         25    2    1    2    0    0 -0.14743276164E+02 -0.10068913741E+03  0.17585335811E+03  0.23859106879E+03  0.12508248463E+03 0.  0.
          5    1    3    3  502    0  0.27327439062E+02  0.26330353076E+01 -0.28152676533E+01  0.27912719907E+02  0.41800000000E+01 0. -1.
         -5    1    3    3    0  502 -0.42070715226E+02 -0.10332217272E+03  0.17866862577E+03  0.21067834888E+03  0.41800000000E+01 0. -1.
        -11    1    1    2    0    0  0.30981994164E+02  0.10979336220E+03  0.91493682830E+02  0.14623802632E+03  0.00000000000E+00 0.  1.
         11    1    1    2    0    0 -0.16238718000E+02 -0.91042247897E+01  0.40287268024E+01  0.19047664186E+02  0.00000000000E+00 0. -1.
</event>
<event>
 7    1  0.2530765E-009  0.9931835E+02  0.7561462E-02  0.1281736E+00
          2   -1    0    0  501    0  0.00000000000E+00  0.00000000000E+00  0.12326313382E+04  0.12326313382E+04  0.00000000000E+00 0. -1.
         -2   -1    0    0    0  501 -0.00000000000E+00 -0.00000000000E+00 -0.12911352170E+02  0.12911352170E+02  0.00000000000E+00 0.  1.
         25    2    1    2    0    0  0.93959190872E+01 -0.19061147592E+02  0.98802079587E+03  0.99613460802E+03  0.12508978213E+03 0.  0.
          5    1    3    3  502    0 -0.50754900542E+02  0.14111556118E+00  0.66668833868E+03  0.66863061041E+03  0.41800000000E+01 0. -1.
         -5    1    3    3    0  502  0.60150819629E+02 -0.19202263153E+02  0.32133245719E+03  0.32750399761E+03  0.41800000000E+01 0. -1.
        -11    1    1    2    0    0 -0.26788007312E+02 -0.25259552607E+02  0.53409572180E+02  0.64870831150E+02  0.00000000000E+00 0.  1.
         11    1    1    2    0    0  0.17392088225E+02  0.44320700199E+02  0.17828961799E+03  0.18453725121E+03  0.00000000000E+00 0. -1.
</event>
<event>
 7    1  0.2530765E-009  0.1686152E+03  0.7561462E-02  0.1179300E+00
          1   -1    0    0  501    0  0.00000000000E+00  0.00000000000E+00  0.23907989934E+03  0.23907989934E+03  0.00000000000E+00 0. -1.
         -1   -1    0    0    0  501 -0.00000000000E+00 -0.00000000000E+00 -0.12412046273E+03  0.12412046273E+03  0.00000000000E+00 0.  1.
         25    2    1    2    0    0  0.63467867232E+02 -0.11445543892E+03  0.84416100460E+02  0.19975509474E+03  0.12509117550E+03 0.  0.
          5    1    3    3  502    0 -0.22516677863E+02 -0.87111434178E+02  0.33722513026E+02  0.96177351966E+02  0.41800000000E+01 0. -1.
         -5    1    3    3    0  502  0.85984545095E+02 -0.27344004740E+02  0.50693587434E+02  0.10357774277E+03  0.41800000000E+01 0. -1.
        -11    1    1    2    0    0 -0.83557317813E+02  0.73782468717E+02  0.54500328371E+01  0.11160367784E+03  0.00000000000E+00 0.  1.
         11    1    1    2    0    0  0.20089450582E+02  0.40672970201E+02  0.25093303316E+02  0.51841589491E+02  0.00000000000E+00 0. -1.
</event>
<event>
 7    1  0.2530765E-009  0.8616058E+02  0.7561462E-02  0.1312425E+00
          2   -1    0    0  501    0  0.00000000000E+00  0.00000000000E+00  0.52389197970E+02  0.52389197970E+02  0.00000000000E+00 0.  1.
         -2   -1    0    0    0  501 -0.00000000000E+00 -0.00000000000E+00 -0.28966716329E+03  0.28966716329E+03  0.00000000000E+00 0. -1.
         25    2    1    2    0    0  0.30674609847E+02 -0.47089230665E+02 -0.13966701505E+03  0.19573581307E+03  0.12508919254E+03 0.  0.
          5    1    3    3  502    0 -0.22557047846E+02 -0.33294259416E+02 -0.13438376402E+03  0.14033458786E+03  0.41800000000E+01 0. -1.
         -5    1    3    3    0  502  0.53231657693E+02 -0.13794971249E+02 -0.52832510214E+01  0.55401225202E+02  0.41800000000E+01 0. -1.
        -11    1    1    2    0    0 -0.32300289357E+02  0.28007927770E+01  0.65918379591E+01  0.33084822206E+02  0.00000000000E+00 0.  1.
         11    1    1    2    0    0  0.16256795098E+01  0.44288437888E+02 -0.10420278824E+03  0.11323572599E+03  0.00000000000E+00 0. -1.
</event>
<event>
 7    1  0.2530765E-009  0.2528626E+03  0.7561462E-02  0.1111509E+00
          2   -1    0    0  501    0  0.00000000000E+00  0.00000000000E+00  0.98451920946E+03  0.98451920946E+03  0.00000000000E+00 0. -1.
         -2   -1    0    0    0  501 -0.00000000000E+00 -0.00000000000E+00 -0.73097036812E+02  0.73097036812E+02  0.00000000000E+00 0.  1.
         25    2    1    2    0    0  0.10130958919E+03  0.21438996754E+03  0.58474433222E+03  0.64327306582E+03  0.12509041572E+03 0.  0.
          5    1    3    3  502    0  0.79776862602E+02  0.37145197443E+02  0.22506266146E+03  0.24169151306E+03  0.41800000000E+01 0. -1.
         -5    1    3    3    0  502  0.21532726588E+02  0.17724477010E+03  0.35968167075E+03  0.40158155276E+03  0.41800000000E+01 0. -1.
        -11    1    1    2    0    0 -0.59711619821E+02 -0.15837023021E+03  0.15691668134E+03  0.23080175961E+03  0.00000000000E+00 0.  1.
         11    1    1    2    0    0 -0.41597969369E+02 -0.56019737330E+02  0.16976115910E+03  0.18354142084E+03  0.00000000000E+00 0. -1.
</event>
<event>
 7    1  0.2530765E-009  0.5998937E+02  0.7561462E-02  0.1397876E+00
          1   -1    0    0  501    0  0.00000000000E+00  0.00000000000E+00  0.32727146982E+03  0.32727146982E+03  0.00000000000E+00 0. -1.
         -1   -1    0    0    0  501 -0.00000000000E+00 -0.00000000000E+00 -0.57098271234E+02  0.57098271234E+02  0.00000000000E+00 0.  1.
         25    2    1    2    0    0  0.54327781544E+01 -0.13801985859E+02  0.32795214168E+02  0.13016430569E+03  0.12508881050E+03 0.  0.
          5    1    3    3  502    0 -0.21680756577E+01 -0.21593131420E+02 -0.45723510770E+02  0.50784601148E+02  0.41800000000E+01 0. -1.
         -5    1    3    3    0  502  0.76008538120E+01  0.77911455611E+01  0.78518724938E+02  0.79379704546E+02  0.41800000000E+01 0. -1.
        -11    1    1    2    0    0 -0.55299218487E+01 -0.35997070934E+02  0.62111519085E+02  0.72001458002E+02  0.00000000000E+00 0.  1.
         11    1    1    2    0    0  0.97143694367E-01  0.49799056793E+02  0.17526646533E+03  0.18220397736E+03  0.00000000000E+00 0. -1.
</event>
<event>
 7    1  0.2953249E-009  0.1427948E+03  0.7561462E-02  0.1209617E+00
          1   -1    0    0  501    0  0.00000000000E+00  0.00000000000E+00  0.14520646908E+03  0.14520646908E+03  0.00000000000E+00 0. -1.
         -1   -1    0    0    0  501 -0.00000000000E+00 -0.00000000000E+00 -0.19004219887E+03  0.19004219887E+03  0.00000000000E+00 0.  1.
         25    2    1    2    0    0 -0.42402765783E+02 -0.99303595520E+02  0.40387955379E+02  0.17011089367E+03  0.12508929041E+03 0.  0.
          5    1    3    3  502    0  0.28199644746E+02  0.13221064043E+02  0.80056467512E+00  0.31434531999E+02  0.41800000000E+01 0.  1.
         -5    1    3    3    0  502 -0.70602410529E+02 -0.11252465956E+03  0.39587390704E+02  0.13867636167E+03  0.41800000000E+01 0.  1.
        -11    1    1    2    0    0 -0.88539818440E+01  0.47739673559E+02 -0.78261629146E+02  0.92099685247E+02  0.00000000000E+00 0.  1.
         11    1    1    2    0    0  0.51256747627E+02  0.51563921961E+02 -0.69620560270E+01  0.73038089032E+02  0.00000000000E+00 0. -1.
</event>
<event>
 7    1  0.2530765E-009  0.2047947E+03  0.7561462E-02  0.1145756E+00
         -1   -1    0    0    0  501 -0.00000000000E+00  0.00000000000E+00  0.42786714354E+03  0.42786714354E+03  0.00000000000E+00 0.  1.
          1   -1    0    0  501    0  0.00000000000E+00 -0.00000000000E+00 -0.10268288400E+03  0.10268288400E+03  0.00000000000E+00 0. -1.
         25    2    1    2    0    0 -0.54260679403E+02 -0.16615379304E+03  0.11927539480E+03  0.24581568230E+03  0.12508967020E+03 0.  0.
          5    1    3    3  502    0 -0.90524321588E+02 -0.85940572655E+02  0.53603334880E+02  0.13590888395E+03  0.41800000000E+01 0.  1.
         -5    1    3    3    0  502  0.36263642185E+02 -0.80213220386E+02  0.65672059923E+02  0.10990679835E+03  0.41800000000E+01 0.  1.
        -11    1    1    2    0    0  0.48727247153E+02  0.17743480507E+03  0.19478641974E+03  0.26795373477E+03  0.00000000000E+00 0.  1.
         11    1    1    2    0    0  0.55334322505E+01 -0.11281012029E+02  0.11122444992E+02  0.16780610462E+02  0.00000000000E+00 0. -1.
</event>
<event>
 7    1  0.2530765E-009  0.1591247E+03  0.7561462E-02  0.1189689E+00
          2   -1    0    0  501    0  0.00000000000E+00  0.00000000000E+00  0.71192143529E+03  0.71192143529E+03  0.00000000000E+00 0. -1.
         -2   -1    0    0    0  501 -0.00000000000E+00 -0.00000000000E+00 -0.44544301117E+02  0.44544301117E+02  0.00000000000E+00 0.  1.
         25    2    1    2    0    0  0.13563011254E+03  0.36426615133E+02  0.32995917449E+03  0.37979399163E+03  0.12509194031E+03 0.  0.
          5    1    3    3  502    0  0.91486182882E+01 -0.11992180474E+02 -0.65976542922E+01  0.16985613067E+02  0.41800000000E+01 0. -1.
         -5    1    3    3    0  502  0.12648149425E+03  0.48418795606E+02  0.33655682878E+03  0.36280837856E+03  0.41800000000E+01 0. -1.
        -11    1    1    2    0    0  0.95770553238E+01 -0.18446367973E+02  0.34716884581E+02  0.40462952872E+02  0.00000000000E+00 0. -1.
         11    1    1    2    0    0 -0.14520716786E+03 -0.17980247159E+02  0.30270107510E+03  0.33620879190E+03  0.00000000000E+00 0.  1.
</event>
<event>
 7    1  0.2530765E-009  0.1210225E+03  0.7561462E-02  0.1241420E+00
         -2   -1    0    0    0  501 -0.00000000000E+00  0.00000000000E+00  0.58276837051E+02  0.58276837051E+02  0.00000000000E+00 0.  1.
          2   -1    0    0  501    0  0.00000000000E+00 -0.00000000000E+00 -0.30502995063E+03  0.30502995063E+03  0.00000000000E+00 0. -1.
         25    2    1    2    0    0 -0.23267744200E+02  0.64414527556E+02 -0.87391528423E+02  0.16726445960E+03  0.12509796530E+03 0.  0.
          5    1    3    3  502    0 -0.64705931773E+02  0.14035981751E+02 -0.11890789573E+02  0.67399774978E+02  0.41800000000E+01 0. -1.
         -5    1    3    3    0  502  0.41438187574E+02  0.50378545805E+02 -0.75500738850E+02  0.99864684618E+02  0.41800000000E+01 0. -1.
        -11    1    1    2    0    0  0.30011702927E+02  0.12944941258E+02 -0.26183972843E+02  0.41879281878E+02  0.00000000000E+00 0.  1.
         11    1    1    2    0    0 -0.67439587274E+01 -0.77359468814E+02 -0.13317761231E+03  0.15416304620E+03  0.00000000000E+00 0. -1.
</event>
<event>
 7    1  0.2530765E-009  0.1172965E+03  0.7561462E-02  0.1247625E+00
          1   -1    0    0  501    0  0.00000000000E+00  0.00000000000E+00  0.32970087585E+03  0.32970087585E+03  0.00000000000E+00 0. -1.
         -1   -1    0    0    0  501 -0.00000000000E+00 -0.00000000000E+00 -0.62497400106E+02  0.62497400106E+02  0.00000000000E+00 0.  1.
         25    2    1    2    0    0  0.54215128736E+02 -0.64779166111E+02  0.20329910604E+03  0.25320862878E+03  0.12509381531E+03 0.  0.
          5    1    3    3  502    0 -0.17151765712E+02  0.27445221052E+02  0.61034910238E+02  0.69210952120E+02  0.41800000000E+01 0.  1.
         -5    1    3    3    0  502  0.71366894448E+02 -0.92224387163E+02  0.14226419580E+03  0.18399767666E+03  0.41800000000E+01 0.  1.
        -11    1    1    2    0    0 -0.33130881405E+02  0.48013533326E+02  0.86158057134E+02  0.10404886109E+03  0.00000000000E+00 0. -1.
         11    1    1    2    0    0 -0.21084247331E+02  0.16765632785E+02 -0.22253687425E+02  0.34940786085E+02  0.00000000000E+00 0.  1.
</event>
<event>
 7    1  0.2530765E-009  0.1186253E+03  0.7561462E-02  0.1245382E+00
         -1   -1    0    0    0  501 -0.00000000000E+00  0.00000000000E+00  0.31474755155E+03  0.31474755155E+03  0.00000000000E+00 0.  1.
          1   -1    0    0  501    0  0.00000000000E+00 -0.00000000000E+00 -0.52421919955E+02  0.52421919955E+02  0.00000000000E+00 0. -1.
         25    2    1    2    0    0  0.37718697326E+02  0.29227827974E+02  0.19754772207E+03  0.23864149975E+03  0.12509075446E+03 0.  0.
          5    1    3    3  502    0  0.58530361482E+02  0.65065188238E+02  0.16068272140E+03  0.18301828131E+03  0.41800000000E+01 0.  1.
         -5    1    3    3    0  502 -0.20811664156E+02 -0.35837360264E+02  0.36865000670E+02  0.55623218444E+02  0.41800000000E+01 0.  1.
        -11    1    1    2    0    0 -0.60449295074E+02  0.11316914573E+02  0.51423407452E+02  0.80165807327E+02  0.00000000000E+00 0. -1.
         11    1    1    2    0    0  0.22730597748E+02 -0.40544742547E+02  0.13354502069E+02  0.48362164424E+02  0.00000000000E+00 0.  1.
</event>
<event>
 7    1  0.2530765E-009  0.1002355E+03  0.7561462E-02  0.1279802E+00
          1   -1    0    0  501    0  0.00000000000E+00  0.00000000000E+00  0.77018516626E+03  0.77018516626E+03  0.00000000000E+00 0. -1.
         -1   -1    0    0    0  501 -0.00000000000E+00 -0.00000000000E+00 -0.20157024803E+02  0.20157024803E+02  0.00000000000E+00 0.  1.
         25    2    1    2    0    0  0.25124608757E+02  0.35565731798E+02  0.55488344585E+03  0.57047254614E+03  0.12508844944E+03 0.  0.
          5    1    3    3  502    0 -0.56016584746E+01  0.60607734469E+02  0.12868964746E+03  0.14241900792E+03  0.41800000000E+01 0.  1.
         -5    1    3    3    0  502  0.30726267231E+02 -0.25042002671E+02  0.42619379839E+03  0.42805353822E+03  0.41800000000E+01 0.  1.
        -11    1    1    2    0    0 -0.28913462736E+02 -0.64362386081E+02  0.15515435515E+03  0.17044465081E+03  0.00000000000E+00 0. -1.
         11    1    1    2    0    0  0.37888539792E+01  0.28796654282E+02  0.39990340467E+02  0.49424994112E+02  0.00000000000E+00 0.  1.
</event>
<event>
 7    1  0.2530765E-009  0.7543069E+02  0.7561462E-02  0.1342542E+00
         -1   -1    0    0    0  501 -0.00000000000E+00  0.00000000000E+00  0.13068846199E+03  0.13068846199E+03  0.00000000000E+00 0.  1.
          1   -1    0    0  501    0  0.00000000000E+00 -0.00000000000E+00 -0.10527642824E+03  0.10527642824E+03  0.00000000000E+00 0. -1.
         25    2    1    2    0    0 -0.35244025283E+02  0.62130578604E+01  0.42926789378E+02  0.13700731418E+03  0.12509017342E+03 0.  0.
          5    1    3    3  502    0 -0.17747381276E+02  0.38706354193E+02 -0.31967769740E+02  0.53409382127E+02  0.41800000000E+01 0. -1.
         -5    1    3    3    0  502 -0.17496644007E+02 -0.32493296332E+02  0.74894559118E+02  0.83597932053E+02  0.41800000000E+01 0. -1.
        -11    1    1    2    0    0  0.28391792393E+02 -0.32856842543E+02 -0.43248508518E+02  0.61287025268E+02  0.00000000000E+00 0. -1.
         11    1    1    2    0    0  0.68522328903E+01  0.26643784683E+02  0.25733752897E+02  0.37670550779E+02  0.00000000000E+00 0.  1.
</event>
<event>
 7    1  0.2530765E-009  0.7918812E+02  0.7561462E-02  0.1331371E+00
          1   -1    0    0  501    0  0.00000000000E+00  0.00000000000E+00  0.25235825728E+03  0.25235825728E+03  0.00000000000E+00 0. -1.
         -1   -1    0    0    0  501 -0.00000000000E+00 -0.00000000000E+00 -0.52525045783E+02  0.52525045783E+02  0.00000000000E+00 0.  1.
         25    2    1    2    0    0  0.32079122978E+01 -0.14305931934E+02  0.65943528419E+02  0.14216548204E+03  0.12509006736E+03 0.  0.
          5    1    3    3  502    0  0.89319841112E+01 -0.62492533785E+02  0.40347320225E+01  0.63394389196E+02  0.41800000000E+01 0.  1.
         -5    1    3    3    0  502 -0.57240718134E+01  0.48186601851E+02  0.61908796397E+02  0.78771092841E+02  0.41800000000E+01 0.  1.
        -11    1    1    2    0    0  0.20467885536E+02  0.68188308722E+01 -0.45671058584E+01  0.22051967003E+02  0.00000000000E+00 0.  1.
         11    1    1    2    0    0 -0.23675797834E+02  0.74871010616E+01  0.13845678894E+03  0.14066585402E+03  0.00000000000E+00 0. -1.
</event>
<event>
 7    1  0.2530765E-009  0.1591524E+03  0.7561462E-02  0.1189657E+00
          2   -1    0    0  501    0  0.00000000000E+00  0.00000000000E+00  0.12053786626E+04  0.12053786626E+04  0.00000000000E+00 0. -1.
         -2   -1    0    0    0  501 -0.00000000000E+00 -0.00000000000E+00 -0.23649727888E+02  0.23649727888E+02  0.00000000000E+00 0.  1.
         25    2    1    2    0    0  0.11997546104E+03  0.47737490519E+02  0.60164089022E+03  0.62792712812E+03  0.12509091969E+03 0.  0.
          5    1    3    3  502    0  0.13554606299E+03  0.31697452747E+02  0.37287392278E+03  0.39803253434E+03  0.41800000000E+01 0. -1.
         -5    1    3    3    0  502 -0.15570601951E+02  0.16040037772E+02  0.22876696745E+03  0.22989459378E+03  0.41800000000E+01 0. -1.
        -11    1    1    2    0    0 -0.47368343332E+01 -0.40559378099E+02  0.12048603398E+03  0.12721786485E+03  0.00000000000E+00 0. -1.
         11    1    1    2    0    0 -0.11523862671E+03 -0.71781124207E+01  0.45960201049E+03  0.47388339751E+03  0.00000000000E+00 0.  1.
</event>
<event>
 7    1  0.2530765E-009  0.7890181E+02  0.7561462E-02  0.1332197E+00
         -4   -1    0    0    0  501 -0.00000000000E+00  0.00000000000E+00  0.16228179864E+03  0.16228179864E+03  0.00000000000E+00 0.  1.
          4   -1    0    0  501    0  0.00000000000E+00 -0.00000000000E+00 -0.90706903356E+02  0.90706903356E+02  0.00000000000E+00 0. -1.
         25    2    1    2    0    0 -0.15958348706E+02 -0.47107021996E+02  0.27673066865E+02  0.13742983325E+03  0.12508964794E+03 0.  0.
          5    1    3    3  502    0 -0.17519273597E+01 -0.10607010014E+02  0.74985086328E+02  0.75867077725E+02  0.41800000000E+01 0. -1.
         -5    1    3    3    0  502 -0.14206421347E+02 -0.36500011981E+02 -0.47312019463E+02  0.61562755525E+02  0.41800000000E+01 0. -1.
        -11    1    1    2    0    0 -0.39267402325E+02  0.10583869632E+02  0.15750676283E+02  0.43612280210E+02  0.00000000000E+00 0.  1.
         11    1    1    2    0    0  0.55225751031E+02  0.36523152363E+02  0.28151152137E+02  0.71946588538E+02  0.00000000000E+00 0. -1.
</event>
<event>
 7    1  0.2530765E-009  0.8084444E+02  0.7561462E-02  0.1326672E+00
         -2   -1    0    0    0  501 -0.00000000000E+00  0.00000000000E+00  0.24101269214E+02  0.24101269214E+02  0.00000000000E+00 0.  1.
          2   -1    0    0  501    0  0.00000000000E+00 -0.00000000000E+00 -0.54609231809E+03  0.54609231809E+03  0.00000000000E+00 0. -1.
         25    2    1    2    0    0  0.11924840911E+02 -0.20863042608E+02 -0.37692503538E+03  0.39786538199E+03  0.12508761536E+03 0.  0.
          5    1    3    3  502    0  0.43155976771E+02 -0.55601127754E+01 -0.35240824228E+03  0.35510899004E+03  0.41800000000E+01 0. -1.
         -5    1    3    3    0  502 -0.31231135860E+02 -0.15302929832E+02 -0.24516793103E+02  0.42756391950E+02  0.41800000000E+01 0. -1.
        -11    1    1    2    0    0  0.62634393528E+01 -0.29105067810E+02 -0.94005308175E+02  0.98606965321E+02  0.00000000000E+00 0. -1.
         11    1    1    2    0    0 -0.18188280264E+02  0.49968110418E+02 -0.51060705324E+02  0.73721239991E+02  0.00000000000E+00 0.  1.
</event>
<event>
 7    1  0.2530765E-009  0.1988748E+03  0.7561462E-02  0.1150692E+00
          2   -1    0    0  501    0  0.00000000000E+00  0.00000000000E+00  0.23896277089E+03  0.23896277089E+03  0.00000000000E+00 0. -1.
         -2   -1    0    0    0  501 -0.00000000000E+00 -0.00000000000E+00 -0.19078394177E+03  0.19078394177E+03  0.00000000000E+00 0.  1.
         25    2    1    2    0    0 -0.12655029815E+02  0.18323705445E+03  0.18336729294E+02  0.22297820517E+03  0.12508827459E+03 0.  0.
          5    1    3    3  502    0 -0.50377683212E+02  0.13237001453E+03  0.52248629844E+02  0.15102027491E+03  0.41800000000E+01 0. -1.
         -5    1    3    3    0  502  0.37722653397E+02  0.50867039922E+02 -0.33911900550E+02  0.71957930270E+02  0.41800000000E+01 0. -1.
        -11    1    1    2    0    0  0.30257706616E+02 -0.51884141343E+02 -0.22695760526E+02  0.64207402052E+02  0.00000000000E+00 0.  1.
         11    1    1    2    0    0 -0.17602676800E+02 -0.13135291311E+03  0.52537860349E+02  0.14256110543E+03  0.00000000000E+00 0. -1.
</event>
<event>
 7    1  0.2530765E-009  0.1300226E+03  0.7561462E-02  0.1227422E+00
          2   -1    0    0  501    0  0.00000000000E+00  0.00000000000E+00  0.10923552592E+04  0.10923552592E+04  0.00000000000E+00 0. -1.
         -2   -1    0    0    0  501 -0.00000000000E+00 -0.00000000000E+00 -0.19251100157E+02  0.19251100157E+02  0.00000000000E+00 0.  1.
         25    2    1    2    0    0 -0.86582252730E+02  0.18616774495E+02  0.73190438128E+03  0.74777987417E+03  0.12509055158E+03 0.  0.
          5    1    3    3  502    0 -0.97700146055E+02 -0.27633661451E+02  0.41287333693E+03  0.42519501706E+03  0.41800000000E+01 0. -1.
         -5    1    3    3    0  502  0.11117893324E+02  0.46250435946E+02  0.31903104435E+03  0.32258485711E+03  0.41800000000E+01 0. -1.
        -11    1    1    2    0    0  0.78029664865E+02 -0.39971107405E+02  0.32243084102E+03  0.33413764419E+03  0.00000000000E+00 0. -1.
         11    1    1    2    0    0  0.85525878652E+01  0.21354332911E+02  0.18768936743E+02  0.29688840997E+02  0.00000000000E+00 0.  1.
</event>
<event>
 7    1  0.2530765E-009  0.1042690E+03  0.7561462E-02  0.1271567E+00
         -2   -1    0    0    0  501 -0.00000000000E+00  0.00000000000E+00  0.21451967393E+03  0.21451967393E+03  0.00000000000E+00 0. -1.
          2   -1    0    0  501    0  0.00000000000E+00 -0.00000000000E+00 -0.60448383146E+02  0.60448383146E+02  0.00000000000E+00 0.  1.
         25    2    1    2    0    0  0.63010477699E+01 -0.33438850724E+02  0.93448867109E+02  0.15980620441E+03  0.12508985676E+03 0.  0.
          5    1    3    3  502    0 -0.49153795994E+02 -0.10102624886E+02  0.85154076282E+02  0.98928498410E+02  0.41800000000E+01 0. -1.
         -5    1    3    3    0  502  0.55454843764E+02 -0.23336225838E+02  0.82947908274E+01  0.60877706002E+02  0.41800000000E+01 0. -1.
        -11    1    1    2    0    0  0.12799770922E+02 -0.29469248988E+02  0.18341283345E+02  0.36995586849E+02  0.00000000000E+00 0.  1.
         11    1    1    2    0    0 -0.19100818692E+02  0.62908099712E+02  0.42281140334E+02  0.78166265819E+02  0.00000000000E+00 0. -1.
</event>
<event>
 7    1  0.2963598E-009  0.2272493E+03  0.7561462E-02  0.1128591E+00
          1   -1    0    0  501    0  0.00000000000E+00  0.00000000000E+00  0.79413588420E+03  0.79413588420E+03  0.00000000000E+00 0. -1.
         -1   -1    0    0    0  501 -0.00000000000E+00 -0.00000000000E+00 -0.74716822777E+02  0.74716822777E+02  0.00000000000E+00 0.  1.
         25    2    1    2    0    0 -0.16124208529E+03  0.12512764224E+03  0.23597612720E+03  0.33613399042E+03  0.12508153335E+03 0.  0.
          5    1    3    3  502    0 -0.17406627310E+03  0.13016466855E+03  0.23711914384E+03  0.32169064199E+03  0.41800000000E+01 0. -1.
         -5    1    3    3    0  502  0.12824187804E+02 -0.50370263113E+01 -0.11430166368E+01  0.14443348432E+02  0.41800000000E+01 0. -1.
        -11    1    1    2    0    0  0.29110081753E+02 -0.76603509605E+02  0.15351024371E+03  0.17401404963E+03  0.00000000000E+00 0.  1.
         11    1    1    2    0    0  0.13213200354E+03 -0.48524132635E+02  0.32993269052E+03  0.35870466693E+03  0.00000000000E+00 0. -1.
</event>
<event>
 7    1  0.2530765E-009  0.1108120E+03  0.7561462E-02  0.1259073E+00
         -1   -1    0    0    0  501 -0.00000000000E+00  0.00000000000E+00  0.15661381093E+02  0.15661381093E+02  0.00000000000E+00 0.  1.
          1   -1    0    0  501    0  0.00000000000E+00 -0.00000000000E+00 -0.80628382957E+03  0.80628382957E+03  0.00000000000E+00 0. -1.
         25    2    1    2    0    0  0.11016563205E+02 -0.21791591764E+02 -0.45043639754E+03  0.46812248190E+03  0.12509784851E+03 0.  0.
          5    1    3    3  502    0 -0.23382882181E+02  0.45052262324E+02 -0.15067313694E+03  0.15904820689E+03  0.41800000000E+01 0. -1.
         -5    1    3    3    0  502  0.34399445386E+02 -0.66843854088E+02 -0.29976326060E+03  0.30907427502E+03  0.41800000000E+01 0. -1.
        -11    1    1    2    0    0  0.25201291579E+02  0.45570680396E+02 -0.15060660081E+03  0.15935538967E+03  0.00000000000E+00 0. -1.
         11    1    1    2    0    0 -0.36217854783E+02 -0.23779088632E+02 -0.18957945013E+03  0.19446733909E+03  0.00000000000E+00 0.  1.
</event>
<event>
 7    1  0.2530765E-009  0.1332465E+03  0.7561462E-02  0.1222716E+00
          3   -1    0    0  501    0  0.00000000000E+00  0.00000000000E+00  0.30858123724E+02  0.30858123724E+02  0.00000000000E+00 0. -1.
         -3   -1    0    0    0  501 -0.00000000000E+00 -0.00000000000E+00 -0.73849520465E+03  0.73849520465E+03  0.00000000000E+00 0.  1.
         25    2    1    2    0    0 -0.73362526394E+02  0.71913133540E+02 -0.44524552395E+03  0.47375534765E+03  0.12508794415E+03 0.  0.
          5    1    3    3  502    0  0.31621994734E+02  0.41733923638E+02 -0.14085438161E+03  0.15032997090E+03  0.41800000000E+01 0.  1.
         -5    1    3    3    0  502 -0.10498452113E+03  0.30179209902E+02 -0.30439114234E+03  0.32342537674E+03  0.41800000000E+01 0.  1.
        -11    1    1    2    0    0  0.37206270156E+02 -0.50163794052E+02 -0.23967270441E+03  0.24767664002E+03  0.00000000000E+00 0.  1.
         11    1    1    2    0    0  0.36156256238E+02 -0.21749339488E+02 -0.22718852571E+02  0.47921340710E+02  0.00000000000E+00 0. -1.
</event>
<event>
 7    1  0.2530765E-009  0.2864974E+03  0.7561462E-02  0.1092192E+00
          1   -1    0    0  501    0  0.00000000000E+00  0.00000000000E+00  0.25857606782E+03  0.25857606782E+03  0.00000000000E+00 0. -1.
         -1   -1    0    0    0  501 -0.00000000000E+00 -0.00000000000E+00 -0.62423829365E+03  0.62423829365E+03  0.00000000000E+00 0.  1.
         25    2    1    2    0    0  0.24506423930E+03 -0.10200257794E+03  0.12400739462E+03  0.31856999397E+03  0.12509196556E+03 0.  0.
          5    1    3    3  502    0 -0.86753254549E+01  0.11854120152E+02  0.74033401467E+01  0.16972427099E+02  0.41800000000E+01 0.  1.
         -5    1    3    3    0  502  0.25373956476E+03 -0.11385669809E+03  0.11660405447E+03  0.30159756687E+03  0.41800000000E+01 0.  1.
        -11    1    1    2    0    0 -0.62023825491E+02  0.70406624263E+02 -0.18453987182E+03  0.20702418207E+03  0.00000000000E+00 0.  1.
         11    1    1    2    0    0 -0.18304041381E+03  0.31595953675E+02 -0.30512974863E+03  0.35722018543E+03  0.00000000000E+00 0. -1.
</event>
<event>
 7    1  0.2530765E-009  0.1071948E+03  0.7561462E-02  0.1265855E+00
         -1   -1    0    0    0  501 -0.00000000000E+00  0.00000000000E+00  0.44965694571E+02  0.44965694571E+02  0.00000000000E+00 0.  1.
          1   -1    0    0  501    0  0.00000000000E+00 -0.00000000000E+00 -0.33318795046E+03  0.33318795046E+03  0.00000000000E+00 0. -1.
         25    2    1    2    0    0 -0.54193276272E+02  0.97662439187E+01 -0.15685523305E+03  0.20805168121E+03  0.12509854997E+03 0.  0.
          5    1    3    3  502    0 -0.25648605376E+01  0.43978886390E+02 -0.56635795307E+01  0.44612436504E+02  0.41800000000E+01 0. -1.
         -5    1    3    3    0  502 -0.51628415735E+02 -0.34212642471E+02 -0.15119165352E+03  0.16343924470E+03  0.41800000000E+01 0. -1.
        -11    1    1    2    0    0  0.75625718694E+02 -0.27267698828E+02 -0.97854657172E+02  0.12664245204E+03  0.00000000000E+00 0.  1.
         11    1    1    2    0    0 -0.21432442422E+02  0.17501454909E+02 -0.33512365670E+02  0.43459511789E+02  0.00000000000E+00 0. -1.
</event>
<event>
 7    1  0.2530765E-009  0.1001808E+03  0.7561462E-02  0.1279916E+00
         -1   -1    0    0    0  501 -0.00000000000E+00  0.00000000000E+00  0.26180092652E+02  0.26180092652E+02  0.00000000000E+00 0.  1.
          1   -1    0    0  501    0  0.00000000000E+00 -0.00000000000E+00 -0.51350970564E+03  0.51350970564E+03  0.00000000000E+00 0. -1.
         25    2    1    2    0    0  0.37268793549E+02  0.23929486860E+02 -0.26974319434E+03  0.30061583827E+03  0.12508760135E+03 0.  0.
          5    1    3    3  502    0  0.74919625273E+02  0.95931996403E+01 -0.96048591116E+02  0.12226113031E+03  0.41800000000E+01 0.  1.
         -5    1    3    3    0  502 -0.37650831724E+02  0.14336287220E+02 -0.17369460322E+03  0.17835470795E+03  0.41800000000E+01 0.  1.
        -11    1    1    2    0    0 -0.47649235994E+02  0.10035562892E+02 -0.18348647341E+03  0.18983795231E+03  0.00000000000E+00 0. -1.
         11    1    1    2    0    0  0.10380442445E+02 -0.33965049752E+02 -0.34099945241E+02  0.49236007712E+02  0.00000000000E+00 0.  1.
</event>
<event>
 7    1  0.2530765E-009  0.7180834E+02  0.7561462E-02  0.1354049E+00
          1   -1    0    0  501    0  0.00000000000E+00  0.00000000000E+00  0.60549856777E+02  0.60549856777E+02  0.00000000000E+00 0. -1.
         -1   -1    0    0    0  501 -0.00000000000E+00 -0.00000000000E+00 -0.30637749720E+03  0.30637749720E+03  0.00000000000E+00 0.  1.
         25    2    1    2    0    0 -0.29779159047E+02  0.56612661081E+02 -0.20492167661E+03  0.24846435058E+03  0.12509935355E+03 0.  0.
          5    1    3    3  502    0 -0.20441786149E+02  0.52206104219E+02 -0.22148208330E+03  0.22850630093E+03  0.41800000000E+01 0. -1.
         -5    1    3    3    0  502 -0.93373728977E+01  0.44065568625E+01  0.16560406697E+02  0.19958049653E+02  0.41800000000E+01 0. -1.
        -11    1    1    2    0    0  0.37194354983E+02 -0.27612862877E+02  0.20109875832E+02  0.50500468759E+02  0.00000000000E+00 0. -1.
         11    1    1    2    0    0 -0.74151959361E+01 -0.28999798204E+02 -0.61015839645E+02  0.67962534636E+02  0.00000000000E+00 0.  1.
</event>
<event>
 7    1  0.2530765E-009  0.9915224E+02  0.7561462E-02  0.1282089E+00
          2   -1    0    0  501    0  0.00000000000E+00  0.00000000000E+00  0.41039606615E+03  0.41039606615E+03  0.00000000000E+00 0. -1.
         -2   -1    0    0    0  501 -0.00000000000E+00 -0.00000000000E+00 -0.36340750897E+02  0.36340750897E+02  0.00000000000E+00 0.  1.
         25    2    1    2    0    0 -0.10807030490E+02 -0.51256788773E+02  0.24212738558E+03  0.27751919930E+03  0.12508870784E+03 0.  0.
          5    1    3    3  502    0  0.38612803656E+02 -0.70502953404E+02  0.12228185669E+03  0.14639651608E+03  0.41800000000E+01 0. -1.
         -5    1    3    3    0  502 -0.49419834146E+02  0.19246164631E+02  0.11984552888E+03  0.13112268322E+03  0.41800000000E+01 0. -1.
        -11    1    1    2    0    0  0.24638414799E+02  0.39002768255E+02  0.14119835846E+03  0.14854374389E+03  0.00000000000E+00 0. -1.
         11    1    1    2    0    0 -0.13831384309E+02  0.12254020518E+02 -0.92704287836E+01  0.20673873865E+02  0.00000000000E+00 0.  1.
</event>
<event>
 7    1  0.2530765E-009  0.9590365E+02  0.7561462E-02  0.1289154E+00
         -1   -1    0    0    0  501 -0.00000000000E+00  0.00000000000E+00  0.36718172710E+03  0.36718172710E+03  0.00000000000E+00 0.  1.
          1   -1    0    0  501    0  0.00000000000E+00 -0.00000000000E+00 -0.72567635490E+02  0.72567635490E+02  0.00000000000E+00 0. -1.
         25    2    1    2    0    0  0.48825053280E+02 -0.50026183985E+02  0.29272479995E+03  0.32591763024E+03  0.12509191934E+03 0.  0.
          5    1    3    3  502    0 -0.84041762449E+01 -0.30003483931E+02  0.49857106654E+01  0.31830314751E+02  0.41800000000E+01 0.  1.
         -5    1    3    3    0  502  0.57229229525E+02 -0.20022700055E+02  0.28773908929E+03  0.29408731549E+03  0.41800000000E+01 0.  1.
        -11    1    1    2    0    0 -0.63821927970E+02  0.54521048276E+02  0.23480743644E+02  0.87161508231E+02  0.00000000000E+00 0.  1.
         11    1    1    2    0    0  0.14996874690E+02 -0.44948642910E+01 -0.21591451987E+02  0.26670224115E+02  0.00000000000E+00 0. -1.
</event>
<event>
 7    1  0.2530765E-009  0.1081153E+03  0.7561462E-02  0.1264100E+00
          3   -1    0    0  501    0  0.00000000000E+00  0.00000000000E+00  0.18704519929E+03  0.18704519929E+03  0.00000000000E+00 0. -1.
         -3   -1    0    0    0  501 -0.00000000000E+00 -0.00000000000E+00 -0.85837223736E+02  0.85837223736E+02  0.00000000000E+00 0.  1.
         25    2    1    2    0    0 -0.48090113608E+02 -0.25463028194E+01  0.12969011514E+02  0.13466572829E+03  0.12509004929E+03 0.  0.
          5    1    3    3  502    0 -0.68655119447E+02 -0.30627767792E+02  0.44546662150E+02  0.87484073379E+02  0.41800000000E+01 0. -1.
         -5    1    3    3    0  502  0.20565005839E+02  0.28081464973E+02 -0.31577650637E+02  0.47181654908E+02  0.41800000000E+01 0. -1.
        -11    1    1    2    0    0  0.79040572290E+01 -0.43817834324E+02  0.30538703426E+02  0.53991565383E+02  0.00000000000E+00 0.  1.
         11    1    1    2    0    0  0.40186056379E+02  0.46364137144E+02  0.57700260617E+02  0.84225129360E+02  0.00000000000E+00 0. -1.
</event>
<event>
 7    1  0.2530765E-009  0.1604073E+03  0.7561462E-02  0.1188238E+00
         -2   -1    0    0    0  501 -0.00000000000E+00  0.00000000000E+00  0.24878869620E+03  0.24878869620E+03  0.00000000000E+00 0. -1.
          2   -1    0    0  501    0  0.00000000000E+00 -0.00000000000E+00 -0.12181079237E+03  0.12181079237E+03  0.00000000000E+00 0.  1.
         25    2    1    2    0    0  0.33130885981E+02  0.12810402308E+03  0.40258532464E+02  0.18648118081E+03  0.12508471140E+03 0.  0.
          5    1    3    3  502    0  0.32859668552E+02 -0.88354986581E+01  0.35563841014E+02  0.49397196697E+02  0.41800000000E+01 0.  1.
         -5    1    3    3    0  502  0.27121742827E+00  0.13693952174E+03  0.46946914507E+01  0.13708398411E+03  0.41800000000E+01 0.  1.
        -11    1    1    2    0    0 -0.48291919167E+02 -0.12506631601E+03  0.97063967569E+02  0.16551467203E+03  0.00000000000E+00 0. -1.
         11    1    1    2    0    0  0.15161033186E+02 -0.30377070659E+01 -0.10344596205E+02  0.18603635724E+02  0.00000000000E+00 0.  1.
</event>
<event>
 7    1  0.2530765E-009  0.1082141E+03  0.7561462E-02  0.1263913E+00
         -2   -1    0    0    0  501 -0.00000000000E+00  0.00000000000E+00  0.19225739970E+04  0.19225739970E+04  0.00000000000E+00 0.  1.
          2   -1    0    0  501    0  0.00000000000E+00 -0.00000000000E+00 -0.15279361905E+02  0.15279361905E+02  0.00000000000E+00 0. -1.
         25    2    1    2    0    0  0.73813411966E+02 -0.19938644831E+02  0.16567894198E+04  0.16632628010E+04  0.12508394903E+03 0.  0.
          5    1    3    3  502    0  0.60686854783E+02 -0.62006038504E+02  0.68786344878E+03  0.69332621451E+03  0.41800000000E+01 0. -1.
         -5    1    3    3    0  502  0.13126557183E+02  0.42067393673E+02  0.96892597098E+03  0.96993658646E+03  0.41800000000E+01 0. -1.
        -11    1    1    2    0    0 -0.66483398425E+02  0.26665501995E+01  0.24660873142E+03  0.25542713084E+03  0.00000000000E+00 0.  1.
         11    1    1    2    0    0 -0.73300135418E+01  0.17272094632E+02  0.38964839214E+01  0.19163427106E+02  0.00000000000E+00 0. -1.
</event>
<event>
 7    1  0.2530765E-009  0.5647396E+02  0.7561462E-02  0.1413254E+00
         -1   -1    0    0    0  501 -0.00000000000E+00  0.00000000000E+00  0.34223395882E+03  0.34223395882E+03  0.00000000000E+00 0.  1.
          1   -1    0    0  501    0  0.00000000000E+00 -0.00000000000E+00 -0.39343731197E+02  0.39343731197E+02  0.00000000000E+00 0. -1.
         25    2    1    2    0    0 -0.70316927772E+01  0.57650582353E+01  0.10069570210E+03  0.16084603480E+03  0.12509653029E+03 0.  0.
          5    1    3    3  502    0 -0.18079236817E+02 -0.13004189854E+02  0.12552565248E+03  0.12755441815E+03  0.41800000000E+01 0. -1.
         -5    1    3    3    0  502  0.11047544040E+02  0.18769248090E+02 -0.24829950386E+02  0.33291616652E+02  0.41800000000E+01 0. -1.
        -11    1    1    2    0    0  0.32126227442E+02  0.15079714890E+02  0.17409550600E+03  0.17767593394E+03  0.00000000000E+00 0.  1.
         11    1    1    2    0    0 -0.25094534665E+02 -0.20844773125E+02  0.28099019524E+02  0.43055721280E+02  0.00000000000E+00 0. -1.
</event>
<event>
 7    1  0.2530765E-009  0.1909106E+03  0.7561462E-02  0.1157643E+00
         -1   -1    0    0    0  501 -0.00000000000E+00  0.00000000000E+00  0.63900061499E+02  0.63900061499E+02  0.00000000000E+00 0.  1.
          1   -1    0    0  501    0  0.00000000000E+00 -0.00000000000E+00 -0.86455913124E+03  0.86455913124E+03  0.00000000000E+00 0. -1.
         25    2    1    2    0    0 -0.15745393571E+03  0.67666802003E+02 -0.64598831270E+03  0.67994080499E+03  0.12509220669E+03 0.  0.
          5    1    3    3  502    0 -0.74722076233E+02 -0.28613237023E+02 -0.18145722069E+03  0.19835902135E+03  0.41800000000E+01 0. -1.
         -5    1    3    3    0  502 -0.82731859479E+02  0.96280039026E+02 -0.46453109201E+03  0.48158178364E+03  0.41800000000E+01 0. -1.
        -11    1    1    2    0    0  0.39543778963E+02 -0.33771695267E+02 -0.11725494709E+01  0.52015504690E+02  0.00000000000E+00 0.  1.
         11    1    1    2    0    0  0.11791015675E+03 -0.33895106736E+02 -0.15349820757E+03  0.19650288306E+03  0.00000000000E+00 0. -1.
</event>
<event>
 7    1  0.2530765E-009  0.4250763E+02  0.7561462E-02  0.1490529E+00
          1   -1    0    0  501    0  0.00000000000E+00  0.00000000000E+00  0.93886690599E+02  0.93886690599E+02  0.00000000000E+00 0. -1.
         -1   -1    0    0    0  501 -0.00000000000E+00 -0.00000000000E+00 -0.13816737195E+03  0.13816737195E+03  0.00000000000E+00 0.  1.
         25    2    1    2    0    0 -0.31000785250E+02  0.21106480802E+02 -0.20963430425E+02  0.13227605528E+03  0.12510378559E+03 0.  0.
          5    1    3    3  502    0 -0.87513817928E+01 -0.63484382620E+01 -0.70409062460E+02  0.71356834488E+02  0.41800000000E+01 0.  1.
         -5    1    3    3    0  502 -0.22249403457E+02  0.27454919064E+02  0.49445632035E+02  0.60919220796E+02  0.41800000000E+01 0.  1.
        -11    1    1    2    0    0  0.16428137553E+02 -0.81465690991E+01  0.34330533841E+02  0.38920892145E+02  0.00000000000E+00 0. -1.
         11    1    1    2    0    0  0.14572647697E+02 -0.12959911703E+02 -0.57647784764E+02  0.60857115117E+02  0.00000000000E+00 0.  1.
</event>
<event>
 7    1  0.2530765E-009  0.9941941E+02  0.7561462E-02  0.1281522E+00
         -1   -1    0    0    0  501 -0.00000000000E+00  0.00000000000E+00  0.41759603176E+02  0.41759603176E+02  0.00000000000E+00 0.  1.
          1   -1    0    0  501    0  0.00000000000E+00 -0.00000000000E+00 -0.29454313489E+03  0.29454313489E+03  0.00000000000E+00 0. -1.
         25    2    1    2    0    0 -0.10996643886E+02 -0.15293159034E+02 -0.16083275446E+03  0.20462135545E+03  0.12509163565E+03 0.  0.
          5    1    3    3  502    0 -0.38562974667E+02  0.37577701950E+02 -0.32447415747E+02  0.63003919622E+02  0.41800000000E+01 0. -1.
         -5    1    3    3    0  502  0.27566330781E+02 -0.52870860984E+02 -0.12838533871E+03  0.14161743582E+03  0.41800000000E+01 0. -1.
        -11    1    1    2    0    0  0.42579347164E+02 -0.10986918527E+02 -0.18888780714E+02  0.47859160257E+02  0.00000000000E+00 0.  1.
         11    1    1    2    0    0 -0.31582703278E+02  0.26280077561E+02 -0.73061996541E+02  0.83822222361E+02  0.00000000000E+00 0. -1.
</event>
<event>
 7    1  0.3077538E-009  0.1026366E+03  0.7561462E-02  0.1274847E+00
          2   -1    0    0  501    0  0.00000000000E+00  0.00000000000E+00  0.99309010764E+03  0.99309010764E+03  0.00000000000E+00 0. -1.
         -2   -1    0    0    0  501 -0.00000000000E+00 -0.00000000000E+00 -0.24050563099E+02  0.24050563099E+02  0.00000000000E+00 0.  1.
         25    2    1    2    0    0 -0.17826486273E+02 -0.10063000857E+03  0.65188806665E+03  0.67160233108E+03  0.12508979749E+03 0.  0.
          5    1    3    3  502    0 -0.16050157382E+02 -0.79006584802E+02  0.15994575353E+03  0.17916407136E+03  0.41800000000E+01 0. -1.
         -5    1    3    3    0  502 -0.17763288911E+01 -0.21623423766E+02  0.49194231312E+03  0.49243825972E+03  0.41800000000E+01 0. -1.
        -11    1    1    2    0    0  0.16180229338E+02  0.73060331967E+02  0.30719808512E+03  0.31618076385E+03  0.00000000000E+00 0. -1.
         11    1    1    2    0    0  0.16462569344E+01  0.27569676601E+02  0.99533927778E+01  0.29357575812E+02  0.00000000000E+00 0.  1.
</event>
<event>
 7    1  0.2530765E-009  0.8133874E+02  0.7561462E-02  0.1325295E+00
          1   -1    0    0  501    0  0.00000000000E+00  0.00000000000E+00  0.38597194178E+03  0.38597194178E+03  0.00000000000E+00 0. -1.
         -1   -1    0    0    0  501 -0.00000000000E+00 -0.00000000000E+00 -0.38526136399E+02  0.38526136399E+02  0.00000000000E+00 0.  1.
         25    2    1    2    0    0  0.16323961450E+02  0.20926110518E+02  0.11071524154E+03  0.16914488851E+03  0.12509098601E+03 0.  0.
          5    1    3    3  502    0  0.22747925719E+01  0.47384719390E+02 -0.65228486461E+01  0.48067725840E+02  0.41800000000E+01 0. -1.
         -5    1    3    3    0  502  0.14049168878E+02 -0.26458608872E+02  0.11723809019E+03  0.12107716267E+03  0.41800000000E+01 0. -1.
        -11    1    1    2    0    0  0.32782317684E+02 -0.11916384641E+02  0.43397981052E+02  0.55678230351E+02  0.00000000000E+00 0.  1.
         11    1    1    2    0    0 -0.49106279134E+02 -0.90097258776E+01  0.19333258279E+03  0.19967495932E+03  0.00000000000E+00 0. -1.
</event>
<event>
 7    1  0.2530765E-009  0.1058811E+03  0.7561462E-02  0.1268393E+00
         -1   -1    0    0    0  501 -0.00000000000E+00  0.00000000000E+00  0.22624152984E+03  0.22624152984E+03  0.00000000000E+00 0.  1.
          1   -1    0    0  501    0  0.00000000000E+00 -0.00000000000E+00 -0.56671405917E+02  0.56671405917E+02  0.00000000000E+00 0. -1.
         25    2    1    2    0    0  0.23206051764E+02 -0.19537719175E+02  0.11117753201E+03  0.17007961498E+03  0.12508552474E+03 0.  0.
          5    1    3    3  502    0  0.74890190397E+02 -0.14334721953E+02  0.61010640726E+02  0.97743519238E+02  0.41800000000E+01 0.  1.
         -5    1    3    3    0  502 -0.51684138634E+02 -0.52029972213E+01  0.50166891283E+02  0.72336095743E+02  0.41800000000E+01 0.  1.
        -11    1    1    2    0    0 -0.15578078098E+02 -0.29658378851E+02 -0.31812319580E+01  0.33651392097E+02  0.00000000000E+00 0. -1.
         11    1    1    2    0    0 -0.76279736660E+01  0.49196098025E+02  0.61573823874E+02  0.79181928681E+02  0.00000000000E+00 0.  1.
</event>
<event>
 7    1  0.2530765E-009  0.1095803E+03  0.7561462E-02  0.1261349E+00
         -4   -1    0    0    0  501 -0.00000000000E+00  0.00000000000E+00  0.30898368503E+02  0.30898368503E+02  0.00000000000E+00 0.  1.
          4   -1    0    0  501    0  0.00000000000E+00 -0.00000000000E+00 -0.54627096957E+03  0.54627096957E+03  0.00000000000E+00 0. -1.
         25    2    1    2    0    0  0.27089981445E+02 -0.10844143203E+02 -0.15125514232E+03  0.19843564912E+03  0.12508847359E+03 0.  0.
          5    1    3    3  502    0  0.57356574305E+02 -0.44710848931E+02 -0.52923400169E+02  0.90039965091E+02  0.41800000000E+01 0. -1.
         -5    1    3    3    0  502 -0.30266592860E+02  0.33866705728E+02 -0.98331742153E+02  0.10839568402E+03  0.41800000000E+01 0. -1.
        -11    1    1    2    0    0  0.24586062812E+02  0.35710944271E+02 -0.20663486287E+03  0.21113434723E+03  0.00000000000E+00 0. -1.
         11    1    1    2    0    0 -0.51676044257E+02 -0.24866801068E+02 -0.15748259587E+03  0.16759934173E+03  0.00000000000E+00 0.  1.
</event>
<event>
 7    1  0.2530765E-009  0.8649699E+02  0.7561462E-02  0.1311564E+00
         -2   -1    0    0    0  501 -0.00000000000E+00  0.00000000000E+00  0.16673605392E+03  0.16673605392E+03  0.00000000000E+00 0.  1.
          2   -1    0    0  501    0  0.00000000000E+00 -0.00000000000E+00 -0.94671547242E+02  0.94671547242E+02  0.00000000000E+00 0. -1.
         25    2    1    2    0    0 -0.62453494384E+02  0.49119531097E+01  0.44427072076E+02  0.14678254650E+03  0.12508710957E+03 0.  0.
          5    1    3    3  502    0 -0.45357744845E+02 -0.12788450911E+02 -0.37985287414E+02  0.60673090856E+02  0.41800000000E+01 0.  1.
         -5    1    3    3    0  502 -0.17095749539E+02  0.17700404020E+02  0.82412359490E+02  0.86109455645E+02  0.41800000000E+01 0.  1.
        -11    1    1    2    0    0  0.12944118265E+02  0.34879596216E+02  0.34498634380E+02  0.50737483225E+02  0.00000000000E+00 0.  1.
         11    1    1    2    0    0  0.49509376119E+02 -0.39791549326E+02 -0.68611997781E+01  0.63887571435E+02  0.00000000000E+00 0. -1.
</event>
<event>
 7    1  0.2530765E-009  0.1203139E+03  0.7561462E-02  0.1242580E+00
          1   -1    0    0  501    0  0.00000000000E+00  0.00000000000E+00  0.64620665841E+03  0.64620665841E+03  0.00000000000E+00 0. -1.
         -1   -1    0    0    0  501 -0.00000000000E+00 -0.00000000000E+00 -0.38748448818E+02  0.38748448818E+02  0.00000000000E+00 0.  1.
         25    2    1    2    0    0 -0.10706567881E+03 -0.37261197812E+02  0.28949281569E+03  0.33511833800E+03  0.12508698447E+03 0.  0.
          5    1    3    3  502    0 -0.30345971681E+02  0.15311872772E+01 -0.24342016087E+01  0.30767194692E+02  0.41800000000E+01 0.  1.
         -5    1    3    3    0  502 -0.76719707127E+02 -0.38792385089E+02  0.29192701730E+03  0.30435114330E+03  0.41800000000E+01 0.  1.
        -11    1    1    2    0    0  0.75830460563E+02  0.49259535387E+02  0.29674055123E+03  0.31021237132E+03  0.00000000000E+00 0. -1.
         11    1    1    2    0    0  0.31235218246E+02 -0.11998337575E+02  0.21224842676E+02  0.39624397914E+02  0.00000000000E+00 0.  1.
</event>
<event>
 7    1  0.2530765E-009  0.7050725E+02  0.7561462E-02  0.1358377E+00
          2   -1    0    0  501    0  0.00000000000E+00  0.00000000000E+00  0.30595967132E+02  0.30595967132E+02  0.00000000000E+00 0.  1.
         -2   -1    0    0    0  501 -0.00000000000E+00 -0.00000000000E+00 -0.10532456014E+04  0.10532456014E+04  0.00000000000E+00 0. -1.
         25    2    1    2    0    0  0.65359070096E+02  0.83001278461E+01 -0.92249368927E+03  0.93326455252E+03  0.12508964019E+03 0.  0.
          5    1    3    3  502    0  0.70639584819E+01 -0.64132566405E+01 -0.17643062966E+01  0.10564778601E+02  0.41800000000E+01 0.  1.
         -5    1    3    3    0  502  0.58295111615E+02  0.14713384487E+02 -0.92072938297E+03  0.92269977392E+03  0.41800000000E+01 0.  1.
        -11    1    1    2    0    0 -0.21267626300E+02  0.88296061454E+01  0.14041205751E+02  0.26970897873E+02  0.00000000000E+00 0.  1.
         11    1    1    2    0    0 -0.44091443797E+02 -0.17129733992E+02 -0.11419715078E+03  0.12360611817E+03  0.00000000000E+00 0. -1.
</event>
<event>
 7    1  0.2530765E-009  0.1060835E+03  0.7561462E-02  0.1267999E+00
         -2   -1    0    0    0  501 -0.00000000000E+00  0.00000000000E+00  0.71133300047E+02  0.71133300047E+02  0.00000000000E+00 0.  1.
          2   -1    0    0  501    0  0.00000000000E+00 -0.00000000000E+00 -0.17946199363E+03  0.17946199363E+03  0.00000000000E+00 0. -1.
         25    2    1    2    0    0 -0.48798501686E+01 -0.20442096428E+02 -0.95283365859E+02  0.15863909644E+03  0.12508297592E+03 0.  0.
          5    1    3    3  502    0  0.47610731807E+02 -0.44338536797E+02 -0.69607581082E+02  0.95369677427E+02  0.41800000000E+01 0.  1.
         -5    1    3    3    0  502 -0.52490581975E+02  0.23896440369E+02 -0.25675784778E+02  0.63269419014E+02  0.41800000000E+01 0.  1.
        -11    1    1    2    0    0  0.45380284232E+02  0.17156025469E+02 -0.16331485646E+02  0.51190007133E+02  0.00000000000E+00 0. -1.
         11    1    1    2    0    0 -0.40500434063E+02  0.32860709590E+01  0.32861579227E+01  0.40766190104E+02  0.00000000000E+00 0.  1.
</event>
<event>
 7    1  0.2880267E-009  0.1770785E+03  0.7561462E-02  0.1170661E+00
         -1   -1    0    0    0  501 -0.00000000000E+00  0.00000000000E+00  0.30244958850E+02  0.30244958850E+02  0.00000000000E+00 0. -1.
          1   -1    0    0  501    0  0.00000000000E+00 -0.00000000000E+00 -0.13987781220E+04  0.13987781220E+04  0.00000000000E+00 0.  1.
         25    2    1    2    0    0  0.15618402916E+03 -0.37002585273E+02 -0.47815541718E+03  0.51965707921E+03  0.12509290431E+03 0.  0.
          5    1    3    3  502    0  0.14647326684E+03 -0.16339440102E+02 -0.47357844317E+03  0.49599940468E+03  0.41800000000E+01 0.  1.
         -5    1    3    3    0  502  0.97107623217E+01 -0.20663145170E+02 -0.45769740106E+01  0.23657674533E+02  0.41800000000E+01 0.  1.
        -11    1    1    2    0    0 -0.33103809875E+02  0.49760011844E+02 -0.34384781718E+03  0.34900321257E+03  0.00000000000E+00 0. -1.
         11    1    1    2    0    0 -0.12308021928E+03 -0.12757426572E+02 -0.54652992877E+03  0.56036278905E+03  0.00000000000E+00 0.  1.
</event>
<event>
 7    1  0.2530765E-009  0.1149563E+03  0.7561462E-02  0.1251657E+00
         -2   -1    0    0    0  501 -0.00000000000E+00  0.00000000000E+00  0.37530212631E+03  0.37530212631E+03  0.00000000000E+00 0.  1.
          2   -1    0    0  501    0  0.00000000000E+00 -0.00000000000E+00 -0.49982530346E+02  0.49982530346E+02  0.00000000000E+00 0. -1.
         25    2    1    2    0    0 -0.41648549613E+02 -0.13578337547E+02  0.69001867589E+02  0.14942071351E+03  0.12508524678E+03 0.  0.
          5    1    3    3  502    0 -0.85406245141E+02 -0.20242469221E+01  0.33948024942E+02  0.92023176875E+02  0.41800000000E+01 0. -1.
         -5    1    3    3    0  502  0.43757695528E+02 -0.11554090625E+02  0.35053842647E+02  0.57397536640E+02  0.41800000000E+01 0. -1.
        -11    1    1    2    0    0 -0.11952323620E+02 -0.28422663738E+02  0.11395970102E+03  0.11805727131E+03  0.00000000000E+00 0.  1.
         11    1    1    2    0    0  0.53600873232E+02  0.42001001285E+02  0.14235802736E+03  0.15780667183E+03  0.00000000000E+00 0. -1.
</event>
<event>
 7    1  0.2530765E-009  0.8906345E+02  0.7561462E-02  0.1305136E+00
          2   -1    0    0  501    0  0.00000000000E+00  0.00000000000E+00  0.43038001424E+03  0.43038001424E+03  0.00000000000E+00 0. -1.
         -2   -1    0    0    0  501 -0.00000000000E+00 -0.00000000000E+00 -0.45247151593E+02  0.45247151593E+02  0.00000000000E+00 0.  1.
         25    2    1    2    0    0 -0.71106795002E+02 -0.15179314240E+02  0.29234359231E+03  0.32618807388E+03  0.12508915100E+03 0.  0.
          5    1    3    3  502    0 -0.20167289649E+02 -0.20604337874E+01  0.26673117443E+03  0.26753309473E+03  0.41800000000E+01 0.  1.
         -5    1    3    3    0  502 -0.50939505353E+02 -0.13118880453E+02  0.25612417881E+02  0.58654979155E+02  0.41800000000E+01 0.  1.
        -11    1    1    2    0    0 -0.13259879861E+02  0.15362718002E+02 -0.43735534143E+01  0.20759708278E+02  0.00000000000E+00 0.  1.
         11    1    1    2    0    0  0.84366674863E+02 -0.18340376214E+00  0.97162823752E+02  0.12867938368E+03  0.00000000000E+00 0. -1.
</event>
<event>
 7    1  0.2530765E-009  0.7757803E+02  0.7561462E-02  0.1336069E+00
          2   -1    0    0  501    0  0.00000000000E+00  0.00000000000E+00  0.20757961943E+03  0.20757961943E+03  0.00000000000E+00 0.  1.
         -2   -1    0    0    0  501 -0.00000000000E+00 -0.00000000000E+00 -0.61853909931E+02  0.61853909931E+02  0.00000000000E+00 0. -1.
         25    2    1    2    0    0 -0.29695037425E+02 -0.59223899883E+01  0.10143415636E+03  0.16387270703E+03  0.12509398899E+03 0.  0.
          5    1    3    3  502    0 -0.51156576421E+02  0.24245470594E+02  0.10258900332E+01  0.56774668698E+02  0.41800000000E+01 0.  1.
         -5    1    3    3    0  502  0.21461538996E+02 -0.30167860582E+02  0.10040826632E+03  0.10709803833E+03  0.41800000000E+01 0.  1.
        -11    1    1    2    0    0 -0.16315056898E+01  0.24604290143E+02 -0.19929264361E+02  0.31705022981E+02  0.00000000000E+00 0. -1.
         11    1    1    2    0    0  0.31326543114E+02 -0.18681900155E+02  0.64220817505E+02  0.73855799352E+02  0.00000000000E+00 0.  1.
</event>
<event>
 7    1  0.2530765E-009  0.8879350E+02  0.7561462E-02  0.1305800E+00
          1   -1    0    0  501    0  0.00000000000E+00  0.00000000000E+00  0.44489023719E+03  0.44489023719E+03  0.00000000000E+00 0. -1.
         -1   -1    0    0    0  501 -0.00000000000E+00 -0.00000000000E+00 -0.27465141001E+02  0.27465141001E+02  0.00000000000E+00 0.  1.
         25    2    1    2    0    0  0.74569198287E+01  0.20812074103E+02  0.23996516830E+03  0.27151381906E+03  0.12509086241E+03 0.  0.
          5    1    3    3  502    0 -0.38805378459E+02 -0.13497599170E+02  0.23580313402E+02  0.47555716384E+02  0.41800000000E+01 0.  1.
         -5    1    3    3    0  502  0.46262298288E+02  0.34309673273E+02  0.21638485490E+03  0.22395810267E+03  0.41800000000E+01 0.  1.
        -11    1    1    2    0    0 -0.41469574177E+02 -0.14608372061E+02  0.15109525187E+03  0.15736233747E+03  0.00000000000E+00 0. -1.
         11    1    1    2    0    0  0.34012654348E+02 -0.62037020413E+01  0.26364676015E+02  0.43479221661E+02  0.00000000000E+00 0.  1.
</event>
<event>
 7    1  0.2530765E-009  0.1108269E+03  0.7561462E-02  0.1259046E+00
          1   -1    0    0  501    0  0.00000000000E+00  0.00000000000E+00  0.24345018940E+03  0.24345018940E+03  0.00000000000E+00 0. -1.
         -1   -1    0    0    0  501 -0.00000000000E+00 -0.00000000000E+00 -0.89870032373E+02  0.89870032373E+02  0.00000000000E+00 0.  1.
         25    2    1    2    0    0  0.11561582937E+02 -0.88374653875E+02  0.10332388865E+03  0.18511500952E+03  0.12509193074E+03 0.  0.
          5    1    3    3  502    0 -0.39963049495E+02 -0.26125884467E+02  0.91565584218E+02  0.10335054803E+03  0.41800000000E+01 0.  1.
         -5    1    3    3    0  502  0.51524632431E+02 -0.62248769408E+02  0.11758304432E+02  0.81764461493E+02  0.41800000000E+01 0.  1.
        -11    1    1    2    0    0 -0.19600043263E+02  0.52303799926E+02 -0.27392344930E+02  0.62210849081E+02  0.00000000000E+00 0.  1.
         11    1    1    2    0    0  0.80384603261E+01  0.36070853949E+02  0.77648613310E+02  0.85994363176E+02  0.00000000000E+00 0. -1.
</event>
<event>
 7    1  0.2530765E-009  0.1970290E+03  0.7561462E-02  0.1152270E+00
          2   -1    0    0  501    0  0.00000000000E+00  0.00000000000E+00  0.23942151088E+03  0.23942151088E+03  0.00000000000E+00 0. -1.
         -2   -1    0    0    0  501 -0.00000000000E+00 -0.00000000000E+00 -0.19569520875E+03  0.19569520875E+03  0.00000000000E+00 0.  1.
         25    2    1    2    0    0  0.15221744553E+03  0.95293543145E+02  0.74135445140E+02  0.23107193477E+03  0.12508862747E+03 0.  0.
          5    1    3    3  502    0 -0.63802793374E+01  0.28028662358E+02 -0.19467296732E+02  0.34968012813E+02  0.41800000000E+01 0.  1.
         -5    1    3    3    0  502  0.15859772487E+03  0.67264880787E+02  0.93602741872E+02  0.19610392196E+03  0.41800000000E+01 0.  1.
        -11    1    1    2    0    0 -0.36885544893E+02 -0.62857140980E+02 -0.41257764713E+02  0.83748234270E+02  0.00000000000E+00 0.  1.
         11    1    1    2    0    0 -0.11533190064E+03 -0.32436402165E+02  0.10848621703E+02  0.12029655059E+03  0.00000000000E+00 0. -1.
</event>
<event>
 7    1  0.2530765E-009  0.2770958E+03  0.7561462E-02  0.1097286E+00
         -2   -1    0    0    0  501 -0.00000000000E+00  0.00000000000E+00  0.10390493571E+03  0.10390493571E+03  0.00000000000E+00 0.  1.
          2   -1    0    0  501    0  0.00000000000E+00 -0.00000000000E+00 -0.84633277846E+03  0.84633277846E+03  0.00000000000E+00 0. -1.
         25    2    1    2    0    0 -0.12347112363E+03  0.23769154075E+03 -0.48232820025E+03  0.56571303682E+03  0.12509340652E+03 0.  0.
          5    1    3    3  502    0 -0.11376581318E+03  0.18343759434E+03 -0.26678901527E+03  0.34319944979E+03  0.41800000000E+01 0.  1.
         -5    1    3    3    0  502 -0.97053104521E+01  0.54253946409E+02 -0.21553918498E+03  0.22251358703E+03  0.41800000000E+01 0.  1.
        -11    1    1    2    0    0 -0.94005180192E+01 -0.62205230829E+02 -0.63661106381E+02  0.89501938231E+02  0.00000000000E+00 0.  1.
         11    1    1    2    0    0  0.13287164165E+03 -0.17548630992E+03 -0.19643853612E+03  0.29502273912E+03  0.00000000000E+00 0. -1.
</event>
<event>
 7    1  0.2530765E-009  0.1141156E+03  0.7561462E-02  0.1253133E+00
          1   -1    0    0  501    0  0.00000000000E+00  0.00000000000E+00  0.15581867390E+02  0.15581867390E+02  0.00000000000E+00 0. -1.
         -1   -1    0    0    0  501 -0.00000000000E+00 -0.00000000000E+00 -0.10466620725E+04  0.10466620725E+04  0.00000000000E+00 0.  1.
         25    2    1    2    0    0 -0.48458052621E+02  0.44932020587E+02 -0.54784086635E+03  0.56581149207E+03  0.12508381341E+03 0.  0.
          5    1    3    3  502    0  0.27241821902E+02  0.35415939508E+02 -0.79612597289E+02  0.91389516242E+02  0.41800000000E+01 0.  1.
         -5    1    3    3    0  502 -0.75699874522E+02  0.95160810789E+01 -0.46822826906E+03  0.47442197583E+03  0.41800000000E+01 0.  1.
        -11    1    1    2    0    0  0.69540226696E+02 -0.49518845468E+02 -0.43886378194E+03  0.44708989956E+03  0.00000000000E+00 0.  1.
         11    1    1    2    0    0 -0.21082174076E+02  0.45868248808E+01 -0.44375556835E+02  0.49342548279E+02  0.00000000000E+00 0. -1.
</event>
<event>
 7    1  0.2530765E-009  0.7947422E+02  0.7561462E-02  0.1330550E+00
         -2   -1    0    0    0  501 -0.00000000000E+00  0.00000000000E+00  0.48141677561E+02  0.48141677561E+02  0.00000000000E+00 0.  1.
          2   -1    0    0  501    0  0.00000000000E+00 -0.00000000000E+00 -0.29493498568E+03  0.29493498568E+03  0.00000000000E+00 0. -1.
         25    2    1    2    0    0  0.18929588660E+02  0.22074558627E+01 -0.20649292332E+03  0.24218159174E+03  0.12509753718E+03 0.  0.
          5    1    3    3  502    0 -0.19041430879E+02 -0.16053707272E+02  0.56301417941E+01  0.25874089428E+02  0.41800000000E+01 0. -1.
         -5    1    3    3    0  502  0.37971019539E+02  0.18261163135E+02 -0.21212306511E+03  0.21630750231E+03  0.41800000000E+01 0. -1.
        -11    1    1    2    0    0 -0.35669768974E+02 -0.37829426618E+02 -0.30702221951E+02  0.60382318353E+02  0.00000000000E+00 0.  1.
         11    1    1    2    0    0  0.16740180314E+02  0.35621970755E+02 -0.95981628462E+01  0.40512753146E+02  0.00000000000E+00 0. -1.
</event>
<event>
 7    1  0.2530765E-009  0.6139330E+02  0.7561462E-02  0.1392076E+00
         -1   -1    0    0    0  501 -0.00000000000E+00  0.00000000000E+00  0.26510209999E+02  0.26510209999E+02  0.00000000000E+00 0.  1.
          1   -1    0    0  501    0  0.00000000000E+00 -0.00000000000E+00 -0.47084796687E+03  0.47084796687E+03  0.00000000000E+00 0. -1.
         25    2    1    2    0    0  0.16218882608E+02  0.13491305353E+02 -0.22658051453E+03  0.25967602680E+03  0.12509133406E+03 0.  0.
          5    1    3    3  502    0  0.12528665183E+02 -0.18163887381E+02 -0.22642207090E+03  0.22753312033E+03  0.41800000000E+01 0.  1.
         -5    1    3    3    0  502  0.36902174254E+01  0.31655192734E+02 -0.15844362683E+00  0.32142906466E+02  0.41800000000E+01 0.  1.
        -11    1    1    2    0    0 -0.18065275207E+02  0.24338938765E+02 -0.19962654261E+02  0.36293879287E+02  0.00000000000E+00 0.  1.
         11    1    1    2    0    0  0.18463925990E+01 -0.37830244119E+02 -0.19779458808E+03  0.20138827079E+03  0.00000000000E+00 0. -1.
</event>
<event>
 7    1  0.2530765E-009  0.9864629E+02  0.7561462E-02  0.1283169E+00
         -2   -1    0    0    0  501 -0.00000000000E+00  0.00000000000E+00  0.32669426641E+02  0.32669426641E+02  0.00000000000E+00 0.  1.
          2   -1    0    0  501    0  0.00000000000E+00 -0.00000000000E+00 -0.40178016242E+03  0.40178016242E+03  0.00000000000E+00 0. -1.
         25    2    1    2    0    0  0.55086508102E+01  0.51853643431E+01 -0.27718349858E+03  0.30419650923E+03  0.12509033180E+03 0.  0.
          5    1    3    3  502    0  0.21181700373E+02 -0.53479868323E+02 -0.18458221212E+03  0.19338259016E+03  0.41800000000E+01 0.  1.
         -5    1    3    3    0  502 -0.15673049563E+02  0.58665232666E+02 -0.92601286459E+02  0.11081391907E+03  0.41800000000E+01 0.  1.
        -11    1    1    2    0    0  0.36536031485E+02 -0.26088981626E+01 -0.77512508890E+02  0.85731423531E+02  0.00000000000E+00 0. -1.
         11    1    1    2    0    0 -0.42044682295E+02 -0.25764661805E+01 -0.14414728314E+02  0.44521656300E+02  0.00000000000E+00 0.  1.
</event>
<event>
 7    1  0.2530765E-009  0.9229083E+02  0.7561462E-02  0.1297397E+00
          2   -1    0    0  501    0  0.00000000000E+00  0.00000000000E+00  0.12146881016E+03  0.12146881016E+03  0.00000000000E+00 0. -1.
         -2   -1    0    0    0  501 -0.00000000000E+00 -0.00000000000E+00 -0.10236915698E+03  0.10236915698E+03  0.00000000000E+00 0.  1.
         25    2    1    2    0    0 -0.15467008069E+02  0.15693865204E+02 -0.91030573134E+01  0.12733949602E+03  0.12508779257E+03 0.  0.
          5    1    3    3  502    0 -0.48739337868E+02  0.29486220332E+02  0.37473350130E+02  0.68313136476E+02  0.41800000000E+01 0. -1.
         -5    1    3    3    0  502  0.33272329799E+02 -0.13792355128E+02 -0.46576407443E+02  0.59026359540E+02  0.41800000000E+01 0. -1.
        -11    1    1    2    0    0 -0.34443431090E+02  0.88839196797E+01  0.38852037350E+01  0.35782241157E+02  0.00000000000E+00 0. -1.
         11    1    1    2    0    0  0.49910439159E+02 -0.24577784884E+02  0.24317506759E+02  0.60716229971E+02  0.00000000000E+00 0.  1.
</event>
<event>
 7    1  0.2530765E-009  0.1151229E+03  0.7561462E-02  0.1251367E+00
         -3   -1    0    0    0  501 -0.00000000000E+00  0.00000000000E+00  0.20141483638E+03  0.20141483638E+03  0.00000000000E+00 0.  1.
          3   -1    0    0  501    0  0.00000000000E+00 -0.00000000000E+00 -0.70106690012E+02  0.70106690012E+02  0.00000000000E+00 0. -1.
         25    2    1    2    0    0  0.27816594801E+01  0.35999300974E+02  0.99970383444E+02  0.16414947225E+03  0.12508910574E+03 0.  0.
          5    1    3    3  502    0  0.61269351270E+02  0.76780110428E+00  0.53501279375E+02  0.81451717099E+02  0.41800000000E+01 0.  1.
         -5    1    3    3    0  502 -0.58487691790E+02  0.35231499870E+02  0.46469104069E+02  0.82697755151E+02  0.41800000000E+01 0.  1.
        -11    1    1    2    0    0 -0.46238200247E+02 -0.39130839068E+01  0.25739750228E+02  0.53064282993E+02  0.00000000000E+00 0.  1.
         11    1    1    2    0    0  0.43456540767E+02 -0.32086217068E+02  0.55980126984E+01  0.54307771151E+02  0.00000000000E+00 0. -1.
</event>
<event>
 7    1  0.2530765E-009  0.1139144E+03  0.7561462E-02  0.1253488E+00
          2   -1    0    0  501    0  0.00000000000E+00  0.00000000000E+00  0.25079258693E+03  0.25079258693E+03  0.00000000000E+00 0. -1.
         -2   -1    0    0    0  501 -0.00000000000E+00 -0.00000000000E+00 -0.61521895708E+02  0.61521895708E+02  0.00000000000E+00 0.  1.
         25    2    1    2    0    0 -0.56964936160E+02 -0.16028732329E+02  0.12911769438E+03  0.18926514107E+03  0.12509192783E+03 0.  0.
          5    1    3    3  502    0 -0.94461814567E+02 -0.93363169546E+01  0.66933118095E+02  0.11622269969E+03  0.41800000000E+01 0. -1.
         -5    1    3    3    0  502  0.37496878408E+02 -0.66924153744E+01  0.62184576287E+02  0.73042441374E+02  0.41800000000E+01 0. -1.
        -11    1    1    2    0    0 -0.65498106651E+01  0.28949295986E+02 -0.61685797984E+01  0.30315229416E+02  0.00000000000E+00 0.  1.
         11    1    1    2    0    0  0.63514746825E+02 -0.12920563657E+02  0.66321576637E+02  0.92734112154E+02  0.00000000000E+00 0. -1.
</event>
<event>
 7    1  0.2530765E-009  0.3221513E+03  0.7561462E-02  0.1074663E+00
         -1   -1    0    0    0  501 -0.00000000000E+00  0.00000000000E+00  0.14770295484E+03  0.14770295484E+03  0.00000000000E+00 0.  1.
          1   -1    0    0  501    0  0.00000000000E+00 -0.00000000000E+00 -0.16329847324E+04  0.16329847324E+04  0.00000000000E+00 0. -1.
         25    2    1    2    0    0  0.20375255559E+03  0.23556728389E+03 -0.88509828010E+02  0.34711460883E+03  0.12509001902E+03 0.  0.
          5    1    3    3  502    0  0.16502631571E+03  0.11001585589E+03 -0.84422288290E+02  0.21559630930E+03  0.41800000000E+01 0. -1.
         -5    1    3    3    0  502  0.38726239874E+02  0.12555142801E+03 -0.40875397205E+01  0.13151829953E+03  0.41800000000E+01 0. -1.
        -11    1    1    2    0    0 -0.63966087954E+02 -0.10636119230E+03 -0.40092616255E+03  0.41969769054E+03  0.00000000000E+00 0. -1.
         11    1    1    2    0    0 -0.13978646763E+03 -0.12920609160E+03 -0.99584578704E+03  0.10138753879E+04  0.00000000000E+00 0.  1.
</event>
<event>
 7    1  0.2530765E-009  0.1188343E+03  0.7561462E-02  0.1245033E+00
          2   -1    0    0  501    0  0.00000000000E+00  0.00000000000E+00  0.12009495757E+04  0.12009495757E+04  0.00000000000E+00 0. -1.
         -2   -1    0    0    0  501 -0.00000000000E+00 -0.00000000000E+00 -0.12747822162E+02  0.12747822162E+02  0.00000000000E+00 0.  1.
         25    2    1    2    0    0  0.14372765226E+02  0.48613302943E+02  0.82852468705E+03  0.83944592486E+03  0.12508586692E+03 0.  0.
          5    1    3    3  502    0  0.68616946578E+02  0.38896041835E+02  0.44415582067E+03  0.45112421002E+03  0.41800000000E+01 0. -1.
         -5    1    3    3    0  502 -0.54244181352E+02  0.97172611087E+01  0.38436886638E+03  0.38832171484E+03  0.41800000000E+01 0. -1.
        -11    1    1    2    0    0 -0.47457500443E+02 -0.36554593798E+01  0.16767412237E+03  0.17429913380E+03  0.00000000000E+00 0. -1.
         11    1    1    2    0    0  0.33084735217E+02 -0.44957843563E+02  0.19200294408E+03  0.19995233917E+03  0.00000000000E+00 0.  1.
</event>
<event>
 7    1  0.2530765E-009  0.9681481E+02  0.7561462E-02  0.1287140E+00
         -2   -1    0    0    0  501 -0.00000000000E+00  0.00000000000E+00  0.93235038555E+02  0.93235038555E+02  0.00000000000E+00 0.  1.
          2   -1    0    0  501    0  0.00000000000E+00 -0.00000000000E+00 -0.18599293998E+03  0.18599293998E+03  0.00000000000E+00 0. -1.
         25    2    1    2    0    0  0.38274080817E+02 -0.18208740004E+01 -0.11553443539E+03  0.17454588434E+03  0.12509931708E+03 0.  0.
          5    1    3    3  502    0 -0.13685179363E+02 -0.39877369893E+02 -0.99350358440E+02  0.10800673537E+03  0.41800000000E+01 0.  1.
         -5    1    3    3    0  502  0.51959260179E+02  0.38056495893E+02 -0.16184076953E+02  0.66539148964E+02  0.41800000000E+01 0.  1.
        -11    1    1    2    0    0 -0.29711327357E+02 -0.36723605214E+02 -0.15474995762E+02  0.49707762443E+02  0.00000000000E+00 0. -1.
         11    1    1    2    0    0 -0.85627534593E+01  0.38544479214E+02  0.38251529733E+02  0.54974331752E+02  0.00000000000E+00 0.  1.
</event>
<event>
 7    1  0.2530765E-009  0.9518789E+02  0.7561462E-02  0.1290753E+00
         -2   -1    0    0    0  501 -0.00000000000E+00  0.00000000000E+00  0.18242510759E+02  0.18242510759E+02  0.00000000000E+00 0. -1.
          2   -1    0    0  501    0  0.00000000000E+00 -0.00000000000E+00 -0.94453077021E+03  0.94453077021E+03  0.00000000000E+00 0.  1.
         25    2    1    2    0    0 -0.72646498954E+01 -0.32421487036E+02 -0.74800457244E+03  0.75911945236E+03  0.12509026581E+03 0.  0.
          5    1    3    3  502    0 -0.55915456346E+02  0.17187133515E+02 -0.29182469410E+03  0.29765930240E+03  0.41800000000E+01 0. -1.
         -5    1    3    3    0  502  0.48650806450E+02 -0.49608620551E+02 -0.45617987834E+03  0.46146014996E+03  0.41800000000E+01 0. -1.
        -11    1    1    2    0    0 -0.20551045196E+02  0.26749327239E+02 -0.17106926616E+03  0.17436331550E+03  0.00000000000E+00 0.  1.
         11    1    1    2    0    0  0.27815695091E+02  0.56721597969E+01 -0.72144208505E+01  0.29290513112E+02  0.00000000000E+00 0. -1.
</event>
<event>
 7    1  0.2530765E-009  0.1419907E+03  0.7561462E-02  0.1210675E+00
         -2   -1    0    0    0  501 -0.00000000000E+00  0.00000000000E+00  0.14394259267E+03  0.14394259267E+03  0.00000000000E+00 0.  1.
          2   -1    0    0  501    0  0.00000000000E+00 -0.00000000000E+00 -0.30568150743E+03  0.30568150743E+03  0.00000000000E+00 0. -1.
         25    2    1    2    0    0 -0.10682340845E+03  0.63154823451E+02  0.54829371111E+02  0.18453391312E+03  0.12508690114E+03 0.  0.
          5    1    3    3  502    0 -0.95130314228E+02  0.18930107855E+02 -0.17696370180E+02  0.98685153828E+02  0.41800000000E+01 0.  1.
         -5    1    3    3    0  502 -0.11693094221E+02  0.44224715597E+02  0.72525741292E+02  0.85848759292E+02  0.41800000000E+01 0.  1.
        -11    1    1    2    0    0  0.13370459958E+02 -0.43440000920E+02 -0.27118036764E+02  0.52926277003E+02  0.00000000000E+00 0.  1.
         11    1    1    2    0    0  0.93452948491E+02 -0.19714822531E+02 -0.18945024910E+03  0.21216390997E+03  0.00000000000E+00 0. -1.
</event>
<event>
 7    1  0.2530765E-009  0.7137119E+02  0.7561462E-02  0.1355491E+00
         -2   -1    0    0    0  501 -0.00000000000E+00  0.00000000000E+00  0.66777942524E+03  0.66777942524E+03  0.00000000000E+00 0.  1.
          2   -1    0    0  501    0  0.00000000000E+00 -0.00000000000E+00 -0.26862955753E+02  0.26862955753E+02  0.00000000000E+00 0. -1.
         25    2    1    2    0    0 -0.44666436043E+02 -0.47863809345E+01  0.48406132065E+03  0.50197775514E+03  0.12509318350E+03 0.  0.
          5    1    3    3  502    0  0.76573778345E+01  0.38163101375E+01 -0.44982470342E+01  0.10531205285E+02  0.41800000000E+01 0.  1.
         -5    1    3    3    0  502 -0.52323813878E+02 -0.86026910721E+01  0.48855956768E+03  0.49144654986E+03  0.41800000000E+01 0.  1.
        -11    1    1    2    0    0 -0.13250377359E+02  0.16272181569E+02 -0.39578686867E+01  0.21354650962E+02  0.00000000000E+00 0. -1.
         11    1    1    2    0    0  0.57916813402E+02 -0.11485800634E+02  0.16081301753E+03  0.17130997489E+03  0.00000000000E+00 0.  1.
</event>
<event>
 7    1  0.2530765E-009  0.3264305E+03  0.7561462E-02  0.1072727E+00
          2   -1    0    0  501    0  0.00000000000E+00  0.00000000000E+00  0.12325572944E+04  0.12325572944E+04  0.00000000000E+00 0.  1.
         -2   -1    0    0    0  501 -0.00000000000E+00 -0.00000000000E+00 -0.89280271717E+02  0.89280271717E+02  0.00000000000E+00 0. -1.
         25    2    1    2    0    0 -0.15559140145E+03  0.27149979701E+03  0.55759784120E+03  0.65152471817E+03  0.12509309291E+03 0.  0.
          5    1    3    3  502    0 -0.75372526362E+02  0.27899558208E+02  0.13027601228E+03  0.15312973210E+03  0.41800000000E+01 0.  1.
         -5    1    3    3    0  502 -0.80218875084E+02  0.24360023880E+03  0.42732182891E+03  0.49839498606E+03  0.41800000000E+01 0.  1.
        -11    1    1    2    0    0  0.35324356766E+01 -0.31942293093E+02  0.12667851668E+03  0.13069137224E+03  0.00000000000E+00 0.  1.
         11    1    1    2    0    0  0.15205896577E+03 -0.23955750392E+03  0.45900066482E+03  0.53962147572E+03  0.00000000000E+00 0. -1.
</event>
<event>
 7    1  0.2530765E-009  0.1782808E+03  0.7561462E-02  0.1169477E+00
         -2   -1    0    0    0  501 -0.00000000000E+00  0.00000000000E+00  0.13468624781E+03  0.13468624781E+03  0.00000000000E+00 0.  1.
          2   -1    0    0  501    0  0.00000000000E+00 -0.00000000000E+00 -0.30442483212E+03  0.30442483212E+03  0.00000000000E+00 0. -1.
         25    2    1    2    0    0 -0.64015010849E+01 -0.14575247410E+03 -0.18481724865E+03  0.26662079107E+03  0.12507784740E+03 0.  0.
          5    1    3    3  502    0 -0.30884240365E+02 -0.15588886498E+03 -0.17856194714E+03  0.23907533519E+03  0.41800000000E+01 0.  1.
         -5    1    3    3    0  502  0.24482739280E+02  0.10136390883E+02 -0.62553015115E+01  0.27545455882E+02  0.41800000000E+01 0.  1.
        -11    1    1    2    0    0 -0.40808042763E+02  0.80123796873E+02 -0.16524062292E+01  0.89932472588E+02  0.00000000000E+00 0.  1.
         11    1    1    2    0    0  0.47209543848E+02  0.65628677227E+02  0.16731070564E+02  0.82557816269E+02  0.00000000000E+00 0. -1.
</event>
<event>
 7    1  0.2530765E-009  0.1352953E+03  0.7561462E-02  0.1219803E+00
          2   -1    0    0  501    0  0.00000000000E+00  0.00000000000E+00  0.18983754405E+04  0.18983754405E+04  0.00000000000E+00 0.  1.
         -2   -1    0    0    0  501 -0.00000000000E+00 -0.00000000000E+00 -0.12586363417E+02  0.12586363417E+02  0.00000000000E+00 0. -1.
         25    2    1    2    0    0  0.79725201311E+02  0.64093605195E+02  0.12661697840E+04  0.12764393004E+04  0.12508903925E+03 0.  0.
          5    1    3    3  502    0  0.11164393458E+03  0.51310635095E+02  0.85209494349E+03  0.86091835532E+03  0.41800000000E+01 0. -1.
         -5    1    3    3    0  502 -0.31918733271E+02  0.12782970100E+02  0.41407484054E+03  0.41552094511E+03  0.41800000000E+01 0. -1.
        -11    1    1    2    0    0  0.63448028392E+01 -0.82737600104E+01  0.52992752861E+01  0.11695894422E+02  0.00000000000E+00 0. -1.
         11    1    1    2    0    0 -0.86070004151E+02 -0.55819845185E+02  0.61432001779E+03  0.62282660909E+03  0.00000000000E+00 0.  1.
</event>
<event>
 7    1  0.2530765E-009  0.1379892E+03  0.7561462E-02  0.1216061E+00
         -2   -1    0    0    0  501 -0.00000000000E+00  0.00000000000E+00  0.50848631761E+02  0.50848631761E+02  0.00000000000E+00 0.  1.
          2   -1    0    0  501    0  0.00000000000E+00 -0.00000000000E+00 -0.40798047564E+03  0.40798047564E+03  0.00000000000E+00 0. -1.
         25    2    1    2    0    0  0.72233819564E+02  0.60760643184E+02 -0.21946773723E+03  0.26967327697E+03  0.12509199886E+03 0.  0.
          5    1    3    3  502    0  0.83686701051E+02 -0.88134657769E+01 -0.13957845281E+03  0.16303606350E+03  0.41800000000E+01 0.  1.
         -5    1    3    3    0  502 -0.11452881487E+02  0.69574108961E+02 -0.79889284417E+02  0.10663721347E+03  0.41800000000E+01 0.  1.
        -11    1    1    2    0    0 -0.45265592481E+02  0.91304686246E+01 -0.21515035935E+02  0.50943459749E+02  0.00000000000E+00 0.  1.
         11    1    1    2    0    0 -0.26968227083E+02 -0.69891111808E+02 -0.11614907071E+03  0.13821237068E+03  0.00000000000E+00 0. -1.
</event>
<event>
 7    1  0.2530765E-009  0.2270108E+03  0.7561462E-02  0.1128762E+00
          1   -1    0    0  501    0  0.00000000000E+00  0.00000000000E+00  0.16006139525E+03  0.16006139525E+03  0.00000000000E+00 0. -1.
         -1   -1    0    0    0  501 -0.00000000000E+00 -0.00000000000E+00 -0.40970291318E+03  0.40970291318E+03  0.00000000000E+00 0.  1.
         25    2    1    2    0    0  0.17308714313E+03  0.13900727967E+03 -0.52699236785E+02  0.26020398541E+03  0.12508685601E+03 0.  0.
          5    1    3    3  502    0  0.42241932436E+02  0.59135858877E+02 -0.75831040315E+02  0.10511541151E+03  0.41800000000E+01 0. -1.
         -5    1    3    3    0  502  0.13084521069E+03  0.79871420797E+02  0.23131803529E+02  0.15508857390E+03  0.41800000000E+01 0. -1.
        -11    1    1    2    0    0 -0.82519461623E+02 -0.34117115387E+02 -0.33732730457E+02  0.95453319550E+02  0.00000000000E+00 0. -1.
         11    1    1    2    0    0 -0.90567681502E+02 -0.10489016429E+03 -0.16320955069E+03  0.21410700347E+03  0.00000000000E+00 0.  1.
</event>
<event>
 7    1  0.2530765E-009  0.1011591E+03  0.7561462E-02  0.1277877E+00
         -1   -1    0    0    0  501 -0.00000000000E+00  0.00000000000E+00  0.18422901368E+03  0.18422901368E+03  0.00000000000E+00 0.  1.
          1   -1    0    0  501    0  0.00000000000E+00 -0.00000000000E+00 -0.93436155308E+02  0.93436155308E+02  0.00000000000E+00 0. -1.
         25    2    1    2    0    0  0.15556976185E+02 -0.29814452165E+02  0.75694305575E+01  0.12977166443E+03  0.12510982193E+03 0.  0.
          5    1    3    3  502    0  0.36924051057E+02  0.38556172525E+02 -0.13047225751E+02  0.55115029584E+02  0.41800000000E+01 0.  1.
         -5    1    3    3    0  502 -0.21367074872E+02 -0.68370624690E+02  0.20616656308E+02  0.74656634845E+02  0.41800000000E+01 0.  1.
        -11    1    1    2    0    0  0.27885428232E+01  0.49805335322E+02  0.10291565250E+03  0.11436773551E+03  0.00000000000E+00 0.  1.
         11    1    1    2    0    0 -0.18345519008E+02 -0.19990883156E+02 -0.19692224684E+02  0.33525769045E+02  0.00000000000E+00 0. -1.
</event>
<event>
 7    1  0.2530765E-009  0.1444782E+03  0.7561462E-02  0.1207427E+00
         -1   -1    0    0    0  501 -0.00000000000E+00  0.00000000000E+00  0.71202440046E+02  0.71202440046E+02  0.00000000000E+00 0.  1.
          1   -1    0    0  501    0  0.00000000000E+00 -0.00000000000E+00 -0.38519903751E+03  0.38519903751E+03  0.00000000000E+00 0. -1.
         25    2    1    2    0    0 -0.66495787572E+02  0.84794828681E+02 -0.24327772347E+03  0.29401121643E+03  0.12508673757E+03 0.  0.
          5    1    3    3  502    0 -0.21983897525E+01  0.82847771274E+02 -0.19955147683E+03  0.21611767726E+03  0.41800000000E+01 0.  1.
         -5    1    3    3    0  502 -0.64297397819E+02  0.19470574076E+01 -0.43726246641E+02  0.77893539168E+02  0.41800000000E+01 0.  1.
        -11    1    1    2    0    0 -0.16377770277E+02  0.70267542136E+01  0.34712097068E+01  0.18156429463E+02  0.00000000000E+00 0.  1.
         11    1    1    2    0    0  0.82873557848E+02 -0.91821582895E+02 -0.74190083707E+02  0.14423383166E+03  0.00000000000E+00 0. -1.
</event>
<event>
 7    1  0.2530765E-009  0.7740556E+02  0.7561462E-02  0.1336580E+00
         -1   -1    0    0    0  501 -0.00000000000E+00  0.00000000000E+00  0.19192565484E+03  0.19192565484E+03  0.00000000000E+00 0.  1.
          1   -1    0    0  501    0  0.00000000000E+00 -0.00000000000E+00 -0.74674899207E+02  0.74674899207E+02  0.00000000000E+00 0. -1.
         25    2    1    2    0    0  0.25034195877E+02 -0.27511508449E+02  0.27776468099E+02  0.13342469920E+03  0.12508806544E+03 0.  0.
          5    1    3    3  502    0  0.12347112562E+02  0.40184319690E+02 -0.22675146980E+02  0.47946485045E+02  0.41800000000E+01 0.  1.
         -5    1    3    3    0  502  0.12687083315E+02 -0.67695828140E+02  0.50451615079E+02  0.85478214152E+02  0.41800000000E+01 0.  1.
        -11    1    1    2    0    0 -0.19862857003E+02  0.50221087755E+01  0.10394024863E+03  0.10594021875E+03  0.00000000000E+00 0.  1.
         11    1    1    2    0    0 -0.51713388745E+01  0.22489399674E+02 -0.14465961090E+02  0.27235636099E+02  0.00000000000E+00 0. -1.
</event>
<event>
 7    1  0.2530765E-009  0.2799194E+03  0.7561462E-02  0.1095733E+00
          1   -1    0    0  501    0  0.00000000000E+00  0.00000000000E+00  0.86110949262E+03  0.86110949262E+03  0.00000000000E+00 0. -1.
         -1   -1    0    0    0  501 -0.00000000000E+00 -0.00000000000E+00 -0.98102537946E+02  0.98102537946E+02  0.00000000000E+00 0.  1.
         25    2    1    2    0    0 -0.19816489317E+03 -0.17814607949E+03  0.44845249978E+03  0.53643510356E+03  0.12509046828E+03 0.  0.
          5    1    3    3  502    0 -0.13148983674E+03 -0.45221757392E+02  0.16105608541E+03  0.21281710353E+03  0.41800000000E+01 0. -1.
         -5    1    3    3    0  502 -0.66675056437E+02 -0.13292432209E+03  0.28739641437E+03  0.32361800004E+03  0.41800000000E+01 0. -1.
        -11    1    1    2    0    0  0.91541788715E+02  0.46885180226E+02  0.66197044034E+02  0.12231176495E+03  0.00000000000E+00 0. -1.
         11    1    1    2    0    0  0.10662310446E+03  0.13126089926E+03  0.24835741087E+03  0.30046516206E+03  0.00000000000E+00 0.  1.
</event>
<event>
 7    1  0.2530765E-009  0.7864083E+02  0.7561462E-02  0.1332953E+00
         -2   -1    0    0    0  501 -0.00000000000E+00  0.00000000000E+00  0.60494220851E+02  0.60494220851E+02  0.00000000000E+00 0.  1.
          2   -1    0    0  501    0  0.00000000000E+00 -0.00000000000E+00 -0.22567376404E+03  0.22567376404E+03  0.00000000000E+00 0. -1.
         25    2    1    2    0    0 -0.51147716936E+01  0.16963997827E+02 -0.13794608124E+03  0.18706022061E+03  0.12509383155E+03 0.  0.
          5    1    3    3  502    0 -0.45358674171E+01  0.47089279777E+02 -0.14767439433E+03  0.15512309146E+03  0.41800000000E+01 0.  1.
         -5    1    3    3    0  502 -0.57890427652E+00 -0.30125281950E+02  0.97283130881E+01  0.31937129149E+02  0.41800000000E+01 0.  1.
        -11    1    1    2    0    0 -0.17271936221E+02 -0.42222916288E+02  0.12180481606E+02  0.47217142786E+02  0.00000000000E+00 0. -1.
         11    1    1    2    0    0  0.22386707915E+02  0.25258918461E+02 -0.39413943555E+02  0.51890621499E+02  0.00000000000E+00 0.  1.
</event>
<event>
 7    1  0.2530765E-009  0.1529697E+03  0.7561462E-02  0.1196871E+00
          1   -1    0    0  501    0  0.00000000000E+00  0.00000000000E+00  0.20873820478E+03  0.20873820478E+03  0.00000000000E+00 0. -1.
         -1   -1    0    0    0  501 -0.00000000000E+00 -0.00000000000E+00 -0.12711430945E+03  0.12711430945E+03  0.00000000000E+00 0.  1.
         25    2    1    2    0    0 -0.43850342507E+02 -0.10257927369E+03  0.97494552868E+02  0.19390333717E+03  0.12509179190E+03 0.  0.
          5    1    3    3  502    0 -0.79001653026E+02 -0.26695061053E+02  0.55212966548E+02  0.10009910859E+03  0.41800000000E+01 0. -1.
         -5    1    3    3    0  502  0.35151310518E+02 -0.75884212637E+02  0.42281586320E+02  0.93804228585E+02  0.41800000000E+01 0. -1.
        -11    1    1    2    0    0  0.31417359802E+02 -0.37644016939E+01  0.71371229691E+01  0.32437011905E+02  0.00000000000E+00 0. -1.
         11    1    1    2    0    0  0.12432982705E+02  0.10634367538E+03 -0.23007780508E+02  0.10951216516E+03  0.00000000000E+00 0.  1.
</event>
<event>
 7    1  0.2530765E-009  0.1005371E+03  0.7561462E-02  0.1279171E+00
         -2   -1    0    0    0  501 -0.00000000000E+00  0.00000000000E+00  0.17151025512E+03  0.17151025512E+03  0.00000000000E+00 0. -1.
          2   -1    0    0  501    0  0.00000000000E+00 -0.00000000000E+00 -0.81386683338E+02  0.81386683338E+02  0.00000000000E+00 0.  1.
         25    2    1    2    0    0 -0.20825873989E+02 -0.18122750874E+02  0.93947973293E+01  0.12844108513E+03  0.12508676591E+03 0.  0.
          5    1    3    3  502    0  0.51561921547E+02  0.34850226294E+01 -0.22169842887E+01  0.51895708451E+02  0.41800000000E+01 0.  1.
         -5    1    3    3    0  502 -0.72387795536E+02 -0.21607773504E+02  0.11611781618E+02  0.76545376678E+02  0.41800000000E+01 0.  1.
        -11    1    1    2    0    0 -0.98327442781E+01 -0.21397345786E+02 -0.60330109636E+01  0.24308979575E+02  0.00000000000E+00 0.  1.
         11    1    1    2    0    0  0.30658618267E+02  0.39520096660E+02  0.86761785416E+02  0.10014687375E+03  0.00000000000E+00 0. -1.
</event>
<event>
 7    1  0.2530765E-009  0.9968720E+02  0.7561462E-02  0.1280955E+00
         -1   -1    0    0    0  501 -0.00000000000E+00  0.00000000000E+00  0.63642852541E+02  0.63642852541E+02  0.00000000000E+00 0.  1.
          1   -1    0    0  501    0  0.00000000000E+00 -0.00000000000E+00 -0.23391220816E+03  0.23391220816E+03  0.00000000000E+00 0. -1.
         25    2    1    2    0    0 -0.36018687039E+02 -0.41566191339E+02 -0.10094694501E+03  0.16988757169E+03  0.12508559960E+03 0.  0.
          5    1    3    3  502    0 -0.76387340682E+02 -0.12380560062E+02 -0.89900933743E+02  0.11869268879E+03  0.41800000000E+01 0. -1.
         -5    1    3    3    0  502  0.40368653644E+02 -0.29185631277E+02 -0.11046011270E+02  0.51194882899E+02  0.41800000000E+01 0. -1.
        -11    1    1    2    0    0  0.20541287106E+02 -0.63774013975E+01  0.17204137634E+02  0.27542659209E+02  0.00000000000E+00 0.  1.
         11    1    1    2    0    0  0.15477399932E+02  0.47943592737E+02 -0.86526548236E+02  0.10012482980E+03  0.00000000000E+00 0. -1.
</event>
<event>
 7    1  0.2530765E-009  0.1199019E+03  0.7561462E-02  0.1243259E+00
         -2   -1    0    0    0  501 -0.00000000000E+00  0.00000000000E+00  0.25546687084E+02  0.25546687084E+02  0.00000000000E+00 0.  1.
          2   -1    0    0  501    0  0.00000000000E+00 -0.00000000000E+00 -0.73473784010E+03  0.73473784010E+03  0.00000000000E+00 0. -1.
         25    2    1    2    0    0  0.89141112259E+02 -0.89159105987E+01 -0.44744419480E+03  0.47315917993E+03  0.12509065008E+03 0.  0.
          5    1    3    3  502    0  0.66252165066E+02 -0.57630051545E+02 -0.17998977608E+03  0.20031066899E+03  0.41800000000E+01 0.  1.
         -5    1    3    3    0  502  0.22888947193E+02  0.48714140946E+02 -0.26745441872E+03  0.27284851095E+03  0.41800000000E+01 0.  1.
        -11    1    1    2    0    0 -0.87704213492E+01 -0.11997968418E+02 -0.27168944907E+01  0.15108045952E+02  0.00000000000E+00 0.  1.
         11    1    1    2    0    0 -0.80370690910E+02  0.20913879017E+02 -0.25903006373E+03  0.27201730130E+03  0.00000000000E+00 0. -1.
</event>
<event>
 7    1  0.2530765E-009  0.7635303E+02  0.7561462E-02  0.1339732E+00
         -1   -1    0    0    0  501 -0.00000000000E+00  0.00000000000E+00  0.30902511612E+03  0.30902511612E+03  0.00000000000E+00 0.  1.
          1   -1    0    0  501    0  0.00000000000E+00 -0.00000000000E+00 -0.51809912308E+02  0.51809912308E+02  0.00000000000E+00 0. -1.
         25    2    1    2    0    0  0.97328665807E+01 -0.46241420284E+02  0.20833246172E+03  0.24755275141E+03  0.12508777911E+03 0.  0.
          5    1    3    3  502    0 -0.54553240388E+01  0.28297601353E+02  0.38931518505E+01  0.29379309625E+02  0.41800000000E+01 0.  1.
         -5    1    3    3    0  502  0.15188190620E+02 -0.74539021636E+02  0.20443930986E+03  0.21817344178E+03  0.41800000000E+01 0.  1.
        -11    1    1    2    0    0 -0.77967059973E+01  0.28284731936E+02 -0.24180498781E+02  0.38019879095E+02  0.00000000000E+00 0. -1.
         11    1    1    2    0    0 -0.19361605834E+01  0.17956688348E+02  0.73063240876E+02  0.75262397926E+02  0.00000000000E+00 0.  1.
</event>
<event>
 7    1  0.2530765E-009  0.1324396E+03  0.7561462E-02  0.1223880E+00
          1   -1    0    0  501    0  0.00000000000E+00  0.00000000000E+00  0.22579653305E+03  0.22579653305E+03  0.00000000000E+00 0. -1.
         -1   -1    0    0    0  501 -0.00000000000E+00 -0.00000000000E+00 -0.13024323332E+03  0.13024323332E+03  0.00000000000E+00 0.  1.
         25    2    1    2    0    0  0.10910395260E+03 -0.43320461534E+02 -0.13752471653E+02  0.17210142996E+03  0.12509770924E+03 0.  0.
          5    1    3    3  502    0  0.12439694592E+03 -0.37089282261E+02 -0.44218240604E+02  0.13719672086E+03  0.41800000000E+01 0. -1.
         -5    1    3    3    0  502 -0.15292993314E+02 -0.62311792730E+01  0.30465768951E+02  0.34904709100E+02  0.41800000000E+01 0. -1.
        -11    1    1    2    0    0 -0.42744986768E+02  0.23154869429E+02  0.10349041510E+03  0.11433961644E+03  0.00000000000E+00 0. -1.
         11    1    1    2    0    0 -0.66358965836E+02  0.20165592105E+02  0.58153562871E+01  0.69598719963E+02  0.00000000000E+00 0.  1.
</event>
<event>
 7    1  0.2530765E-009  0.1036034E+03  0.7561462E-02  0.1272896E+00
         -2   -1    0    0    0  501 -0.00000000000E+00  0.00000000000E+00  0.19685348922E+02  0.19685348922E+02  0.00000000000E+00 0.  1.
          2   -1    0    0  501    0  0.00000000000E+00 -0.00000000000E+00 -0.90709537835E+03  0.90709537835E+03  0.00000000000E+00 0. -1.
         25    2    1    2    0    0 -0.55939749327E+02  0.33296927165E+02 -0.62748810771E+03  0.64313815796E+03  0.12508966379E+03 0.  0.
          5    1    3    3  502    0 -0.41054217590E+02 -0.43038677063E+02 -0.34476677898E+03  0.34988481075E+03  0.41800000000E+01 0. -1.
         -5    1    3    3    0  502 -0.14885531737E+02  0.76335604229E+02 -0.28272132873E+03  0.29325334721E+03  0.41800000000E+01 0. -1.
        -11    1    1    2    0    0  0.10809160971E+02 -0.19852903695E+02 -0.34297843505E+01  0.22863489820E+02  0.00000000000E+00 0.  1.
         11    1    1    2    0    0  0.45130588355E+02 -0.13444023470E+02 -0.25649213736E+03  0.26077907949E+03  0.00000000000E+00 0. -1.
</event>
<event>
 7    1  0.2530765E-009  0.1187210E+03  0.7561462E-02  0.1245222E+00
         -1   -1    0    0    0  501 -0.00000000000E+00  0.00000000000E+00  0.31772411488E+03  0.31772411488E+03  0.00000000000E+00 0.  1.
          1   -1    0    0  501    0  0.00000000000E+00 -0.00000000000E+00 -0.48503852181E+02  0.48503852181E+02  0.00000000000E+00 0. -1.
         25    2    1    2    0    0  0.19844179646E+02  0.55982571511E+02  0.15106849441E+03  0.20493326146E+03  0.12509241332E+03 0.  0.
          5    1    3    3  502    0  0.48544848292E+01  0.93827735696E+02  0.12495211441E+03  0.15638962019E+03  0.41800000000E+01 0.  1.
         -5    1    3    3    0  502  0.14989694817E+02 -0.37845164185E+02  0.26116380005E+02  0.48543641267E+02  0.41800000000E+01 0.  1.
        -11    1    1    2    0    0 -0.52669502741E+02 -0.30016695037E+02  0.97035766116E+02  0.11441598842E+03  0.00000000000E+00 0. -1.
         11    1    1    2    0    0  0.32825323095E+02 -0.25965876474E+02  0.21116002173E+02  0.46878717188E+02  0.00000000000E+00 0.  1.
</event>
<event>
 7    1  0.2530765E-009  0.2076176E+03  0.7561462E-02  0.1143467E+00
          2   -1    0    0  501    0  0.00000000000E+00  0.00000000000E+00  0.76341949216E+03  0.76341949216E+03  0.00000000000E+00 0.  1.
         -2   -1    0    0    0  501 -0.00000000000E+00 -0.00000000000E+00 -0.62123899850E+02  0.62123899850E+02  0.00000000000E+00 0. -1.
         25    2    1    2    0    0  0.16355852819E+03 -0.93449093307E+02  0.35792768364E+03  0.42337084226E+03  0.12508604309E+03 0.  0.
          5    1    3    3  502    0  0.11309617081E+02  0.18958228447E+02  0.10542028154E+03  0.10778789368E+03  0.41800000000E+01 0. -1.
         -5    1    3    3    0  502  0.15224891111E+03 -0.11240732175E+03  0.25250740211E+03  0.31558294858E+03  0.41800000000E+01 0. -1.
        -11    1    1    2    0    0 -0.13475377765E+03  0.10658815256E+03  0.31860383234E+03  0.36197792314E+03  0.00000000000E+00 0.  1.
         11    1    1    2    0    0 -0.28804750540E+02 -0.13139059252E+02  0.24764076321E+02  0.40194626603E+02  0.00000000000E+00 0. -1.
</event>
<event>
 7    1  0.2530765E-009  0.1047406E+03  0.7561462E-02  0.1270631E+00
          2   -1    0    0  501    0  0.00000000000E+00  0.00000000000E+00  0.38577679675E+03  0.38577679675E+03  0.00000000000E+00 0. -1.
         -2   -1    0    0    0  501 -0.00000000000E+00 -0.00000000000E+00 -0.40904381990E+02  0.40904381990E+02  0.00000000000E+00 0.  1.
         25    2    1    2    0    0 -0.30585634333E+02  0.37158967938E+02  0.26820695020E+03  0.29983013340E+03  0.12508745274E+03 0.  0.
          5    1    3    3  502    0  0.17104749369E+02  0.67623731421E+02  0.97619388367E+02  0.12005231729E+03  0.41800000000E+01 0. -1.
         -5    1    3    3    0  502 -0.47690383702E+02 -0.30464763483E+02  0.17058756184E+03  0.17977781611E+03  0.41800000000E+01 0. -1.
        -11    1    1    2    0    0 -0.11401109353E+02 -0.39197527772E+02  0.74266610703E+02  0.84746450918E+02  0.00000000000E+00 0. -1.
         11    1    1    2    0    0  0.41986743686E+02  0.20385598341E+01  0.23988538552E+01  0.42104594421E+02  0.00000000000E+00 0.  1.
</event>
<event>
 7    1  0.2530765E-009  0.1385639E+03  0.7561462E-02  0.1215275E+00
          1   -1    0    0  501    0  0.00000000000E+00  0.00000000000E+00  0.84164695286E+03  0.84164695286E+03  0.00000000000E+00 0. -1.
         -1   -1    0    0    0  501 -0.00000000000E+00 -0.00000000000E+00 -0.26705344327E+02  0.26705344327E+02  0.00000000000E+00 0.  1.
         25    2    1    2    0    0  0.26052578004E+02  0.97194765245E+02  0.51522266827E+03  0.53965502460E+03  0.12509032125E+03 0.  0.
          5    1    3    3  502    0  0.63783421365E+02  0.28562218658E+02  0.14250233505E+03  0.15877189005E+03  0.41800000000E+01 0. -1.
         -5    1    3    3    0  502 -0.37730843360E+02  0.68632546587E+02  0.37272033322E+03  0.38088313455E+03  0.41800000000E+01 0. -1.
        -11    1    1    2    0    0 -0.55104491891E+02 -0.67593357606E+02  0.24484279373E+03  0.25991029348E+03  0.00000000000E+00 0.  1.
         11    1    1    2    0    0  0.29051913887E+02 -0.29601407639E+02  0.54876146536E+02  0.68786979097E+02  0.00000000000E+00 0. -1.
</event>
<event>
 7    1  0.2530765E-009  0.1264688E+03  0.7561462E-02  0.1232791E+00
         -1   -1    0    0    0  501 -0.00000000000E+00  0.00000000000E+00  0.38176848125E+03  0.38176848125E+03  0.00000000000E+00 0.  1.
          1   -1    0    0  501    0  0.00000000000E+00 -0.00000000000E+00 -0.45722723168E+02  0.45722723168E+02  0.00000000000E+00 0. -1.
         25    2    1    2    0    0  0.43646646116E+02 -0.60632426687E+02  0.19593868801E+03  0.24417392383E+03  0.12509042625E+03 0.  0.
          5    1    3    3  502    0  0.77398809692E+02 -0.15477213882E+01  0.10392092993E+03  0.12965339664E+03  0.41800000000E+01 0. -1.
         -5    1    3    3    0  502 -0.33752163576E+02 -0.59084705299E+02  0.92017758077E+02  0.11452052719E+03  0.41800000000E+01 0. -1.
        -11    1    1    2    0    0 -0.53324362492E+02  0.82391264176E+01  0.10899397101E+03  0.12161848773E+03  0.00000000000E+00 0.  1.
         11    1    1    2    0    0  0.96777163761E+01  0.52393300269E+02  0.31113099063E+02  0.61698792862E+02  0.00000000000E+00 0. -1.
</event>
<event>
 7    1  0.2530765E-009  0.7979757E+02  0.7561462E-02  0.1329627E+00
          1   -1    0    0  501    0  0.00000000000E+00  0.00000000000E+00  0.14930591332E+03  0.14930591332E+03  0.00000000000E+00 0.  1.
         -1   -1    0    0    0  501 -0.00000000000E+00 -0.00000000000E+00 -0.89887838640E+02  0.89887838640E+02  0.00000000000E+00 0. -1.
         25    2    1    2    0    0  0.13912930105E+02  0.28963461476E+02  0.51524395878E+01  0.12925507557E+03  0.12509146735E+03 0.  0.
          5    1    3    3  502    0  0.72662205470E+00  0.44071820339E+02 -0.52144802005E+02  0.68406184689E+02  0.41800000000E+01 0.  1.
         -5    1    3    3    0  502  0.13186308050E+02 -0.15108358863E+02  0.57297241593E+02  0.60848890883E+02  0.41800000000E+01 0.  1.
        -11    1    1    2    0    0 -0.52101076860E+02 -0.15864439826E+02  0.24179820526E+02  0.59589146509E+02  0.00000000000E+00 0. -1.
         11    1    1    2    0    0  0.38188146755E+02 -0.13099021650E+02  0.30085814566E+02  0.50349529878E+02  0.00000000000E+00 0.  1.
</event>
<event>
 7    1  0.2530765E-009  0.1311062E+03  0.7561462E-02  0.1225823E+00
          2   -1    0    0  501    0  0.00000000000E+00  0.00000000000E+00  0.58311785528E+02  0.58311785528E+02  0.00000000000E+00 0. -1.
         -2   -1    0    0    0  501 -0.00000000000E+00 -0.00000000000E+00 -0.31411788118E+03  0.31411788118E+03  0.00000000000E+00 0.  1.
         25    2    1    2    0    0 -0.57284763199E+02 -0.55155099579E+02 -0.12237137698E+03  0.19222622037E+03  0.12511009867E+03 0.  0.
          5    1    3    3  502    0 -0.89923894368E+02 -0.68061563185E+02 -0.91200508743E+02  0.14509889164E+03  0.41800000000E+01 0. -1.
         -5    1    3    3    0  502  0.32639131169E+02  0.12906463606E+02 -0.31170868238E+02  0.47127328727E+02  0.41800000000E+01 0. -1.
        -11    1    1    2    0    0 -0.93029689389E+01  0.45841124819E+02 -0.86070568890E+02  0.97959669175E+02  0.00000000000E+00 0.  1.
         11    1    1    2    0    0  0.66587732138E+02  0.93139747598E+01 -0.47364149778E+02  0.82243777159E+02  0.00000000000E+00 0. -1.
</event>
<event>
 7    1  0.2530765E-009  0.1033548E+03  0.7561462E-02  0.1273395E+00
         -2   -1    0    0    0  501 -0.00000000000E+00  0.00000000000E+00  0.13234364785E+03  0.13234364785E+03  0.00000000000E+00 0.  1.
          2   -1    0    0  501    0  0.00000000000E+00 -0.00000000000E+00 -0.13246389476E+03  0.13246389476E+03  0.00000000000E+00 0. -1.
         25    2    1    2    0    0 -0.12520179009E+02 -0.30427587574E+02  0.53274383318E+02  0.13988547557E+03  0.12508874206E+03 0.  0.
          5    1    3    3  502    0  0.14211653768E+02 -0.56422490019E+02 -0.16534039612E+02  0.60632626107E+02  0.41800000000E+01 0.  1.
         -5    1    3    3    0  502 -0.26731832777E+02  0.25994902444E+02  0.69808422929E+02  0.79252849467E+02  0.41800000000E+01 0.  1.
        -11    1    1    2    0    0 -0.33673732155E+02 -0.22579490608E+02 -0.31305635378E+02  0.51223006938E+02  0.00000000000E+00 0.  1.
         11    1    1    2    0    0  0.46193911164E+02  0.53007078182E+02 -0.22088994857E+02  0.73699060101E+02  0.00000000000E+00 0. -1.
</event>
<event>
 7    1  0.2530765E-009  0.1486657E+03  0.7561462E-02  0.1202122E+00
          2   -1    0    0  501    0  0.00000000000E+00  0.00000000000E+00  0.17236439064E+04  0.17236439064E+04  0.00000000000E+00 0. -1.
         -2   -1    0    0    0  501 -0.00000000000E+00 -0.00000000000E+00 -0.15178938047E+02  0.15178938047E+02  0.00000000000E+00 0.  1.
         25    2    1    2    0    0 -0.46507595048E+02  0.90777230942E+02  0.12399827570E+04  0.12504433925E+04  0.12509187889E+03 0.  0.
          5    1    3    3  502    0 -0.23003908321E+02 -0.29001100555E+02  0.21418131971E+03  0.21739676572E+03  0.41800000000E+01 0.  1.
         -5    1    3    3    0  502 -0.23503686727E+02  0.11977833150E+03  0.10258014373E+04  0.10330466268E+04  0.41800000000E+01 0.  1.
        -11    1    1    2    0    0  0.39460374517E+02 -0.11032302550E+03  0.39382359555E+03  0.41088357904E+03  0.00000000000E+00 0. -1.
         11    1    1    2    0    0  0.70472205316E+01  0.19545794560E+02  0.74658615807E+02  0.77495872900E+02  0.00000000000E+00 0.  1.
</event>
<event>
 7    1  0.2530765E-009  0.1291288E+03  0.7561462E-02  0.1228754E+00
         -1   -1    0    0    0  501 -0.00000000000E+00  0.00000000000E+00  0.72126034068E+02  0.72126034068E+02  0.00000000000E+00 0.  1.
          1   -1    0    0  501    0  0.00000000000E+00 -0.00000000000E+00 -0.39919209941E+03  0.39919209941E+03  0.00000000000E+00 0. -1.
         25    2    1    2    0    0 -0.11421900537E+03 -0.11277077077E+02 -0.82400464735E+02  0.18871207421E+03  0.12509698920E+03 0.  0.
          5    1    3    3  502    0 -0.78236628588E+02 -0.28657197879E+02 -0.11139047033E+03  0.13916721713E+03  0.41800000000E+01 0. -1.
         -5    1    3    3    0  502 -0.35982376787E+02  0.17380120803E+02  0.28990005596E+02  0.49544857077E+02  0.41800000000E+01 0. -1.
        -11    1    1    2    0    0 -0.97886307888E+01  0.35294203903E+01 -0.29329628817E+01  0.10810937622E+02  0.00000000000E+00 0.  1.
         11    1    1    2    0    0  0.12400763616E+03  0.77476566863E+01 -0.24173263773E+03  0.27179512165E+03  0.00000000000E+00 0. -1.
</event>
<event>
 7    1  0.2530765E-009  0.9052725E+02  0.7561462E-02  0.1301580E+00
          1   -1    0    0  501    0  0.00000000000E+00  0.00000000000E+00  0.70337204225E+03  0.70337204225E+03  0.00000000000E+00 0. -1.
         -1   -1    0    0    0  501 -0.00000000000E+00 -0.00000000000E+00 -0.17503474144E+02  0.17503474144E+02  0.00000000000E+00 0.  1.
         25    2    1    2    0    0 -0.35342227453E+01 -0.50374880358E+00  0.54770063537E+03  0.56181559174E+03  0.12509208067E+03 0.  0.
          5    1    3    3  502    0 -0.53453687830E+02  0.12951999213E+01  0.12322726354E+03  0.13439272735E+03  0.41800000000E+01 0. -1.
         -5    1    3    3    0  502  0.49919465085E+02 -0.17989487249E+01  0.42447337183E+03  0.42742286439E+03  0.41800000000E+01 0. -1.
        -11    1    1    2    0    0  0.40411476180E+02 -0.18277873816E+00  0.87576620937E+02  0.96450947895E+02  0.00000000000E+00 0. -1.
         11    1    1    2    0    0 -0.36877253435E+02  0.68652754174E+00  0.50591311802E+02  0.62608976759E+02  0.00000000000E+00 0.  1.
</event>
<event>
 7    1  0.2530765E-009  0.9558296E+02  0.7561462E-02  0.1289868E+00
         -2   -1    0    0    0  501 -0.00000000000E+00  0.00000000000E+00  0.11018055101E+03  0.11018055101E+03  0.00000000000E+00 0.  1.
          2   -1    0    0  501    0  0.00000000000E+00 -0.00000000000E+00 -0.12188148511E+03  0.12188148511E+03  0.00000000000E+00 0. -1.
         25    2    1    2    0    0  0.35130397294E+02 -0.10401251684E+02 -0.25558047139E+02  0.13281852198E+03  0.12508083449E+03 0.  0.
          5    1    3    3  502    0  0.25812766238E+02  0.36613330154E+02  0.33899830852E+02  0.56333877708E+02  0.41800000000E+01 0.  1.
         -5    1    3    3    0  502  0.93176310564E+01 -0.47014581838E+02 -0.59457877991E+02  0.76484644270E+02  0.41800000000E+01 0.  1.
        -11    1    1    2    0    0  0.15597109967E+02  0.37454431789E+02  0.89218949987E+01  0.41541599756E+02  0.00000000000E+00 0.  1.
         11    1    1    2    0    0 -0.50727507261E+02 -0.27053180105E+02  0.49352180474E+01  0.57701914387E+02  0.00000000000E+00 0. -1.
</event>
<event>
 7    1  0.2530765E-009  0.1112168E+03  0.7561462E-02  0.1258333E+00
         -3   -1    0    0    0  501 -0.00000000000E+00  0.00000000000E+00  0.12616345145E+03  0.12616345145E+03  0.00000000000E+00 0.  1.
          3   -1    0    0  501    0  0.00000000000E+00 -0.00000000000E+00 -0.10232383937E+03  0.10232383937E+03  0.00000000000E+00 0. -1.
         25    2    1    2    0    0 -0.21971363861E+02 -0.28185900869E+02  0.62593356032E+01  0.13024254907E+03  0.12508699560E+03 0.  0.
          5    1    3    3  502    0  0.33674126217E+02 -0.55513040404E+02 -0.10460683914E+02  0.65897972194E+02  0.41800000000E+01 0.  1.
         -5    1    3    3    0  502 -0.55645490079E+02  0.27327139535E+02  0.16720019517E+02  0.64344576880E+02  0.41800000000E+01 0.  1.
        -11    1    1    2    0    0 -0.34313719396E+02  0.14875714733E+02 -0.12466127763E+01  0.37420212066E+02  0.00000000000E+00 0. -1.
         11    1    1    2    0    0  0.56285083258E+02  0.13310186136E+02  0.18826889252E+02  0.60824529683E+02  0.00000000000E+00 0.  1.
</event>
<event>
 7    1  0.2530765E-009  0.2182803E+03  0.7561462E-02  0.1135172E+00
          2   -1    0    0  501    0  0.00000000000E+00  0.00000000000E+00  0.28234829230E+03  0.28234829230E+03  0.00000000000E+00 0. -1.
         -2   -1    0    0    0  501 -0.00000000000E+00 -0.00000000000E+00 -0.18403553356E+03  0.18403553356E+03  0.00000000000E+00 0.  1.
         25    2    1    2    0    0  0.82514978381E+02  0.17892243386E+03  0.87188850650E+02  0.24914314646E+03  0.12509377583E+03 0.  0.
          5    1    3    3  502    0  0.86359696689E+02  0.68896177661E+02  0.84136026096E+02  0.13892812457E+03  0.41800000000E+01 0.  1.
         -5    1    3    3    0  502 -0.38447183075E+01  0.11002625620E+03  0.30528245532E+01  0.11021502189E+03  0.41800000000E+01 0.  1.
        -11    1    1    2    0    0 -0.12655369815E+02 -0.12984124207E+03  0.17501446285E+02  0.13162525270E+03  0.00000000000E+00 0. -1.
         11    1    1    2    0    0 -0.69859608566E+02 -0.49081191793E+02 -0.63775381938E+01  0.85615426707E+02  0.00000000000E+00 0.  1.
</event>
<event>
 7    1  0.2530765E-009  0.7088811E+02  0.7561462E-02  0.1357099E+00
         -1   -1    0    0    0  501 -0.00000000000E+00  0.00000000000E+00  0.17464295751E+03  0.17464295751E+03  0.00000000000E+00 0.  1.
          1   -1    0    0  501    0  0.00000000000E+00 -0.00000000000E+00 -0.87674947297E+02  0.87674947297E+02  0.00000000000E+00 0. -1.
         25    2    1    2    0    0  0.38119856957E+02  0.28669085634E+02  0.88708899618E+02  0.16059797579E+03  0.12508957188E+03 0.  0.
          5    1    3    3  502    0  0.13271217446E+02  0.31954449360E+02 -0.25762269996E+02  0.43340269978E+02  0.41800000000E+01 0.  1.
         -5    1    3    3    0  502  0.24848639511E+02 -0.32853637255E+01  0.11447116961E+03  0.11725770582E+03  0.41800000000E+01 0.  1.
        -11    1    1    2    0    0 -0.19446357367E+01  0.20432168012E+02 -0.28498445659E+02  0.35120029937E+02  0.00000000000E+00 0. -1.
         11    1    1    2    0    0 -0.36175221221E+02 -0.49101253647E+02  0.26757556251E+02  0.66599899073E+02  0.00000000000E+00 0.  1.
</event>
<event>
 7    1  0.2530765E-009  0.9329000E+02  0.7561462E-02  0.1295075E+00
         -1   -1    0    0    0  501 -0.00000000000E+00  0.00000000000E+00  0.14989835064E+03  0.14989835064E+03  0.00000000000E+00 0. -1.
          1   -1    0    0  501    0  0.00000000000E+00 -0.00000000000E+00 -0.10975620521E+03  0.10975620521E+03  0.00000000000E+00 0.  1.
         25    2    1    2    0    0 -0.54819968315E+02 -0.40243627264E+02  0.33774133806E+02  0.14633292127E+03  0.12509137969E+03 0.  0.
          5    1    3    3  502    0 -0.53367942955E+02 -0.14815149584E+02 -0.39820767883E+02  0.68343192399E+02  0.41800000000E+01 0. -1.
         -5    1    3    3    0  502 -0.14520253595E+01 -0.25428477679E+02  0.73594901689E+02  0.77989728871E+02  0.41800000000E+01 0. -1.
        -11    1    1    2    0    0  0.61131674118E+02  0.59289898716E+02  0.21918477536E+02  0.87936302672E+02  0.00000000000E+00 0. -1.
         11    1    1    2    0    0 -0.63117058035E+01 -0.19046271452E+02 -0.15550465914E+02  0.25385331916E+02  0.00000000000E+00 0.  1.
</event>
<event>
 7    1  0.2530765E-009  0.1089417E+03  0.7561462E-02  0.1262542E+00
         -2   -1    0    0    0  501 -0.00000000000E+00  0.00000000000E+00  0.21403902260E+03  0.21403902260E+03  0.00000000000E+00 0.  1.
          2   -1    0    0  501    0  0.00000000000E+00 -0.00000000000E+00 -0.68637964908E+02  0.68637964908E+02  0.00000000000E+00 0. -1.
         25    2    1    2    0    0  0.19741392993E+02  0.55654507127E+01  0.22546668747E+02  0.12874713957E+03  0.12508707701E+03 0.  0.
          5    1    3    3  502    0 -0.19761876702E+02  0.57383374566E+02  0.17288201262E+02  0.63243479903E+02  0.41800000000E+01 0.  1.
         -5    1    3    3    0  502  0.39503269696E+02 -0.51817923853E+02  0.52584674855E+01  0.65503659664E+02  0.41800000000E+01 0.  1.
        -11    1    1    2    0    0  0.10855701232E+02  0.37437333475E+02  0.41316795579E+02  0.56802093129E+02  0.00000000000E+00 0. -1.
         11    1    1    2    0    0 -0.30597094225E+02 -0.43002784188E+02  0.81537593367E+02  0.97127754813E+02  0.00000000000E+00 0.  1.
</event>
<event>
 7    1  0.2530765E-009  0.8676988E+02  0.7561462E-02  0.1310868E+00
         -1   -1    0    0    0  501 -0.00000000000E+00  0.00000000000E+00  0.23515605053E+02  0.23515605053E+02  0.00000000000E+00 0.  1.
          1   -1    0    0  501    0  0.00000000000E+00 -0.00000000000E+00 -0.51174509579E+03  0.51174509579E+03  0.00000000000E+00 0. -1.
         25    2    1    2    0    0  0.17817911131E+02 -0.20602834757E+02 -0.25320197475E+03  0.28372652232E+03  0.12509014627E+03 0.  0.
          5    1    3    3  502    0  0.22221184223E+02 -0.58137091268E+02 -0.59081403380E+02  0.85917326743E+02  0.41800000000E+01 0. -1.
         -5    1    3    3    0  502 -0.44032730924E+01  0.37534256511E+02 -0.19412057137E+03  0.19780919557E+03  0.41800000000E+01 0. -1.
        -11    1    1    2    0    0  0.12966290290E+02 -0.18984768200E+02 -0.19187620465E+02  0.29945131267E+02  0.00000000000E+00 0.  1.
         11    1    1    2    0    0 -0.30784201420E+02  0.39587602957E+02 -0.21583989553E+03  0.22158904726E+03  0.00000000000E+00 0. -1.
</event>
<event>
 7    1  0.2530765E-009  0.1112838E+03  0.7561462E-02  0.1258211E+00
         -2   -1    0    0    0  501 -0.00000000000E+00  0.00000000000E+00  0.24838430411E+03  0.24838430411E+03  0.00000000000E+00 0. -1.
          2   -1    0    0  501    0  0.00000000000E+00 -0.00000000000E+00 -0.60100965861E+02  0.60100965861E+02  0.00000000000E+00 0.  1.
         25    2    1    2    0    0 -0.11511195364E+02  0.44070699522E+02  0.15249298814E+03  0.20242579336E+03  0.12508939289E+03 0.  0.
          5    1    3    3  502    0 -0.66436617349E+02  0.85035945656E+01  0.68844174248E+02  0.96141187704E+02  0.41800000000E+01 0.  1.
         -5    1    3    3    0  502  0.54925421984E+02  0.35567104956E+02  0.83648813889E+02  0.10628460566E+03  0.41800000000E+01 0.  1.
        -11    1    1    2    0    0 -0.23506706676E+02 -0.49172208320E+02 -0.16697004417E+01  0.54527600620E+02  0.00000000000E+00 0.  1.
         11    1    1    2    0    0  0.35017902041E+02  0.51015087982E+01  0.37460050553E+02  0.51531875987E+02  0.00000000000E+00 0. -1.
</event>
<event>
 7    1  0.2530765E-009  0.1239662E+03  0.7561462E-02  0.1236694E+00
          2   -1    0    0  501    0  0.00000000000E+00  0.00000000000E+00  0.50370981735E+03  0.50370981735E+03  0.00000000000E+00 0.  1.
         -2   -1    0    0    0  501 -0.00000000000E+00 -0.00000000000E+00 -0.60442087505E+02  0.60442087505E+02  0.00000000000E+00 0. -1.
         25    2    1    2    0    0  0.80646866274E+02 -0.74894472069E+02  0.10440386750E+03  0.19662308608E+03  0.12508945376E+03 0.  0.
          5    1    3    3  502    0  0.47464393780E+01  0.14346134570E+01  0.87310794529E+02  0.87551322342E+02  0.41800000000E+01 0.  1.
         -5    1    3    3    0  502  0.75900426896E+02 -0.76329085526E+02  0.17093072975E+02  0.10907176373E+03  0.41800000000E+01 0.  1.
        -11    1    1    2    0    0 -0.53393895560E+00  0.49755503089E+02  0.19214306709E+03  0.19848136791E+03  0.00000000000E+00 0.  1.
         11    1    1    2    0    0 -0.80112927318E+02  0.25138968980E+02  0.14672079525E+03  0.16904745087E+03  0.00000000000E+00 0. -1.
</event>
<event>
 7    1  0.2530765E-009  0.1172626E+03  0.7561462E-02  0.1247682E+00
          1   -1    0    0  501    0  0.00000000000E+00  0.00000000000E+00  0.30000164826E+03  0.30000164826E+03  0.00000000000E+00 0. -1.
         -1   -1    0    0    0  501 -0.00000000000E+00 -0.00000000000E+00 -0.61208237000E+02  0.61208237000E+02  0.00000000000E+00 0.  1.
         25    2    1    2    0    0  0.62948939403E+02  0.37844702252E+02  0.15583469465E+03  0.21290446160E+03  0.12509623197E+03 0.  0.
          5    1    3    3  502    0 -0.24113348508E+02  0.48694102356E+02  0.80359554138E+02  0.97096341444E+02  0.41800000000E+01 0. -1.
         -5    1    3    3    0  502  0.87062287911E+02 -0.10849400104E+02  0.75475140512E+02  0.11580812016E+03  0.41800000000E+01 0. -1.
        -11    1    1    2    0    0 -0.33950554208E+02 -0.50256138907E+02  0.11868614757E+01  0.60660763835E+02  0.00000000000E+00 0.  1.
         11    1    1    2    0    0 -0.28998385195E+02  0.12411436654E+02  0.81771855132E+02  0.87644659822E+02  0.00000000000E+00 0. -1.
</event>
<event>
 7    1  0.2530765E-009  0.2682720E+03  0.7561462E-02  0.1102273E+00
         -1   -1    0    0    0  501 -0.00000000000E+00  0.00000000000E+00  0.28581488250E+02  0.28581488250E+02  0.00000000000E+00 0.  1.
          1   -1    0    0  501    0  0.00000000000E+00 -0.00000000000E+00 -0.26769532419E+04  0.26769532419E+04  0.00000000000E+00 0. -1.
         25    2    1    2    0    0 -0.69976221103E+02 -0.23942659825E+03 -0.15844150053E+04  0.16088010054E+04  0.12509196043E+03 0.  0.
          5    1    3    3  502    0 -0.69328774027E+02 -0.25395562405E+03 -0.15199308010E+04  0.15425650878E+04  0.41800000000E+01 0.  1.
         -5    1    3    3    0  502 -0.64744707600E+00  0.14529025798E+02 -0.64484204319E+02  0.66235917636E+02  0.41800000000E+01 0.  1.
        -11    1    1    2    0    0  0.48309630236E+01  0.13475286827E+03 -0.42111622535E+03  0.44217705612E+03  0.00000000000E+00 0.  1.
         11    1    1    2    0    0  0.65145258079E+02  0.10467372998E+03 -0.64284052304E+03  0.65455666864E+03  0.00000000000E+00 0. -1.
</event>
<event>
 7    1  0.2530765E-009  0.7987388E+02  0.7561462E-02  0.1329410E+00
         -4   -1    0    0    0  501 -0.00000000000E+00  0.00000000000E+00  0.17964356712E+03  0.17964356712E+03  0.00000000000E+00 0.  1.
          4   -1    0    0  501    0  0.00000000000E+00 -0.00000000000E+00 -0.75574715195E+02  0.75574715195E+02  0.00000000000E+00 0. -1.
         25    2    1    2    0    0 -0.20667182251E+02 -0.37290696277E+02  0.49518393352E+02  0.14112684966E+03  0.12508792093E+03 0.  0.
          5    1    3    3  502    0 -0.60108504685E+01 -0.44365502982E+02  0.88173832155E+02  0.98977397698E+02  0.41800000000E+01 0. -1.
         -5    1    3    3    0  502 -0.14656331783E+02  0.70748067041E+01 -0.38655438803E+02  0.42149451958E+02  0.41800000000E+01 0. -1.
        -11    1    1    2    0    0  0.42245618977E+02  0.55496824992E+02  0.27441513470E+02  0.74950827671E+02  0.00000000000E+00 0. -1.
         11    1    1    2    0    0 -0.21578436726E+02 -0.18206128715E+02  0.27108945103E+02  0.39140604989E+02  0.00000000000E+00 0.  1.
</event>
<event>
 7    1  0.2530765E-009  0.2107171E+03  0.7561462E-02  0.1140999E+00
          4   -1    0    0  501    0  0.00000000000E+00  0.00000000000E+00  0.22702569988E+03  0.22702569988E+03  0.00000000000E+00 0. -1.
         -4   -1    0    0    0  501 -0.00000000000E+00 -0.00000000000E+00 -0.23061355187E+03  0.23061355187E+03  0.00000000000E+00 0.  1.
         25    2    1    2    0    0 -0.11751340680E+03  0.14860819899E+03  0.63165000305E+02  0.23564914127E+03  0.12508758105E+03 0.  0.
          5    1    3    3  502    0  0.22355874013E+02  0.28818046013E+02  0.32260637053E+02  0.48872139117E+02  0.41800000000E+01 0. -1.
         -5    1    3    3    0  502 -0.13986928081E+03  0.11979015298E+03  0.30904363253E+02  0.18677700215E+03  0.41800000000E+01 0. -1.
        -11    1    1    2    0    0  0.35716614042E+01 -0.49140548520E+02  0.13062715994E+02  0.50972392755E+02  0.00000000000E+00 0.  1.
         11    1    1    2    0    0  0.11394174540E+03 -0.99467650468E+02 -0.79815568284E+02  0.17101771772E+03  0.00000000000E+00 0. -1.
</event>
<event>
 7    1  0.2530765E-009  0.1187002E+03  0.7561462E-02  0.1245257E+00
          1   -1    0    0  501    0  0.00000000000E+00  0.00000000000E+00  0.54885709553E+02  0.54885709553E+02  0.00000000000E+00 0. -1.
         -1   -1    0    0    0  501 -0.00000000000E+00 -0.00000000000E+00 -0.38366721055E+03  0.38366721055E+03  0.00000000000E+00 0.  1.
         25    2    1    2    0    0 -0.66757721436E+02  0.36912636040E+02 -0.26445654398E+03  0.30233166068E+03  0.12509209938E+03 0.  0.
          5    1    3    3  502    0 -0.85450393152E+02  0.63739813056E+02 -0.23516776773E+03  0.25823610290E+03  0.41800000000E+01 0. -1.
         -5    1    3    3    0  502  0.18692671716E+02 -0.26827177016E+02 -0.29288776246E+02  0.44095557786E+02  0.41800000000E+01 0. -1.
        -11    1    1    2    0    0  0.77789793174E+02 -0.25463728919E+02 -0.13487009031E+02  0.82955125370E+02  0.00000000000E+00 0. -1.
         11    1    1    2    0    0 -0.11032071738E+02 -0.11448907121E+02 -0.50837947990E+02  0.53266134052E+02  0.00000000000E+00 0.  1.
</event>
<event>
 7    1  0.2530765E-009  0.1114233E+03  0.7561462E-02  0.1257957E+00
          2   -1    0    0  501    0  0.00000000000E+00  0.00000000000E+00  0.27757826276E+03  0.27757826276E+03  0.00000000000E+00 0. -1.
         -2   -1    0    0    0  501 -0.00000000000E+00 -0.00000000000E+00 -0.61762242131E+02  0.61762242131E+02  0.00000000000E+00 0.  1.
         25    2    1    2    0    0  0.49596619208E+02 -0.51222940082E+02  0.14608148210E+03  0.20511215908E+03  0.12509030402E+03 0.  0.
          5    1    3    3  502    0  0.92084660672E+00  0.29219465831E+02 -0.20592558475E+01  0.29603007897E+02  0.41800000000E+01 0. -1.
         -5    1    3    3    0  502  0.48675772601E+02 -0.80442405913E+02  0.14814073795E+03  0.17550915118E+03  0.41800000000E+01 0. -1.
        -11    1    1    2    0    0 -0.40639712894E+02 -0.61757002311E+01  0.63714603753E+02  0.75823982148E+02  0.00000000000E+00 0. -1.
         11    1    1    2    0    0 -0.89569063142E+01  0.57398640313E+02  0.60199347724E+01  0.58404363666E+02  0.00000000000E+00 0.  1.
</event>
<event>
 7    1  0.2530765E-009  0.1885203E+03  0.7561462E-02  0.1159803E+00
          2   -1    0    0  501    0  0.00000000000E+00  0.00000000000E+00  0.91891998677E+03  0.91891998677E+03  0.00000000000E+00 0. -1.
         -2   -1    0    0    0  501 -0.00000000000E+00 -0.00000000000E+00 -0.82731955260E+02  0.82731955260E+02  0.00000000000E+00 0.  1.
         25    2    1    2    0    0  0.92490568735E+02 -0.14438810479E+03  0.76968627716E+03  0.79841538681E+03  0.12509090512E+03 0.  0.
          5    1    3    3  502    0  0.67841679158E+01 -0.10425551596E+03  0.26436016676E+03  0.28428684056E+03  0.41800000000E+01 0.  1.
         -5    1    3    3    0  502  0.85706400820E+02 -0.40132588826E+02  0.50532611039E+03  0.51412854625E+03  0.41800000000E+01 0.  1.
        -11    1    1    2    0    0 -0.27142301024E+02  0.11135748578E+02 -0.16016742991E+02  0.33425221873E+02  0.00000000000E+00 0.  1.
         11    1    1    2    0    0 -0.65348267712E+02  0.13325235621E+03  0.82518497344E+02  0.16981133334E+03  0.00000000000E+00 0. -1.
</event>
<event>
 7    1  0.2530765E-009  0.1050201E+03  0.7561462E-02  0.1270080E+00
          4   -1    0    0  501    0  0.00000000000E+00  0.00000000000E+00  0.49487445243E+02  0.49487445243E+02  0.00000000000E+00 0. -1.
         -4   -1    0    0    0  501 -0.00000000000E+00 -0.00000000000E+00 -0.38930091386E+03  0.38930091386E+03  0.00000000000E+00 0.  1.
         25    2    1    2    0    0  0.31056532733E+01 -0.13919551484E+02 -0.24948376255E+03  0.27945087769E+03  0.12508895343E+03 0.  0.
          5    1    3    3  502    0 -0.36259320771E+02 -0.14445763674E+02 -0.15600516098E+02  0.42240583962E+02  0.41800000000E+01 0. -1.
         -5    1    3    3    0  502  0.39364974044E+02  0.52621219053E+00 -0.23388324645E+03  0.23721029373E+03  0.41800000000E+01 0. -1.
        -11    1    1    2    0    0 -0.93675052002E+01  0.72086758995E+02 -0.47590295412E+02  0.86885483215E+02  0.00000000000E+00 0. -1.
         11    1    1    2    0    0  0.62618519269E+01 -0.58167207512E+02 -0.42739410653E+02  0.72451998194E+02  0.00000000000E+00 0.  1.
</event>
<event>
 7    1  0.2530765E-009  0.9687144E+02  0.7561462E-02  0.1287016E+00
          1   -1    0    0  501    0  0.00000000000E+00  0.00000000000E+00  0.49174865005E+02  0.49174865005E+02  0.00000000000E+00 0. -1.
         -1   -1    0    0    0  501 -0.00000000000E+00 -0.00000000000E+00 -0.31021337673E+03  0.31021337673E+03  0.00000000000E+00 0.  1.
         25    2    1    2    0    0  0.36080358223E+02  0.37818212498E+02 -0.21321898631E+03  0.25266810476E+03  0.12508727191E+03 0.  0.
          5    1    3    3  502    0  0.31192950091E+02  0.81540600780E+02 -0.16836895747E+03  0.18970357918E+03  0.41800000000E+01 0. -1.
         -5    1    3    3    0  502  0.48874081328E+01 -0.43722388282E+02 -0.44850028834E+02  0.62964525582E+02  0.41800000000E+01 0. -1.
        -11    1    1    2    0    0 -0.12623369103E+02  0.47954733537E+01 -0.55814114043E+02  0.57424396720E+02  0.00000000000E+00 0.  1.
         11    1    1    2    0    0 -0.23456989121E+02 -0.42613685851E+02  0.79945886253E+01  0.49295740260E+02  0.00000000000E+00 0. -1.
</event>
<event>
 7    1  0.2530765E-009  0.1590914E+03  0.7561462E-02  0.1189726E+00
          1   -1    0    0  501    0  0.00000000000E+00  0.00000000000E+00  0.11957205064E+04  0.11957205064E+04  0.00000000000E+00 0. -1.
         -1   -1    0    0    0  501 -0.00000000000E+00 -0.00000000000E+00 -0.26644261956E+02  0.26644261956E+02  0.00000000000E+00 0.  1.
         25    2    1    2    0    0  0.26258267537E+02  0.13535158080E+03  0.54620977644E+03  0.57706379947E+03  0.12509181325E+03 0.  0.
          5    1    3    3  502    0  0.47010183671E+02  0.10907612005E+03  0.52244577471E+03  0.53579344644E+03  0.41800000000E+01 0.  1.
         -5    1    3    3    0  502 -0.20751916134E+02  0.26275460757E+02  0.23764001725E+02  0.41270353030E+02  0.41800000000E+01 0.  1.
        -11    1    1    2    0    0 -0.52382346841E+02 -0.37783648912E+02  0.30536361656E+03  0.31211929242E+03  0.00000000000E+00 0.  1.
         11    1    1    2    0    0  0.26124079304E+02 -0.97567931893E+02  0.31750285147E+03  0.33318167648E+03  0.00000000000E+00 0. -1.
</event>
<event>
 7    1  0.2530765E-009  0.8332458E+02  0.7561462E-02  0.1319873E+00
          2   -1    0    0  501    0  0.00000000000E+00  0.00000000000E+00  0.43806639169E+03  0.43806639169E+03  0.00000000000E+00 0. -1.
         -2   -1    0    0    0  501 -0.00000000000E+00 -0.00000000000E+00 -0.29359618216E+02  0.29359618216E+02  0.00000000000E+00 0.  1.
         25    2    1    2    0    0  0.15057598692E+02 -0.14496075813E+01  0.16286278200E+03  0.20590340360E+03  0.12507235192E+03 0.  0.
          5    1    3    3  502    0 -0.33018455377E+02  0.78349343114E+01 -0.16262193678E+01  0.34230418937E+02  0.41800000000E+01 0. -1.
         -5    1    3    3    0  502  0.48076054069E+02 -0.92845418927E+01  0.16448900137E+03  0.17167298467E+03  0.41800000000E+01 0. -1.
        -11    1    1    2    0    0 -0.27925241537E+02  0.36511501621E+02  0.18047101049E+03  0.18623290390E+03  0.00000000000E+00 0. -1.
         11    1    1    2    0    0  0.12867642845E+02 -0.35061894039E+02  0.65372980973E+02  0.75289702399E+02  0.00000000000E+00 0.  1.
</event>
<event>
 7    1  0.2530765E-009  0.1076262E+03  0.7561462E-02  0.1265030E+00
         -2   -1    0    0    0  501 -0.00000000000E+00  0.00000000000E+00  0.36633750085E+03  0.36633750085E+03  0.00000000000E+00 0.  1.
          2   -1    0    0  501    0  0.00000000000E+00 -0.00000000000E+00 -0.43616385660E+02  0.43616385660E+02  0.00000000000E+00 0. -1.
         25    2    1    2    0    0 -0.32770653024E+02  0.10121054776E+01  0.22257142647E+03  0.25740740676E+03  0.12508234533E+03 0.  0.
          5    1    3    3  502    0 -0.51303232738E+02  0.36140439852E+02  0.20379101337E+03  0.21327541492E+03  0.41800000000E+01 0.  1.
         -5    1    3    3    0  502  0.18532579714E+02 -0.35128334374E+02  0.18780413109E+02  0.44131991835E+02  0.41800000000E+01 0.  1.
        -11    1    1    2    0    0  0.35323534483E+02 -0.51181577028E+02  0.71329429682E+02  0.94631883920E+02  0.00000000000E+00 0. -1.
         11    1    1    2    0    0 -0.25528814591E+01  0.50169471551E+02  0.28820259030E+02  0.57914595829E+02  0.00000000000E+00 0.  1.
</event>
<event>
 7    1  0.2530765E-009  0.7721058E+02  0.7561462E-02  0.1337159E+00
         -2   -1    0    0    0  501 -0.00000000000E+00  0.00000000000E+00  0.81128018957E+02  0.81128018957E+02  0.00000000000E+00 0. -1.
          2   -1    0    0  501    0  0.00000000000E+00 -0.00000000000E+00 -0.20068743093E+03  0.20068743093E+03  0.00000000000E+00 0.  1.
         25    2    1    2    0    0 -0.56521635021E+02 -0.32996601832E+02 -0.77692613474E+02  0.16114614694E+03  0.12509383488E+03 0.  0.
          5    1    3    3  502    0 -0.27004046204E+02 -0.68297040323E+01  0.33102712714E+02  0.43464069731E+02  0.41800000000E+01 0.  1.
         -5    1    3    3    0  502 -0.29517588817E+02 -0.26166897800E+02 -0.11079532619E+03  0.11768207720E+03  0.41800000000E+01 0.  1.
        -11    1    1    2    0    0  0.76943417781E+00  0.30782222238E+02 -0.55285645792E+02  0.63282223930E+02  0.00000000000E+00 0.  1.
         11    1    1    2    0    0  0.55752200843E+02  0.22143795945E+01  0.13418847294E+02  0.57387079021E+02  0.00000000000E+00 0. -1.
</event>
<event>
 7    1  0.2530765E-009  0.1026451E+03  0.7561462E-02  0.1274830E+00
          2   -1    0    0  501    0  0.00000000000E+00  0.00000000000E+00  0.33264661870E+03  0.33264661870E+03  0.00000000000E+00 0. -1.
         -2   -1    0    0    0  501 -0.00000000000E+00 -0.00000000000E+00 -0.49064234090E+02  0.49064234090E+02  0.00000000000E+00 0.  1.
         25    2    1    2    0    0 -0.64338391131E+02  0.24275112857E+02  0.15705254233E+03  0.21223767467E+03  0.12510243732E+03 0.  0.
          5    1    3    3  502    0  0.21424761514E+02  0.71588646661E+01 -0.88748227385E+01  0.24627314670E+02  0.41800000000E+01 0.  1.
         -5    1    3    3    0  502 -0.85763152645E+02  0.17116248191E+02  0.16592736506E+03  0.18761036000E+03  0.41800000000E+01 0.  1.
        -11    1    1    2    0    0 -0.10772030743E+02 -0.15874917832E+02 -0.30865803277E+01  0.19431331417E+02  0.00000000000E+00 0.  1.
         11    1    1    2    0    0  0.75110421874E+02 -0.84001950250E+01  0.12961642261E+03  0.15004184670E+03  0.00000000000E+00 0. -1.
</event>
<event>
 7    1  0.2530765E-009  0.1384450E+03  0.7561462E-02  0.1215437E+00
         -2   -1    0    0    0  501 -0.00000000000E+00  0.00000000000E+00  0.28954866373E+02  0.28954866373E+02  0.00000000000E+00 0.  1.
          2   -1    0    0  501    0  0.00000000000E+00 -0.00000000000E+00 -0.99790376184E+03  0.99790376184E+03  0.00000000000E+00 0. -1.
         25    2    1    2    0    0 -0.57196359702E+02  0.10935964895E+03 -0.64664332023E+03  0.67009391499E+03  0.12508922790E+03 0.  0.
          5    1    3    3  502    0 -0.29855547108E+02  0.70448889993E+02 -0.59441916940E+03  0.59933798573E+03  0.41800000000E+01 0. -1.
         -5    1    3    3    0  502 -0.27340812594E+02  0.38910758955E+02 -0.52224150829E+02  0.70755929261E+02  0.41800000000E+01 0. -1.
        -11    1    1    2    0    0  0.75774481934E+02 -0.51156163794E+02 -0.17963172301E+03  0.20155962175E+03  0.00000000000E+00 0.  1.
         11    1    1    2    0    0 -0.18578122232E+02 -0.58203485153E+02 -0.14267385223E+03  0.15520509148E+03  0.00000000000E+00 0. -1.
</event>
<event>
 7    1  0.2530765E-009  0.7754747E+02  0.7561462E-02  0.1336159E+00
         -2   -1    0    0    0  501 -0.00000000000E+00  0.00000000000E+00  0.23619356892E+02  0.23619356892E+02  0.00000000000E+00 0.  1.
          2   -1    0    0  501    0  0.00000000000E+00 -0.00000000000E+00 -0.56869436909E+03  0.56869436909E+03  0.00000000000E+00 0. -1.
         25    2    1    2    0    0 -0.37877813756E+01 -0.25857672940E+02 -0.39881628107E+03  0.41878893925E+03  0.12508710189E+03 0.  0.
          5    1    3    3  502    0  0.28821887216E+02 -0.25610563143E+02 -0.31388100012E+02  0.49892758488E+02  0.41800000000E+01 0.  1.
         -5    1    3    3    0  502 -0.32609668592E+02 -0.24710979762E+00 -0.36742818105E+03  0.36889618076E+03  0.41800000000E+01 0.  1.
        -11    1    1    2    0    0  0.18799758349E+02  0.50887218152E+02 -0.12819468329E+03  0.13920063473E+03  0.00000000000E+00 0.  1.
         11    1    1    2    0    0 -0.15011976973E+02 -0.25029545211E+02 -0.18064047840E+02  0.34324152000E+02  0.00000000000E+00 0. -1.
</event>
<event>
 7    1  0.2530765E-009  0.5253675E+02  0.7561462E-02  0.1432120E+00
         -2   -1    0    0    0  501 -0.00000000000E+00  0.00000000000E+00  0.32103638277E+03  0.32103638277E+03  0.00000000000E+00 0. -1.
          2   -1    0    0  501    0  0.00000000000E+00 -0.00000000000E+00 -0.48479984916E+02  0.48479984916E+02  0.00000000000E+00 0.  1.
         25    2    1    2    0    0 -0.22597419528E+01  0.16154328394E+02  0.24276921368E+03  0.27358844866E+03  0.12509068458E+03 0.  0.
          5    1    3    3  502    0  0.18283698678E+02  0.22916249941E+02  0.24895378479E+03  0.25070881020E+03  0.41800000000E+01 0. -1.
         -5    1    3    3    0  502 -0.20543440631E+02 -0.67619215468E+01 -0.61845711158E+01  0.22879638456E+02  0.41800000000E+01 0. -1.
        -11    1    1    2    0    0 -0.40702101832E+01  0.18123719854E+02 -0.24906716429E+02  0.31070570571E+02  0.00000000000E+00 0.  1.
         11    1    1    2    0    0  0.63299521360E+01 -0.34278048248E+02  0.54693900606E+02  0.64857348459E+02  0.00000000000E+00 0. -1.
</event>
<event>
 7    1  0.2530765E-009  0.3352034E+03  0.7561462E-02  0.1068857E+00
         -3   -1    0    0    0  501 -0.00000000000E+00  0.00000000000E+00  0.33792430619E+02  0.33792430619E+02  0.00000000000E+00 0.  1.
          3   -1    0    0  501    0  0.00000000000E+00 -0.00000000000E+00 -0.35660905749E+04  0.35660905749E+04  0.00000000000E+00 0. -1.
         25    2    1    2    0    0  0.31951522149E+03  0.42134364274E+02 -0.21452557566E+04  0.21729326892E+04  0.12509567942E+03 0.  0.
          5    1    3    3  502    0 -0.45246627047E+01  0.17669453905E+02 -0.73644092879E+02  0.75984254881E+02  0.41800000000E+01 0. -1.
         -5    1    3    3    0  502  0.32403988420E+03  0.24464910369E+02 -0.20716116637E+04  0.20969484343E+04  0.41800000000E+01 0. -1.
        -11    1    1    2    0    0 -0.13835976007E+03  0.84574133598E+01 -0.43663707884E+03  0.45811231119E+03  0.00000000000E+00 0.  1.
         11    1    1    2    0    0 -0.18115546142E+03 -0.50591777634E+02 -0.95040530878E+03  0.96883800510E+03  0.00000000000E+00 0. -1.
</event>
<event>
 7    1  0.2530765E-009  0.1036831E+03  0.7561462E-02  0.1272736E+00
          3   -1    0    0  501    0  0.00000000000E+00  0.00000000000E+00  0.19464931246E+03  0.19464931246E+03  0.00000000000E+00 0. -1.
         -3   -1    0    0    0  501 -0.00000000000E+00 -0.00000000000E+00 -0.90929372232E+02  0.90929372232E+02  0.00000000000E+00 0.  1.
         25    2    1    2    0    0 -0.18497638843E+02 -0.97393155076E+00  0.13726795289E+03  0.18663272758E+03  0.12508466304E+03 0.  0.
          5    1    3    3  502    0 -0.65969996891E+02 -0.22862466087E+02  0.54591981122E+02  0.88727051389E+02  0.41800000000E+01 0. -1.
         -5    1    3    3    0  502  0.47472358048E+02  0.21888534537E+02  0.82675971768E+02  0.97905676191E+02  0.41800000000E+01 0. -1.
        -11    1    1    2    0    0 -0.20681363410E+02  0.29846069853E+02  0.52716958100E+01  0.36691926290E+02  0.00000000000E+00 0. -1.
         11    1    1    2    0    0  0.39179002253E+02 -0.28872138303E+02 -0.38819708472E+02  0.62254030822E+02  0.00000000000E+00 0.  1.
</event>
<event>
 7    1  0.2530765E-009  0.9248181E+02  0.7561462E-02  0.1296951E+00
         -1   -1    0    0    0  501 -0.00000000000E+00  0.00000000000E+00  0.51457049875E+03  0.51457049875E+03  0.00000000000E+00 0.  1.
          1   -1    0    0  501    0  0.00000000000E+00 -0.00000000000E+00 -0.23697155644E+02  0.23697155644E+02  0.00000000000E+00 0. -1.
         25    2    1    2    0    0 -0.55210192273E+01  0.21941329837E+02  0.28731195338E+03  0.31417773286E+03  0.12509031004E+03 0.  0.
          5    1    3    3  502    0 -0.53655059027E+02  0.77571553396E+01  0.23639251760E+03  0.24256531820E+03  0.41800000000E+01 0.  1.
         -5    1    3    3    0  502  0.48134039800E+02  0.14184174497E+02  0.50919435781E+02  0.71612414663E+02  0.41800000000E+01 0.  1.
        -11    1    1    2    0    0  0.40352193061E+02 -0.26983358837E+01  0.16024562611E+03  0.16527020660E+03  0.00000000000E+00 0.  1.
         11    1    1    2    0    0 -0.34831173834E+02 -0.19242993953E+02  0.43315763618E+02  0.58819714932E+02  0.00000000000E+00 0. -1.
</event>
<event>
 7    1  0.2530765E-009  0.1325061E+03  0.7561462E-02  0.1223784E+00
          1   -1    0    0  501    0  0.00000000000E+00  0.00000000000E+00  0.19395478241E+03  0.19395478241E+03  0.00000000000E+00 0. -1.
         -1   -1    0    0    0  501 -0.00000000000E+00 -0.00000000000E+00 -0.14425323902E+03  0.14425323902E+03  0.00000000000E+00 0.  1.
         25    2    1    2    0    0  0.60325961636E+02 -0.99210464691E+02  0.83643088688E+02  0.19006854575E+03  0.12509175770E+03 0.  0.
          5    1    3    3  502    0 -0.85809707298E+01 -0.48363448249E+02  0.91537561832E+02  0.10396756134E+03  0.41800000000E+01 0. -1.
         -5    1    3    3    0  502  0.68906932365E+02 -0.50847016442E+02 -0.78944731442E+01  0.86100984404E+02  0.41800000000E+01 0. -1.
        -11    1    1    2    0    0  0.11823405396E+02  0.13908128480E+02  0.17368822543E+02  0.25197320284E+02  0.00000000000E+00 0. -1.
         11    1    1    2    0    0 -0.72149367031E+02  0.85302336211E+02 -0.51310367845E+02  0.12294215540E+03  0.00000000000E+00 0.  1.
</event>
<event>
 7    1  0.2530765E-009  0.1204553E+03  0.7561462E-02  0.1242348E+00
          1   -1    0    0  501    0  0.00000000000E+00  0.00000000000E+00  0.53444731860E+03  0.53444731860E+03  0.00000000000E+00 0. -1.
         -1   -1    0    0    0  501 -0.00000000000E+00 -0.00000000000E+00 -0.29239358172E+02  0.29239358172E+02  0.00000000000E+00 0.  1.
         25    2    1    2    0    0 -0.55336042138E+02  0.11550896267E+02  0.22865892991E+03  0.26670216469E+03  0.12509851182E+03 0.  0.
          5    1    3    3  502    0 -0.76959160146E+02 -0.35000067331E+02  0.12512325691E+03  0.15106627308E+03  0.41800000000E+01 0.  1.
         -5    1    3    3    0  502  0.21623118009E+02  0.46550963598E+02  0.10353567300E+03  0.11563589161E+03  0.41800000000E+01 0.  1.
        -11    1    1    2    0    0  0.30286987681E+01 -0.43412561344E+02  0.79437421048E+02  0.90576638056E+02  0.00000000000E+00 0.  1.
         11    1    1    2    0    0  0.52307343369E+02  0.31861665077E+02  0.19711160947E+03  0.20640787403E+03  0.00000000000E+00 0. -1.
</event>
<event>
 7    1  0.2530765E-009  0.1440905E+03  0.7561462E-02  0.1207928E+00
         -1   -1    0    0    0  501 -0.00000000000E+00  0.00000000000E+00  0.17936297135E+03  0.17936297135E+03  0.00000000000E+00 0.  1.
          1   -1    0    0  501    0  0.00000000000E+00 -0.00000000000E+00 -0.30501910446E+03  0.30501910446E+03  0.00000000000E+00 0. -1.
         25    2    1    2    0    0  0.12260744299E+03 -0.26038922296E+02  0.10497922096E+03  0.20586019806E+03  0.12508866360E+03 0.  0.
          5    1    3    3  502    0  0.24647693393E+02 -0.33142890269E+02  0.99024040854E+02  0.10737407989E+03  0.41800000000E+01 0.  1.
         -5    1    3    3    0  502  0.97959749602E+02  0.71039679737E+01  0.59551801102E+01  0.98486118175E+02  0.41800000000E+01 0.  1.
        -11    1    1    2    0    0 -0.73355818749E+02 -0.24937205527E+02 -0.16333328042E+03  0.18077804307E+03  0.00000000000E+00 0. -1.
         11    1    1    2    0    0 -0.49251624245E+02  0.50976127823E+02 -0.67302073651E+02  0.97743834672E+02  0.00000000000E+00 0.  1.
</event>
<event>
 7    1  0.2530765E-009  0.1026978E+03  0.7561462E-02  0.1274723E+00
          2   -1    0    0  501    0  0.00000000000E+00  0.00000000000E+00  0.69103109607E+02  0.69103109607E+02  0.00000000000E+00 0. -1.
         -2   -1    0    0    0  501 -0.00000000000E+00 -0.00000000000E+00 -0.19870406696E+03  0.19870406696E+03  0.00000000000E+00 0.  1.
         25    2    1    2    0    0  0.19477355621E+02 -0.29686250044E+02 -0.42658704519E+02  0.13684927008E+03  0.12508923545E+03 0.  0.
          5    1    3    3  502    0  0.77670550065E+01 -0.78719216897E+02 -0.30017751775E+02  0.84708795729E+02  0.41800000000E+01 0. -1.
         -5    1    3    3    0  502  0.11710300615E+02  0.49032966852E+02 -0.12640952744E+02  0.52140474347E+02  0.41800000000E+01 0. -1.
        -11    1    1    2    0    0  0.21316225164E+02  0.27435613085E+02  0.16686793259E+00  0.34743663674E+02  0.00000000000E+00 0. -1.
         11    1    1    2    0    0 -0.40793580786E+02  0.22506369590E+01 -0.87109120767E+02  0.96214242817E+02  0.00000000000E+00 0.  1.
</event>
<event>
 7    1  0.2530765E-009  0.1315509E+03  0.7561462E-02  0.1225172E+00
         -2   -1    0    0    0  501 -0.00000000000E+00  0.00000000000E+00  0.52798799490E+02  0.52798799490E+02  0.00000000000E+00 0.  1.
          2   -1    0    0  501    0  0.00000000000E+00 -0.00000000000E+00 -0.39574597250E+03  0.39574597250E+03  0.00000000000E+00 0. -1.
         25    2    1    2    0    0  0.72478395446E+02 -0.61935470951E+02 -0.18726975523E+03  0.24455268649E+03  0.12508770875E+03 0.  0.
          5    1    3    3  502    0  0.10413762914E+03 -0.34949142358E+02 -0.10375857455E+03  0.15116018837E+03  0.41800000000E+01 0.  1.
         -5    1    3    3    0  502 -0.31659233693E+02 -0.26986328593E+02 -0.83511180677E+02  0.93392498130E+02  0.41800000000E+01 0.  1.
        -11    1    1    2    0    0 -0.17864285075E+02 -0.10444968886E+02 -0.89177789830E+02  0.91547300644E+02  0.00000000000E+00 0. -1.
         11    1    1    2    0    0 -0.54614110371E+02  0.72380439837E+02 -0.66499627959E+02  0.11244478486E+03  0.00000000000E+00 0.  1.
</event>
<event>
 7    1  0.2530765E-009  0.1683460E+03  0.7561462E-02  0.1179584E+00
         -3   -1    0    0    0  501 -0.00000000000E+00  0.00000000000E+00  0.35422671523E+02  0.35422671523E+02  0.00000000000E+00 0.  1.
          3   -1    0    0  501    0  0.00000000000E+00 -0.00000000000E+00 -0.93531866961E+03  0.93531866961E+03  0.00000000000E+00 0. -1.
         25    2    1    2    0    0  0.10243909415E+03  0.96117920622E+02 -0.36864603424E+03  0.41386529657E+03  0.12510860269E+03 0.  0.
          5    1    3    3  502    0  0.11171657780E+03  0.28452435767E+02 -0.18654049078E+03  0.21932843398E+03  0.41800000000E+01 0.  1.
         -5    1    3    3    0  502 -0.92774836470E+01  0.67665484855E+02 -0.18210554346E+03  0.19453686258E+03  0.41800000000E+01 0.  1.
        -11    1    1    2    0    0 -0.50680173832E+02 -0.86512955163E+02 -0.22773504302E+03  0.24882970331E+03  0.00000000000E+00 0.  1.
         11    1    1    2    0    0 -0.51758920317E+02 -0.96049654589E+01 -0.30351492083E+03  0.30804634126E+03  0.00000000000E+00 0. -1.
</event>
<event>
 7    1  0.2530765E-009  0.1241239E+03  0.7561462E-02  0.1236445E+00
         -2   -1    0    0    0  501 -0.00000000000E+00  0.00000000000E+00  0.15931996834E+02  0.15931996834E+02  0.00000000000E+00 0.  1.
          2   -1    0    0  501    0  0.00000000000E+00 -0.00000000000E+00 -0.12209156351E+04  0.12209156351E+04  0.00000000000E+00 0. -1.
         25    2    1    2    0    0  0.43854791015E+02  0.68004540716E+02 -0.80075814091E+03  0.81450080591E+03  0.12510036905E+03 0.  0.
          5    1    3    3  502    0 -0.40763101948E+02  0.23475180642E+02 -0.16671935819E+03  0.17327876784E+03  0.41800000000E+01 0.  1.
         -5    1    3    3    0  502  0.84617892962E+02  0.44529360074E+02 -0.63403878272E+03  0.64122203807E+03  0.41800000000E+01 0.  1.
        -11    1    1    2    0    0  0.90346205683E+01  0.84343019870E+01 -0.66206668303E+01  0.14021235612E+02  0.00000000000E+00 0.  1.
         11    1    1    2    0    0 -0.52889411583E+02 -0.76438842703E+02 -0.39760483056E+03  0.40832559045E+03  0.00000000000E+00 0. -1.
</event>
<event>
 7    1  0.2530765E-009  0.1274589E+03  0.7561462E-02  0.1231276E+00
         -2   -1    0    0    0  501 -0.00000000000E+00  0.00000000000E+00  0.11833748098E+03  0.11833748098E+03  0.00000000000E+00 0.  1.
          2   -1    0    0  501    0  0.00000000000E+00 -0.00000000000E+00 -0.18495603307E+03  0.18495603307E+03  0.00000000000E+00 0. -1.
         25    2    1    2    0    0 -0.78814244915E+02  0.38241648017E+02 -0.85358927235E+02  0.17494886524E+03  0.12508737005E+03 0.  0.
          5    1    3    3  502    0  0.14567292988E+02 -0.30748366833E+02 -0.74900491856E+01  0.35089048501E+02  0.41800000000E+01 0. -1.
         -5    1    3    3    0  502 -0.93381537902E+02  0.68990014850E+02 -0.77868878049E+02  0.13985981674E+03  0.41800000000E+01 0. -1.
        -11    1    1    2    0    0  0.45883646045E+02 -0.51487117092E+02 -0.23785812566E+02  0.72952019029E+02  0.00000000000E+00 0. -1.
         11    1    1    2    0    0  0.32930598869E+02  0.13245469075E+02  0.42526187705E+02  0.55392629777E+02  0.00000000000E+00 0.  1.
</event>
<event>
 7    1  0.2530765E-009  0.8007943E+02  0.7561462E-02  0.1328826E+00
          1   -1    0    0  501    0  0.00000000000E+00  0.00000000000E+00  0.12514445057E+03  0.12514445057E+03  0.00000000000E+00 0. -1.
         -1   -1    0    0    0  501 -0.00000000000E+00 -0.00000000000E+00 -0.11893219440E+03  0.11893219440E+03  0.00000000000E+00 0.  1.
         25    2    1    2    0    0 -0.13919962837E+02  0.50137687459E+02 -0.11602156151E+02  0.13597145716E+03  0.12508426786E+03 0.  0.
          5    1    3    3  502    0 -0.12888223553E+02  0.71130177453E+02  0.38118259656E+02  0.81829594707E+02  0.41800000000E+01 0.  1.
         -5    1    3    3    0  502 -0.10317392836E+01 -0.20992489993E+02 -0.49720415807E+02  0.54141862455E+02  0.41800000000E+01 0.  1.
        -11    1    1    2    0    0  0.10935659516E+02  0.43367285583E+01 -0.32083083267E+02  0.34171919694E+02  0.00000000000E+00 0.  1.
         11    1    1    2    0    0  0.29843033212E+01 -0.54474416018E+02  0.49897495589E+02  0.73933268106E+02  0.00000000000E+00 0. -1.
</event>
<event>
 7    1  0.2530765E-009  0.1160690E+03  0.7561462E-02  0.1249727E+00
         -3   -1    0    0    0  501 -0.00000000000E+00  0.00000000000E+00  0.43153108541E+03  0.43153108541E+03  0.00000000000E+00 0.  1.
          3   -1    0    0  501    0  0.00000000000E+00 -0.00000000000E+00 -0.33161780978E+02  0.33161780978E+02  0.00000000000E+00 0. -1.
         25    2    1    2    0    0 -0.47589472548E+02 -0.19123241826E+02  0.23680701053E+03  0.27268307439E+03  0.12509213623E+03 0.  0.
          5    1    3    3  502    0 -0.80492702572E+02  0.14982418433E+02  0.10958668679E+03  0.13685854869E+03  0.41800000000E+01 0.  1.
         -5    1    3    3    0  502  0.32903230024E+02 -0.34105660259E+02  0.12722032375E+03  0.13582452570E+03  0.41800000000E+01 0.  1.
        -11    1    1    2    0    0 -0.96199110922E+01  0.40411191518E+02  0.79916059011E+02  0.90067661106E+02  0.00000000000E+00 0.  1.
         11    1    1    2    0    0  0.57209383640E+02 -0.21287949692E+02  0.81646234884E+02  0.10194213088E+03  0.00000000000E+00 0. -1.
</event>
<event>
 7    1  0.2530765E-009  0.7873891E+02  0.7561462E-02  0.1332669E+00
         -1   -1    0    0    0  501 -0.00000000000E+00  0.00000000000E+00  0.24354149016E+02  0.24354149016E+02  0.00000000000E+00 0.  1.
          1   -1    0    0  501    0  0.00000000000E+00 -0.00000000000E+00 -0.10338397965E+04  0.10338397965E+04  0.00000000000E+00 0. -1.
         25    2    1    2    0    0  0.30242802959E+01  0.27948357983E+02 -0.92421626187E+03  0.93306668839E+03  0.12508992484E+03 0.  0.
          5    1    3    3  502    0  0.16271663221E+01 -0.39929618597E+02 -0.13313040476E+03  0.13906185380E+03  0.41800000000E+01 0.  1.
         -5    1    3    3    0  502  0.13971139738E+01  0.67877976580E+02 -0.79108585711E+03  0.79400483459E+03  0.41800000000E+01 0.  1.
        -11    1    1    2    0    0  0.17594235745E+02 -0.47189886308E+01 -0.91629558003E+02  0.93422705404E+02  0.00000000000E+00 0. -1.
         11    1    1    2    0    0 -0.20618516041E+02 -0.23229369352E+02  0.63601724243E+01  0.31704551684E+02  0.00000000000E+00 0.  1.
</event>
<event>
 7    1  0.2530765E-009  0.1075244E+03  0.7561462E-02  0.1265224E+00
         -2   -1    0    0    0  501 -0.00000000000E+00  0.00000000000E+00  0.32380821726E+02  0.32380821726E+02  0.00000000000E+00 0.  1.
          2   -1    0    0  501    0  0.00000000000E+00 -0.00000000000E+00 -0.39952833410E+03  0.39952833410E+03  0.00000000000E+00 0. -1.
         25    2    1    2    0    0  0.81933704452E+01 -0.38775431932E+02 -0.21202223184E+03  0.24934838685E+03  0.12510206149E+03 0.  0.
          5    1    3    3  502    0  0.65491603393E+02 -0.27582439405E+02 -0.13490611745E+03  0.15253548441E+03  0.41800000000E+01 0. -1.
         -5    1    3    3    0  502 -0.57298232948E+02 -0.11192992527E+02 -0.77116114393E+02  0.96812902444E+02  0.41800000000E+01 0. -1.
        -11    1    1    2    0    0 -0.28957064597E+02  0.52839513748E+02 -0.14200111016E+03  0.15425576517E+03  0.00000000000E+00 0.  1.
         11    1    1    2    0    0  0.20763694152E+02 -0.14064081816E+02 -0.13124170376E+02  0.28305003802E+02  0.00000000000E+00 0. -1.
</event>
<event>
 7    1  0.2530765E-009  0.1052609E+03  0.7561462E-02  0.1269606E+00
          2   -1    0    0  501    0  0.00000000000E+00  0.00000000000E+00  0.10030097798E+03  0.10030097798E+03  0.00000000000E+00 0. -1.
         -2   -1    0    0    0  501 -0.00000000000E+00 -0.00000000000E+00 -0.14490837050E+03  0.14490837050E+03  0.00000000000E+00 0.  1.
         25    2    1    2    0    0 -0.37490387819E+02 -0.31504120433E+02 -0.45455935586E+02  0.14181631752E+03  0.12509031558E+03 0.  0.
          5    1    3    3  502    0  0.44070631040E+02 -0.24927221242E+02 -0.69180659441E+01  0.51272984266E+02  0.41800000000E+01 0.  1.
         -5    1    3    3    0  502 -0.81561018859E+02 -0.65768991918E+01 -0.38537869642E+02  0.90543333255E+02  0.41800000000E+01 0.  1.
        -11    1    1    2    0    0 -0.15712043284E+02 -0.46068322708E+00  0.30723303063E+02  0.34510895154E+02  0.00000000000E+00 0. -1.
         11    1    1    2    0    0  0.53202431103E+02  0.31964803660E+02 -0.29874759995E+02  0.68882135805E+02  0.00000000000E+00 0.  1.
</event>
<event>
 7    1  0.2530765E-009  0.1535769E+03  0.7561462E-02  0.1196145E+00
          2   -1    0    0  501    0  0.00000000000E+00  0.00000000000E+00  0.15450145882E+04  0.15450145882E+04  0.00000000000E+00 0. -1.
         -2   -1    0    0    0  501 -0.00000000000E+00 -0.00000000000E+00 -0.19211920315E+02  0.19211920315E+02  0.00000000000E+00 0.  1.
         25    2    1    2    0    0 -0.13368499684E+03  0.18725269746E+01  0.83661551283E+03  0.85641604209E+03  0.12509091139E+03 0.  0.
          5    1    3    3  502    0 -0.33540950269E+02 -0.27128286046E+02  0.54454135320E+03  0.54626339525E+03  0.41800000000E+01 0.  1.
         -5    1    3    3    0  502 -0.10014404657E+03  0.29000813020E+02  0.29207415963E+03  0.31015264684E+03  0.41800000000E+01 0.  1.
        -11    1    1    2    0    0  0.30793880080E+02  0.38187095186E+02  0.16587980669E+03  0.17298158155E+03  0.00000000000E+00 0. -1.
         11    1    1    2    0    0  0.10289111676E+03 -0.40059622160E+02  0.52330734834E+03  0.53482888484E+03  0.00000000000E+00 0.  1.
</event>
<event>
 7    1  0.2530765E-009  0.8516981E+02  0.7561462E-02  0.1314989E+00
          1   -1    0    0  501    0  0.00000000000E+00  0.00000000000E+00  0.40396345557E+03  0.40396345557E+03  0.00000000000E+00 0. -1.
         -1   -1    0    0    0  501 -0.00000000000E+00 -0.00000000000E+00 -0.35305805717E+02  0.35305805717E+02  0.00000000000E+00 0.  1.
         25    2    1    2    0    0  0.44540166496E+02  0.21561500950E+01  0.17818719698E+03  0.22223164176E+03  0.12509096698E+03 0.  0.
          5    1    3    3  502    0  0.22420711027E+02 -0.27321998627E+02  0.18153457443E+03  0.18499041598E+03  0.41800000000E+01 0.  1.
         -5    1    3    3    0  502  0.22119455469E+02  0.29478148722E+02 -0.33473774451E+01  0.37241225786E+02  0.41800000000E+01 0.  1.
        -11    1    1    2    0    0 -0.49998719519E+02  0.34405139698E+02  0.79158725002E+02  0.99748129482E+02  0.00000000000E+00 0. -1.
         11    1    1    2    0    0  0.54585530231E+01 -0.36561289793E+02  0.11131172787E+03  0.11728949004E+03  0.00000000000E+00 0.  1.
</event>
<event>
 7    1  0.2530765E-009  0.1877579E+03  0.7561462E-02  0.1160499E+00
          2   -1    0    0  501    0  0.00000000000E+00  0.00000000000E+00  0.17837467916E+03  0.17837467916E+03  0.00000000000E+00 0. -1.
         -2   -1    0    0    0  501 -0.00000000000E+00 -0.00000000000E+00 -0.24314361344E+03  0.24314361344E+03  0.00000000000E+00 0.  1.
         25    2    1    2    0    0 -0.17090033673E+03  0.42666918949E+02 -0.11368622811E+02  0.21634180987E+03  0.12508853683E+03 0.  0.
          5    1    3    3  502    0 -0.10168660695E+03  0.25746565734E+01  0.51900525166E+02  0.11427130787E+03  0.41800000000E+01 0. -1.
         -5    1    3    3    0  502 -0.69213729781E+02  0.40092262376E+02 -0.63269147978E+02  0.10207050200E+03  0.41800000000E+01 0. -1.
        -11    1    1    2    0    0  0.65801622452E+02 -0.57612058786E+02 -0.45860214668E+02  0.98753036025E+02  0.00000000000E+00 0.  1.
         11    1    1    2    0    0  0.10509871428E+03  0.14945139836E+02 -0.75400968071E+01  0.10642344670E+03  0.00000000000E+00 0. -1.
</event>
<event>
 7    1  0.2530765E-009  0.9326194E+02  0.7561462E-02  0.1295139E+00
         -1   -1    0    0    0  501 -0.00000000000E+00  0.00000000000E+00  0.12309820303E+02  0.12309820303E+02  0.00000000000E+00 0.  1.
          1   -1    0    0  501    0  0.00000000000E+00 -0.00000000000E+00 -0.12700986760E+04  0.12700986760E+04  0.00000000000E+00 0. -1.
         25    2    1    2    0    0  0.50126494836E+02 -0.10585592720E+02 -0.87110527964E+03  0.88153065925E+03  0.12508866748E+03 0.  0.
          5    1    3    3  502    0  0.11641745248E+02  0.28115092556E+02 -0.50541001249E+02  0.59142656933E+02  0.41800000000E+01 0. -1.
         -5    1    3    3    0  502  0.38484749588E+02 -0.38700685276E+02 -0.82056427839E+03  0.82238800232E+03  0.41800000000E+01 0. -1.
        -11    1    1    2    0    0  0.69897298394E+01  0.37346556898E+02 -0.20667537825E+03  0.21013884365E+03  0.00000000000E+00 0. -1.
         11    1    1    2    0    0 -0.57116224676E+02 -0.26760964178E+02 -0.18000819781E+03  0.19073899340E+03  0.00000000000E+00 0.  1.
</event>
<event>
 7    1  0.2530765E-009  0.1073140E+03  0.7561462E-02  0.1265626E+00
         -1   -1    0    0    0  501 -0.00000000000E+00  0.00000000000E+00  0.82070415445E+02  0.82070415445E+02  0.00000000000E+00 0.  1.
          1   -1    0    0  501    0  0.00000000000E+00 -0.00000000000E+00 -0.25598637925E+03  0.25598637925E+03  0.00000000000E+00 0. -1.
         25    2    1    2    0    0  0.58654119099E+02  0.19445439413E+02 -0.98022597889E+01  0.13986211000E+03  0.12508754820E+03 0.  0.
          5    1    3    3  502    0  0.90804270558E+02  0.37655415394E+02  0.78427363477E+01  0.98703225750E+02  0.41800000000E+01 0. -1.
         -5    1    3    3    0  502 -0.32150151459E+02 -0.18209975981E+02 -0.17644996137E+02  0.41158884251E+02  0.41800000000E+01 0. -1.
        -11    1    1    2    0    0 -0.10352948597E+01  0.12922702552E+02  0.70204732702E+01  0.14742968549E+02  0.00000000000E+00 0.  1.
         11    1    1    2    0    0 -0.57618824239E+02 -0.32368141965E+02 -0.17113417729E+03  0.18345171615E+03  0.00000000000E+00 0. -1.
</event>
<event>
 7    1  0.2530765E-009  0.6967514E+02  0.7561462E-02  0.1361201E+00
          1   -1    0    0  501    0  0.00000000000E+00  0.00000000000E+00  0.41103901695E+02  0.41103901695E+02  0.00000000000E+00 0. -1.
         -1   -1    0    0    0  501 -0.00000000000E+00 -0.00000000000E+00 -0.37451489055E+03  0.37451489055E+03  0.00000000000E+00 0.  1.
         25    2    1    2    0    0  0.30408526921E+02 -0.34564767970E+02 -0.16170498199E+03  0.20956160825E+03  0.12509262472E+03 0.  0.
          5    1    3    3  502    0  0.55851175430E+02 -0.87639386457E+01 -0.16349284207E+03  0.17304202445E+03  0.41800000000E+01 0.  1.
         -5    1    3    3    0  502 -0.25442648509E+02 -0.25800829324E+02  0.17878600865E+01  0.36519583796E+02  0.41800000000E+01 0.  1.
        -11    1    1    2    0    0 -0.83615183573E+01  0.71210901134E+01  0.13575056741E+02  0.17461588678E+02  0.00000000000E+00 0. -1.
         11    1    1    2    0    0 -0.22047008564E+02  0.27443677856E+02 -0.18528106361E+03  0.18859559532E+03  0.00000000000E+00 0.  1.
</event>
<event>
 7    1  0.2530765E-009  0.5589657E+02  0.7561462E-02  0.1415906E+00
         -2   -1    0    0    0  501 -0.00000000000E+00  0.00000000000E+00  0.22271790616E+02  0.22271790616E+02  0.00000000000E+00 0.  1.
          2   -1    0    0  501    0  0.00000000000E+00 -0.00000000000E+00 -0.80481918225E+03  0.80481918225E+03  0.00000000000E+00 0. -1.
         25    2    1    2    0    0  0.24904888064E+02 -0.16274435947E+02 -0.65773768499E+03  0.67019011843E+03  0.12510324486E+03 0.  0.
          5    1    3    3  502    0  0.21284443406E+02  0.72024617310E+01 -0.15766796993E+02  0.27766297439E+02  0.41800000000E+01 0.  1.
         -5    1    3    3    0  502  0.36204446584E+01 -0.23476897678E+02 -0.64197088799E+03  0.64242382099E+03  0.41800000000E+01 0.  1.
        -11    1    1    2    0    0 -0.30764957212E+02 -0.14129665982E+02 -0.63291317043E+01  0.34441079558E+02  0.00000000000E+00 0.  1.
         11    1    1    2    0    0  0.58600691481E+01  0.30404101929E+02 -0.11848057494E+03  0.12245977488E+03  0.00000000000E+00 0. -1.
</event>
<event>
 7    1  0.2530765E-009  0.1235561E+03  0.7561462E-02  0.1237343E+00
         -4   -1    0    0    0  501 -0.00000000000E+00  0.00000000000E+00  0.44955490574E+02  0.44955490574E+02  0.00000000000E+00 0.  1.
          4   -1    0    0  501    0  0.00000000000E+00 -0.00000000000E+00 -0.40939346992E+03  0.40939346992E+03  0.00000000000E+00 0. -1.
         25    2    1    2    0    0 -0.10298386536E+02  0.74189261594E+02 -0.24825541264E+03  0.28790418371E+03  0.12509182942E+03 0.  0.
          5    1    3    3  502    0  0.51935414253E+02  0.84917294347E+01 -0.11770608042E+03  0.12900228870E+03  0.41800000000E+01 0.  1.
         -5    1    3    3    0  502 -0.62233800789E+02  0.65697532159E+02 -0.13054933222E+03  0.15890189501E+03  0.41800000000E+01 0.  1.
        -11    1    1    2    0    0  0.32540229179E+02 -0.74492842570E+01 -0.34456669995E+01  0.33559364894E+02  0.00000000000E+00 0.  1.
         11    1    1    2    0    0 -0.22241842643E+02 -0.66739977337E+02 -0.11273689970E+03  0.13288541189E+03  0.00000000000E+00 0. -1.
</event>
<event>
 7    1  0.2530765E-009  0.1400549E+03  0.7561462E-02  0.1213255E+00
          2   -1    0    0  501    0  0.00000000000E+00  0.00000000000E+00  0.47411136404E+03  0.47411136404E+03  0.00000000000E+00 0. -1.
         -2   -1    0    0    0  501 -0.00000000000E+00 -0.00000000000E+00 -0.51399717008E+02  0.51399717008E+02  0.00000000000E+00 0.  1.
         25    2    1    2    0    0 -0.99860917784E+02 -0.37434414110E+02  0.26657178136E+03  0.31317973740E+03  0.12508994779E+03 0.  0.
          5    1    3    3  502    0 -0.39954650334E+02  0.42255427386E+02  0.14246588525E+03  0.15393471372E+03  0.41800000000E+01 0.  1.
         -5    1    3    3    0  502 -0.59906267450E+02 -0.79689841496E+02  0.12410589611E+03  0.15924502368E+03  0.41800000000E+01 0.  1.
        -11    1    1    2    0    0  0.48735710006E+02 -0.12757086295E+02  0.12637850091E+02  0.51938694009E+02  0.00000000000E+00 0.  1.
         11    1    1    2    0    0  0.51125207779E+02  0.50191500405E+02  0.14350201558E+03  0.16039264964E+03  0.00000000000E+00 0. -1.
</event>
<event>
 7    1  0.2530765E-009  0.1707261E+03  0.7561462E-02  0.1177093E+00
         -3   -1    0    0    0  501 -0.00000000000E+00  0.00000000000E+00  0.12448392910E+03  0.12448392910E+03  0.00000000000E+00 0.  1.
          3   -1    0    0  501    0  0.00000000000E+00 -0.00000000000E+00 -0.28152248229E+03  0.28152248229E+03  0.00000000000E+00 0. -1.
         25    2    1    2    0    0  0.14638711613E+03  0.39397449452E+02 -0.91172830933E+02  0.21665939602E+03  0.12508981570E+03 0.  0.
          5    1    3    3  502    0  0.16252761277E+03  0.31110748361E+02 -0.10266109006E+03  0.19478160947E+03  0.41800000000E+01 0.  1.
         -5    1    3    3    0  502 -0.16140496638E+02  0.82867010908E+01  0.11488259123E+02  0.21877786551E+02  0.41800000000E+01 0.  1.
        -11    1    1    2    0    0 -0.34228244389E+02 -0.28638056483E+02 -0.62276108443E+02  0.76616086273E+02  0.00000000000E+00 0. -1.
         11    1    1    2    0    0 -0.11215887174E+03 -0.10759392969E+02 -0.35896138136E+01  0.11273092910E+03  0.00000000000E+00 0.  1.
</event>
<event>
 7    1  0.2530765E-009  0.2933143E+03  0.7561462E-02  0.1088631E+00
         -2   -1    0    0    0  501 -0.00000000000E+00  0.00000000000E+00  0.72875954382E+02  0.72875954382E+02  0.00000000000E+00 0.  1.
          2   -1    0    0  501    0  0.00000000000E+00 -0.00000000000E+00 -0.11924101489E+04  0.11924101489E+04  0.00000000000E+00 0. -1.
         25    2    1    2    0    0 -0.26172481565E+03  0.75175951587E+02 -0.60708000477E+03  0.67701132291E+03  0.12508755464E+03 0.  0.
          5    1    3    3  502    0 -0.18272305588E+03  0.10979355834E+03 -0.43974987083E+03  0.48871235087E+03  0.41800000000E+01 0.  1.
         -5    1    3    3    0  502 -0.79001759764E+02 -0.34617606749E+02 -0.16733013394E+03  0.18829897203E+03  0.41800000000E+01 0.  1.
        -11    1    1    2    0    0  0.20032584905E+03 -0.96114044494E+02 -0.42259863104E+03  0.47744943010E+03  0.00000000000E+00 0.  1.
         11    1    1    2    0    0  0.61398966596E+02  0.20938092908E+02 -0.89855558726E+02  0.11082535029E+03  0.00000000000E+00 0. -1.
</event>
<event>
 7    1  0.2530765E-009  0.1112522E+03  0.7561462E-02  0.1258268E+00
         -1   -1    0    0    0  501 -0.00000000000E+00  0.00000000000E+00  0.82334062277E+02  0.82334062277E+02  0.00000000000E+00 0.  1.
          1   -1    0    0  501    0  0.00000000000E+00 -0.00000000000E+00 -0.17871061737E+03  0.17871061737E+03  0.00000000000E+00 0. -1.
         25    2    1    2    0    0 -0.38336395740E+02 -0.49959965464E+02 -0.52732686582E+02  0.14964666750E+03  0.12509081290E+03 0.  0.
          5    1    3    3  502    0 -0.65890026314E+02  0.10437196620E+02 -0.49271813323E+02  0.83039837603E+02  0.41800000000E+01 0. -1.
         -5    1    3    3    0  502  0.27553630574E+02 -0.60397162084E+02 -0.34608732596E+01  0.66606829900E+02  0.41800000000E+01 0. -1.
        -11    1    1    2    0    0  0.54026628855E+02  0.24691428455E+02 -0.53623204697E+02  0.80024942028E+02  0.00000000000E+00 0. -1.
         11    1    1    2    0    0 -0.15690233115E+02  0.25268537008E+02  0.99793361870E+01  0.31373070116E+02  0.00000000000E+00 0.  1.
</event>
<event>
 7    1  0.2530765E-009  0.1012171E+03  0.7561462E-02  0.1277757E+00
          2   -1    0    0  501    0  0.00000000000E+00  0.00000000000E+00  0.58751102391E+03  0.58751102391E+03  0.00000000000E+00 0. -1.
         -2   -1    0    0    0  501 -0.00000000000E+00 -0.00000000000E+00 -0.82393087120E+02  0.82393087120E+02  0.00000000000E+00 0.  1.
         25    2    1    2    0    0 -0.50085161707E+02  0.33122120814E+02  0.53830918390E+03  0.55590455807E+03  0.12508997523E+03 0.  0.
          5    1    3    3  502    0 -0.30276725582E+02 -0.34463956638E+02  0.80976457667E+02  0.93161706272E+02  0.41800000000E+01 0. -1.
         -5    1    3    3    0  502 -0.19808436125E+02  0.67586077453E+02  0.45733272623E+03  0.46274285180E+03  0.41800000000E+01 0. -1.
        -11    1    1    2    0    0  0.40117352045E+02  0.10174783714E+02  0.18930280993E+02  0.45511357892E+02  0.00000000000E+00 0. -1.
         11    1    1    2    0    0  0.99678096619E+01 -0.43296904529E+02 -0.52121528105E+02  0.68488195065E+02  0.00000000000E+00 0.  1.
</event>
<event>
 7    1  0.2530765E-009  0.1060633E+03  0.7561462E-02  0.1268039E+00
         -1   -1    0    0    0  501 -0.00000000000E+00  0.00000000000E+00  0.48739461733E+02  0.48739461733E+02  0.00000000000E+00 0.  1.
          1   -1    0    0  501    0  0.00000000000E+00 -0.00000000000E+00 -0.29652032812E+03  0.29652032812E+03  0.00000000000E+00 0. -1.
         25    2    1    2    0    0 -0.24571673282E+02  0.46161897632E+02 -0.12673761124E+03  0.18559977903E+03  0.12510063129E+03 0.  0.
          5    1    3    3  502    0 -0.60894542812E+02  0.59078300566E+02 -0.47359072016E+02  0.97256079729E+02  0.41800000000E+01 0.  1.
         -5    1    3    3    0  502  0.36322869530E+02 -0.12916402933E+02 -0.79378539229E+02  0.88343699299E+02  0.41800000000E+01 0.  1.
        -11    1    1    2    0    0 -0.24455354948E+02 -0.63992857977E+01 -0.81126303627E+02  0.84973480478E+02  0.00000000000E+00 0. -1.
         11    1    1    2    0    0  0.49027028230E+02 -0.39762611835E+02 -0.39916951514E+02  0.74686530346E+02  0.00000000000E+00 0.  1.
</event>
<event>
 7    1  0.2530765E-009  0.8945113E+02  0.7561462E-02  0.1304186E+00
         -1   -1    0    0    0  501 -0.00000000000E+00  0.00000000000E+00  0.88097373783E+02  0.88097373783E+02  0.00000000000E+00 0.  1.
          1   -1    0    0  501    0  0.00000000000E+00 -0.00000000000E+00 -0.14396381079E+03  0.14396381079E+03  0.00000000000E+00 0. -1.
         25    2    1    2    0    0  0.38677332708E+01  0.12906638652E+02 -0.60391038851E+02  0.13956099693E+03  0.12509457865E+03 0.  0.
          5    1    3    3  502    0 -0.28293606197E+02 -0.38285997653E+02  0.77023926673E+01  0.48406043225E+02  0.41800000000E+01 0. -1.
         -5    1    3    3    0  502  0.32161339468E+02  0.51192636305E+02 -0.68093431519E+02  0.91154953701E+02  0.41800000000E+01 0. -1.
        -11    1    1    2    0    0 -0.33557727598E+02  0.76261424766E+01  0.32110868380E+02  0.47067897751E+02  0.00000000000E+00 0.  1.
         11    1    1    2    0    0  0.29689994327E+02 -0.20532781129E+02 -0.27586266540E+02  0.45432289900E+02  0.00000000000E+00 0. -1.
</event>
<event>
 7    1  0.2530765E-009  0.2395621E+03  0.7561462E-02  0.1120085E+00
          2   -1    0    0  501    0  0.00000000000E+00  0.00000000000E+00  0.42310743476E+03  0.42310743476E+03  0.00000000000E+00 0. -1.
         -2   -1    0    0    0  501 -0.00000000000E+00 -0.00000000000E+00 -0.16331623810E+03  0.16331623810E+03  0.00000000000E+00 0.  1.
         25    2    1    2    0    0 -0.15498351613E+03  0.15879371470E+03  0.34109657528E+02  0.25699530355E+03  0.12509109964E+03 0.  0.
          5    1    3    3  502    0 -0.77333035383E+02  0.14121477625E+03 -0.17527836006E+02  0.16200836036E+03  0.41800000000E+01 0.  1.
         -5    1    3    3    0  502 -0.77650480743E+02  0.17578938450E+02  0.51637493534E+02  0.94986943182E+02  0.41800000000E+01 0.  1.
        -11    1    1    2    0    0  0.97589015162E+02 -0.38223295377E+02  0.80344168046E+02  0.13205991643E+03  0.00000000000E+00 0.  1.
         11    1    1    2    0    0  0.57394500964E+02 -0.12057041932E+03  0.14533737109E+03  0.19736845288E+03  0.00000000000E+00 0. -1.
</event>
<event>
 7    1  0.2530765E-009  0.3386252E+03  0.7561462E-02  0.1067383E+00
          2   -1    0    0  501    0  0.00000000000E+00  0.00000000000E+00  0.22057095547E+03  0.22057095547E+03  0.00000000000E+00 0.  1.
         -2   -1    0    0    0  501 -0.00000000000E+00 -0.00000000000E+00 -0.54873899154E+03  0.54873899154E+03  0.00000000000E+00 0. -1.
         25    2    1    2    0    0 -0.16998411509E+03 -0.28100590913E+03 -0.13131704047E+03  0.37516720930E+03  0.12508936593E+03 0.  0.
          5    1    3    3  502    0 -0.37659092469E+02 -0.17238748406E+03 -0.39537325454E+02  0.18087654467E+03  0.41800000000E+01 0.  1.
         -5    1    3    3    0  502 -0.13232502262E+03 -0.10861842507E+03 -0.91779715016E+02  0.19429066463E+03  0.41800000000E+01 0.  1.
        -11    1    1    2    0    0  0.10032011239E+03  0.14008766883E+03 -0.15428426568E+03  0.23128405596E+03  0.00000000000E+00 0. -1.
         11    1    1    2    0    0  0.69664002699E+02  0.14091824030E+03 -0.42566729928E+02  0.16285868174E+03  0.00000000000E+00 0.  1.
</event>
<event>
 7    1  0.2530765E-009  0.1648355E+03  0.7561462E-02  0.1183343E+00
          2   -1    0    0  501    0  0.00000000000E+00  0.00000000000E+00  0.65944575997E+02  0.65944575997E+02  0.00000000000E+00 0. -1.
         -2   -1    0    0    0  501 -0.00000000000E+00 -0.00000000000E+00 -0.53981470464E+03  0.53981470464E+03  0.00000000000E+00 0.  1.
         25    2    1    2    0    0 -0.78059644535E+02  0.10232323836E+03 -0.38563208377E+03  0.42535176191E+03  0.12509462063E+03 0.  0.
          5    1    3    3  502    0 -0.10209867334E+03  0.35349345975E+02 -0.23824654854E+03  0.26163448865E+03  0.41800000000E+01 0.  1.
         -5    1    3    3    0  502  0.24039028808E+02  0.66973892390E+02 -0.14738553523E+03  0.16371727326E+03  0.41800000000E+01 0.  1.
        -11    1    1    2    0    0  0.44537139820E+02 -0.21026342315E+01 -0.52435194187E+02  0.68828972704E+02  0.00000000000E+00 0.  1.
         11    1    1    2    0    0  0.33522504715E+02 -0.10022060413E+03 -0.35802850680E+02  0.11157854602E+03  0.00000000000E+00 0. -1.
</event>
<event>
 7    1  0.2530765E-009  0.1118072E+03  0.7561462E-02  0.1257259E+00
          2   -1    0    0  501    0  0.00000000000E+00  0.00000000000E+00  0.14399105053E+03  0.14399105053E+03  0.00000000000E+00 0. -1.
         -2   -1    0    0    0  501 -0.00000000000E+00 -0.00000000000E+00 -0.97488223568E+02  0.97488223568E+02  0.00000000000E+00 0.  1.
         25    2    1    2    0    0 -0.25902211359E+02 -0.37172656717E+02  0.42782598254E+02  0.13975174092E+03  0.12508983738E+03 0.  0.
          5    1    3    3  502    0  0.57260108083E+01 -0.79476362561E+02  0.21374596175E+02  0.82605236925E+02  0.41800000000E+01 0.  1.
         -5    1    3    3    0  502 -0.31628222167E+02  0.42303705844E+02  0.21408002079E+02  0.57146503993E+02  0.41800000000E+01 0.  1.
        -11    1    1    2    0    0 -0.17542330771E+02 -0.14903840776E+02  0.21626948459E+02  0.31584533215E+02  0.00000000000E+00 0.  1.
         11    1    1    2    0    0  0.43444542130E+02  0.52076497493E+02 -0.17906719751E+02  0.70142999966E+02  0.00000000000E+00 0. -1.
</event>
<event>
 7    1  0.2530765E-009  0.1152562E+03  0.7561462E-02  0.1251135E+00
          1   -1    0    0  501    0  0.00000000000E+00  0.00000000000E+00  0.35883042090E+03  0.35883042090E+03  0.00000000000E+00 0. -1.
         -1   -1    0    0    0  501 -0.00000000000E+00 -0.00000000000E+00 -0.46939197902E+02  0.46939197902E+02  0.00000000000E+00 0.  1.
         25    2    1    2    0    0 -0.68612013200E+02 -0.91979628942E+01  0.20561149735E+03  0.25043155425E+03  0.12509062573E+03 0.  0.
          5    1    3    3  502    0 -0.59189343135E+02  0.48918582650E+02  0.76517165783E+02  0.10848389341E+03  0.41800000000E+01 0.  1.
         -5    1    3    3    0  502 -0.94226700650E+01 -0.58116545544E+02  0.12909433156E+03  0.14194766084E+03  0.41800000000E+01 0.  1.
        -11    1    1    2    0    0  0.33453180445E+02 -0.27837539897E+02  0.92837461807E+02  0.10253213264E+03  0.00000000000E+00 0. -1.
         11    1    1    2    0    0  0.35158832755E+02  0.37035502791E+02  0.13442263845E+02  0.52805931910E+02  0.00000000000E+00 0.  1.
</event>
<event>
 7    1  0.2530765E-009  0.1130373E+03  0.7561462E-02  0.1255046E+00
         -2   -1    0    0    0  501 -0.00000000000E+00  0.00000000000E+00  0.18946862177E+02  0.18946862177E+02  0.00000000000E+00 0.  1.
          2   -1    0    0  501    0  0.00000000000E+00 -0.00000000000E+00 -0.13709278658E+04  0.13709278658E+04  0.00000000000E+00 0. -1.
         25    2    1    2    0    0  0.53278801091E+02  0.46648309986E+02 -0.11310330329E+04  0.11401306784E+04  0.12509015546E+03 0.  0.
          5    1    3    3  502    0  0.23962658181E+02  0.70222949455E+02 -0.10223052282E+04  0.10250028895E+04  0.41800000000E+01 0. -1.
         -5    1    3    3    0  502  0.29316142910E+02 -0.23574639469E+02 -0.10872780470E+03  0.11512778889E+03  0.41800000000E+01 0. -1.
        -11    1    1    2    0    0 -0.72484471842E+02 -0.10862771507E+02 -0.11604011240E+03  0.13724906611E+03  0.00000000000E+00 0.  1.
         11    1    1    2    0    0  0.19205670751E+02 -0.35785538479E+02 -0.10490785840E+03  0.11249498347E+03  0.00000000000E+00 0. -1.
</event>
<event>
 7    1  0.2530765E-009  0.1143317E+03  0.7561462E-02  0.1252752E+00
         -2   -1    0    0    0  501 -0.00000000000E+00  0.00000000000E+00  0.99282961237E+01  0.99282961237E+01  0.00000000000E+00 0.  1.
          2   -1    0    0  501    0  0.00000000000E+00 -0.00000000000E+00 -0.13602784737E+04  0.13602784737E+04  0.00000000000E+00 0. -1.
         25    2    1    2    0    0  0.40220740132E+02 -0.12140057897E+01 -0.86167219945E+03  0.87163443432E+03  0.12509366906E+03 0.  0.
          5    1    3    3  502    0 -0.43498999279E+02 -0.12260844459E+02 -0.36593980282E+03  0.36874368189E+03  0.41800000000E+01 0. -1.
         -5    1    3    3    0  502  0.83719739411E+02  0.11046838669E+02 -0.49573239663E+03  0.50289075243E+03  0.41800000000E+01 0. -1.
        -11    1    1    2    0    0  0.16190304559E+02  0.30972408495E+02 -0.16207900236E+03  0.16580415874E+03  0.00000000000E+00 0.  1.
         11    1    1    2    0    0 -0.56411044692E+02 -0.29758402705E+02 -0.32659897575E+03  0.33276817675E+03  0.00000000000E+00 0. -1.
</event>
<event>
 7    1  0.2530765E-009  0.3807460E+03  0.7561462E-02  0.1050658E+00
         -2   -1    0    0    0  501 -0.00000000000E+00  0.00000000000E+00  0.69121565214E+03  0.69121565214E+03  0.00000000000E+00 0.  1.
          2   -1    0    0  501    0  0.00000000000E+00 -0.00000000000E+00 -0.24506983350E+03  0.24506983350E+03  0.00000000000E+00 0. -1.
         25    2    1    2    0    0  0.37250110396E+03  0.45054997807E+02  0.78743998300E+02  0.40327977355E+03  0.12508770208E+03 0.  0.
          5    1    3    3  502    0  0.28758279513E+03  0.38813839431E+02  0.45356594737E+01  0.29025578856E+03  0.41800000000E+01 0. -1.
         -5    1    3    3    0  502  0.84918308827E+02  0.62411583765E+01  0.74208338827E+02  0.11302398499E+03  0.41800000000E+01 0. -1.
        -11    1    1    2    0    0 -0.13261520272E+03  0.27433031053E+02  0.13545578714E+03  0.19154016147E+03  0.00000000000E+00 0.  1.
         11    1    1    2    0    0 -0.23988590123E+03 -0.72488028860E+02  0.23194603320E+03  0.34146555062E+03  0.00000000000E+00 0. -1.
</event>
<event>
 7    1  0.2530765E-009  0.2112885E+03  0.7561462E-02  0.1140550E+00
          2   -1    0    0  501    0  0.00000000000E+00  0.00000000000E+00  0.98683420813E+02  0.98683420813E+02  0.00000000000E+00 0. -1.
         -2   -1    0    0    0  501 -0.00000000000E+00 -0.00000000000E+00 -0.53864063608E+03  0.53864063608E+03  0.00000000000E+00 0.  1.
         25    2    1    2    0    0  0.18572160234E+03  0.46501381997E+02 -0.11950936941E+03  0.25804275560E+03  0.12509469308E+03 0.  0.
          5    1    3    3  502    0  0.62428168807E+02 -0.39850105252E+02 -0.62599603654E+02  0.97064359715E+02  0.41800000000E+01 0. -1.
         -5    1    3    3    0  502  0.12329343354E+03  0.86351487249E+02 -0.56909765760E+02  0.16097839589E+03  0.41800000000E+01 0. -1.
        -11    1    1    2    0    0 -0.84758905239E+02 -0.46859418433E+02 -0.11487662432E+03  0.15025483663E+03  0.00000000000E+00 0.  1.
         11    1    1    2    0    0 -0.10096269710E+03  0.35803643521E+00 -0.20557122153E+03  0.22902646467E+03  0.00000000000E+00 0. -1.
</event>
<event>
 7    1  0.2530765E-009  0.1062105E+03  0.7561462E-02  0.1267753E+00
         -1   -1    0    0    0  501 -0.00000000000E+00  0.00000000000E+00  0.30308531913E+02  0.30308531913E+02  0.00000000000E+00 0.  1.
          1   -1    0    0  501    0  0.00000000000E+00 -0.00000000000E+00 -0.62455693654E+03  0.62455693654E+03  0.00000000000E+00 0. -1.
         25    2    1    2    0    0  0.31962329362E+02  0.61370908003E+02 -0.41436604361E+03  0.43833175508E+03  0.12509008980E+03 0.  0.
          5    1    3    3  502    0  0.73359438194E+02  0.77109727869E+01 -0.18782579982E+03  0.20183426307E+03  0.41800000000E+01 0. -1.
         -5    1    3    3    0  502 -0.41397108832E+02  0.53659935216E+02 -0.22654024379E+03  0.23649749200E+03  0.41800000000E+01 0. -1.
        -11    1    1    2    0    0 -0.63751912600E+01 -0.27267418639E+02  0.35361795884E+01  0.28225161628E+02  0.00000000000E+00 0.  1.
         11    1    1    2    0    0 -0.25587138102E+02 -0.34103489364E+02 -0.18341854061E+03  0.18830855175E+03  0.00000000000E+00 0. -1.
</event>
<event>
 7    1  0.2530765E-009  0.2019235E+03  0.7561462E-02  0.1148126E+00
          1   -1    0    0  501    0  0.00000000000E+00  0.00000000000E+00  0.43315860860E+03  0.43315860860E+03  0.00000000000E+00 0. -1.
         -1   -1    0    0    0  501 -0.00000000000E+00 -0.00000000000E+00 -0.11963801850E+03  0.11963801850E+03  0.00000000000E+00 0.  1.
         25    2    1    2    0    0 -0.37030417071E+02 -0.18446641280E+03  0.23534353015E+03  0.32624046526E+03  0.12508858760E+03 0.  0.
          5    1    3    3  502    0  0.58350480666E+01 -0.22319532891E+02 -0.12794461927E+02  0.26709174275E+02  0.41800000000E+01 0.  1.
         -5    1    3    3    0  502 -0.42865465138E+02 -0.16214687991E+03  0.24813799208E+03  0.29953129099E+03  0.41800000000E+01 0.  1.
        -11    1    1    2    0    0 -0.29254579763E+02  0.10576434096E+03  0.41345819518E+02  0.11726637646E+03  0.00000000000E+00 0.  1.
         11    1    1    2    0    0  0.66284996834E+02  0.78702071842E+02  0.36831240423E+02  0.10928978538E+03  0.00000000000E+00 0. -1.
</event>
<event>
 7    1  0.2530765E-009  0.1088523E+03  0.7561462E-02  0.1262710E+00
          2   -1    0    0  501    0  0.00000000000E+00  0.00000000000E+00  0.10012243473E+03  0.10012243473E+03  0.00000000000E+00 0. -1.
         -2   -1    0    0    0  501 -0.00000000000E+00 -0.00000000000E+00 -0.21076581147E+03  0.21076581147E+03  0.00000000000E+00 0.  1.
         25    2    1    2    0    0 -0.21160784575E+01 -0.85820733684E+02 -0.14122334383E+02  0.15237803607E+03  0.12509975791E+03 0.  0.
          5    1    3    3  502    0  0.77185578834E+01 -0.10723807685E+03  0.21243676805E+02  0.10967382307E+03  0.41800000000E+01 0.  1.
         -5    1    3    3    0  502 -0.98346363409E+01  0.21417343168E+02 -0.35366011188E+02  0.42704212997E+02  0.41800000000E+01 0.  1.
        -11    1    1    2    0    0  0.33961150438E+01  0.16789004370E+02  0.17961191772E+02  0.24819522054E+02  0.00000000000E+00 0. -1.
         11    1    1    2    0    0 -0.12800365864E+01  0.69031729314E+02 -0.11448223414E+03  0.13369068808E+03  0.00000000000E+00 0.  1.
</event>
<event>
 7    1  0.2530765E-009  0.1401466E+03  0.7561462E-02  0.1213132E+00
         -2   -1    0    0    0  501 -0.00000000000E+00  0.00000000000E+00  0.20077717079E+03  0.20077717079E+03  0.00000000000E+00 0.  1.
          2   -1    0    0  501    0  0.00000000000E+00 -0.00000000000E+00 -0.10398244078E+03  0.10398244078E+03  0.00000000000E+00 0. -1.
         25    2    1    2    0    0  0.48475495854E+02 -0.79085701098E+02  0.78146249146E+02  0.17422601262E+03  0.12507375985E+03 0.  0.
          5    1    3    3  502    0  0.77275937398E+02 -0.10747968805E+02  0.22161798185E+02  0.81213958362E+02  0.41800000000E+01 0. -1.
         -5    1    3    3    0  502 -0.28800441544E+02 -0.68337732293E+02  0.55984450961E+02  0.93012054259E+02  0.41800000000E+01 0. -1.
        -11    1    1    2    0    0  0.19283488469E+02  0.51021838803E+02  0.17152252136E+02  0.57177624257E+02  0.00000000000E+00 0. -1.
         11    1    1    2    0    0 -0.67758984323E+02  0.28063862295E+02  0.14962287263E+01  0.73355974697E+02  0.00000000000E+00 0.  1.
</event>
<event>
 7    1  0.2530765E-009  0.1211448E+03  0.7561462E-02  0.1241220E+00
          1   -1    0    0  501    0  0.00000000000E+00  0.00000000000E+00  0.87568962027E+03  0.87568962027E+03  0.00000000000E+00 0. -1.
         -1   -1    0    0    0  501 -0.00000000000E+00 -0.00000000000E+00 -0.21224178485E+02  0.21224178485E+02  0.00000000000E+00 0.  1.
         25    2    1    2    0    0 -0.58067549882E+02 -0.55081793980E+02  0.56358625113E+03  0.58282366918E+03  0.12509245587E+03 0.  0.
          5    1    3    3  502    0 -0.26706099195E+01  0.30995891333E+02  0.27115948062E+03  0.27297035328E+03  0.41800000000E+01 0. -1.
         -5    1    3    3    0  502 -0.55396939962E+02 -0.86077685313E+02  0.29242677051E+03  0.30985331591E+03  0.41800000000E+01 0. -1.
        -11    1    1    2    0    0  0.45710438425E+02  0.73331339485E+02  0.27088126158E+03  0.28433006771E+03  0.00000000000E+00 0. -1.
         11    1    1    2    0    0  0.12357111457E+02 -0.18249545504E+02  0.19997929076E+02  0.29760061861E+02  0.00000000000E+00 0.  1.
</event>
<event>
 7    1  0.2530765E-009  0.9841585E+02  0.7561462E-02  0.1283663E+00
         -1   -1    0    0    0  501 -0.00000000000E+00  0.00000000000E+00  0.16197751003E+03  0.16197751003E+03  0.00000000000E+00 0.  1.
          1   -1    0    0  501    0  0.00000000000E+00 -0.00000000000E+00 -0.77691401826E+02  0.77691401826E+02  0.00000000000E+00 0. -1.
         25    2    1    2    0    0 -0.17393962205E+02  0.93694851455E+01  0.68707857051E+02  0.14407702331E+03  0.12508829622E+03 0.  0.
          5    1    3    3  502    0  0.42215897235E+02  0.18099480509E+02 -0.76206122348E+01  0.46747398911E+02  0.41800000000E+01 0.  1.
         -5    1    3    3    0  502 -0.59609859440E+02 -0.87299953638E+01  0.76328469286E+02  0.97329624396E+02  0.41800000000E+01 0.  1.
        -11    1    1    2    0    0  0.40433030413E+02  0.26026548289E+02  0.21988751697E+02  0.52874534186E+02  0.00000000000E+00 0.  1.
         11    1    1    2    0    0 -0.23039068208E+02 -0.35396033434E+02 -0.64105005421E+01  0.42717354365E+02  0.00000000000E+00 0. -1.
</event>
<event>
 7    1  0.2530765E-009  0.7612690E+02  0.7561462E-02  0.1340416E+00
         -3   -1    0    0    0  501 -0.00000000000E+00  0.00000000000E+00  0.28214914338E+02  0.28214914338E+02  0.00000000000E+00 0.  1.
          3   -1    0    0  501    0  0.00000000000E+00 -0.00000000000E+00 -0.47205894760E+03  0.47205894760E+03  0.00000000000E+00 0. -1.
         25    2    1    2    0    0  0.29750602743E+02  0.22307822955E+02 -0.25859214790E+03  0.28965287266E+03  0.12508457281E+03 0.  0.
          5    1    3    3  502    0  0.11505576079E+02  0.29618089325E+02 -0.26623271476E+03  0.26815469473E+03  0.41800000000E+01 0. -1.
         -5    1    3    3    0  502  0.18245026664E+02 -0.73102663701E+01  0.76405668600E+01  0.21498177930E+02  0.41800000000E+01 0. -1.
        -11    1    1    2    0    0  0.33498408754E+02 -0.15176465593E+01 -0.66629607513E+02  0.74591897934E+02  0.00000000000E+00 0. -1.
         11    1    1    2    0    0 -0.63249011497E+02 -0.20790176395E+02 -0.11862227784E+03  0.13602909134E+03  0.00000000000E+00 0.  1.
</event>
<event>
 7    1  0.2530765E-009  0.1071435E+03  0.7561462E-02  0.1265953E+00
         -1   -1    0    0    0  501 -0.00000000000E+00  0.00000000000E+00  0.31178897463E+02  0.31178897463E+02  0.00000000000E+00 0.  1.
          1   -1    0    0  501    0  0.00000000000E+00 -0.00000000000E+00 -0.39947644975E+03  0.39947644975E+03  0.00000000000E+00 0. -1.
         25    2    1    2    0    0 -0.17502199522E+02  0.14755542716E+02 -0.17107262099E+03  0.21316008439E+03  0.12508927569E+03 0.  0.
          5    1    3    3  502    0  0.18302284090E+02 -0.49797945932E+02 -0.70207473396E+02  0.88098642115E+02  0.41800000000E+01 0. -1.
         -5    1    3    3    0  502 -0.35804483612E+02  0.64553488648E+02 -0.10086514760E+03  0.12506144227E+03  0.41800000000E+01 0. -1.
        -11    1    1    2    0    0  0.13967995910E+02  0.34774785818E+02 -0.52609879645E+02  0.64592492402E+02  0.00000000000E+00 0. -1.
         11    1    1    2    0    0  0.35342036117E+01 -0.49530328534E+02 -0.14461505165E+03  0.15290277043E+03  0.00000000000E+00 0.  1.
</event>
<event>
 7    1  0.2530765E-009  0.1335200E+03  0.7561462E-02  0.1222324E+00
          2   -1    0    0  501    0  0.00000000000E+00  0.00000000000E+00  0.58491187426E+03  0.58491187426E+03  0.00000000000E+00 0. -1.
         -2   -1    0    0    0  501 -0.00000000000E+00 -0.00000000000E+00 -0.57751579665E+02  0.57751579665E+02  0.00000000000E+00 0.  1.
         25    2    1    2    0    0  0.34047774306E+02  0.94661262052E+02  0.44862528387E+03  0.47647839068E+03  0.12508799300E+03 0.  0.
          5    1    3    3  502    0  0.56505502310E+02  0.11268827317E+03  0.30711233935E+03  0.33200448804E+03  0.41800000000E+01 0. -1.
         -5    1    3    3    0  502 -0.22457728004E+02 -0.18027011119E+02  0.14151294452E+03  0.14447390264E+03  0.41800000000E+01 0. -1.
        -11    1    1    2    0    0  0.88173774365E+01 -0.46527886426E+02 -0.17534133841E+02  0.50497883220E+02  0.00000000000E+00 0.  1.
         11    1    1    2    0    0 -0.42865151743E+02 -0.48133375626E+02  0.96069144567E+02  0.11568718002E+03  0.00000000000E+00 0. -1.
</event>
<event>
 7    1  0.2530765E-009  0.1748304E+03  0.7561462E-02  0.1172902E+00
         -1   -1    0    0    0  501 -0.00000000000E+00  0.00000000000E+00  0.20418831611E+03  0.20418831611E+03  0.00000000000E+00 0.  1.
          1   -1    0    0  501    0  0.00000000000E+00 -0.00000000000E+00 -0.15140975773E+03  0.15140975773E+03  0.00000000000E+00 0. -1.
         25    2    1    2    0    0  0.79365968229E+02 -0.11094989184E+03  0.10306120975E+02  0.18536788397E+03  0.12508477471E+03 0.  0.
          5    1    3    3  502    0  0.49612385924E+02  0.17797860919E+02  0.31035757923E+01  0.52964679486E+02  0.41800000000E+01 0. -1.
         -5    1    3    3    0  502  0.29753582305E+02 -0.12874775276E+03  0.72025451823E+01  0.13240320448E+03  0.41800000000E+01 0. -1.
        -11    1    1    2    0    0  0.10484450180E+02  0.60768163512E+02  0.11246361251E+02  0.62683123993E+02  0.00000000000E+00 0.  1.
         11    1    1    2    0    0 -0.89850418409E+02  0.50181728328E+02  0.31226076150E+02  0.10754706587E+03  0.00000000000E+00 0. -1.
</event>
<event>
 7    1  0.2530765E-009  0.2522390E+03  0.7561462E-02  0.1111898E+00
         -2   -1    0    0    0  501 -0.00000000000E+00  0.00000000000E+00  0.40444333770E+02  0.40444333770E+02  0.00000000000E+00 0.  1.
          2   -1    0    0  501    0  0.00000000000E+00 -0.00000000000E+00 -0.17991392446E+04  0.17991392446E+04  0.00000000000E+00 0. -1.
         25    2    1    2    0    0  0.20569150332E+03 -0.10840803945E+03 -0.62239511923E+03  0.67608033495E+03  0.12509051647E+03 0.  0.
          5    1    3    3  502    0  0.17529015327E+03 -0.34221982096E+02 -0.48622388719E+03  0.51800475168E+03  0.41800000000E+01 0. -1.
         -5    1    3    3    0  502  0.30401350052E+02 -0.74186057350E+02 -0.13617123205E+03  0.15807558327E+03  0.41800000000E+01 0. -1.
        -11    1    1    2    0    0 -0.44840498394E+02  0.64956533810E+02 -0.26885637725E+03  0.28020309272E+03  0.00000000000E+00 0.  1.
         11    1    1    2    0    0 -0.16085100493E+03  0.43451505635E+02 -0.86744341431E+03  0.88330015066E+03  0.00000000000E+00 0. -1.
</event>
<event>
 7    1  0.2530765E-009  0.1038521E+03  0.7561462E-02  0.1272398E+00
         -1   -1    0    0    0  501 -0.00000000000E+00  0.00000000000E+00  0.45891687288E+02  0.45891687288E+02  0.00000000000E+00 0.  1.
          1   -1    0    0  501    0  0.00000000000E+00 -0.00000000000E+00 -0.27267373587E+03  0.27267373587E+03  0.00000000000E+00 0. -1.
         25    2    1    2    0    0  0.60032942408E+01  0.12517337192E+02 -0.97716403918E+02  0.15933769839E+03  0.12508910128E+03 0.  0.
          5    1    3    3  502    0 -0.81190896855E+01 -0.51765978803E+02 -0.17303295157E+02  0.55339972913E+02  0.41800000000E+01 0.  1.
         -5    1    3    3    0  502  0.14122383926E+02  0.64283315994E+02 -0.80413108761E+02  0.10399772547E+03  0.41800000000E+01 0.  1.
        -11    1    1    2    0    0 -0.37231447144E+02  0.21515337869E+02 -0.85644654792E+02  0.95833696133E+02  0.00000000000E+00 0. -1.
         11    1    1    2    0    0  0.31228152904E+02 -0.34032675061E+02 -0.43420989872E+02  0.63394028639E+02  0.00000000000E+00 0.  1.
</event>
<event>
 7    1  0.2530765E-009  0.6752802E+02  0.7561462E-02  0.1368707E+00
          1   -1    0    0  501    0  0.00000000000E+00  0.00000000000E+00  0.66493357317E+03  0.66493357317E+03  0.00000000000E+00 0. -1.
         -1   -1    0    0    0  501 -0.00000000000E+00 -0.00000000000E+00 -0.22036069648E+02  0.22036069648E+02  0.00000000000E+00 0.  1.
         25    2    1    2    0    0 -0.42513892413E+02 -0.40051575775E+01  0.45353746180E+03  0.47240708821E+03  0.12509498552E+03 0.  0.
          5    1    3    3  502    0  0.17461378654E+02 -0.10787689748E+01  0.34529453028E+01  0.18315532159E+02  0.41800000000E+01 0.  1.
         -5    1    3    3    0  502 -0.59975271067E+02 -0.29263886027E+01  0.45008451650E+03  0.45409155606E+03  0.41800000000E+01 0.  1.
        -11    1    1    2    0    0  0.12276637874E+02 -0.16335796797E+02 -0.12761328063E+01  0.20474437951E+02  0.00000000000E+00 0.  1.
         11    1    1    2    0    0  0.30237254539E+02  0.20340954374E+02  0.19063617453E+03  0.19408811666E+03  0.00000000000E+00 0. -1.
</event>
<event>
 7    1  0.2530765E-009  0.1464909E+03  0.7561462E-02  0.1204852E+00
          1   -1    0    0  501    0  0.00000000000E+00  0.00000000000E+00  0.14051543115E+03  0.14051543115E+03  0.00000000000E+00 0. -1.
         -1   -1    0    0    0  501 -0.00000000000E+00 -0.00000000000E+00 -0.18746033972E+03  0.18746033972E+03  0.00000000000E+00 0.  1.
         25    2    1    2    0    0 -0.97476022096E+02  0.50684360777E+02  0.24140546570E+02  0.16822946802E+03  0.12509160088E+03 0.  0.
          5    1    3    3  502    0 -0.12870383736E+02  0.73760076255E+02  0.28748969898E+02  0.80312958461E+02  0.41800000000E+01 0.  1.
         -5    1    3    3    0  502 -0.84605638360E+02 -0.23075715477E+02 -0.46084233288E+01  0.87916509557E+02  0.41800000000E+01 0.  1.
        -11    1    1    2    0    0  0.70451347716E+02  0.25462037718E+01 -0.49775577308E+01  0.70672849310E+02  0.00000000000E+00 0. -1.
         11    1    1    2    0    0  0.27024674379E+02 -0.53230564549E+02 -0.66107897402E+02  0.89073453545E+02  0.00000000000E+00 0.  1.
</event>
<event>
 7    1  0.2530765E-009  0.1112921E+03  0.7561462E-02  0.1258196E+00
         -1   -1    0    0    0  501 -0.00000000000E+00  0.00000000000E+00  0.47555176353E+02  0.47555176353E+02  0.00000000000E+00 0.  1.
          1   -1    0    0  501    0  0.00000000000E+00 -0.00000000000E+00 -0.27288367803E+03  0.27288367803E+03  0.00000000000E+00 0. -1.
         25    2    1    2    0    0 -0.19786018029E+02 -0.19839861993E+02 -0.15637472272E+03  0.20220195960E+03  0.12508985541E+03 0.  0.
          5    1    3    3  502    0 -0.28321176847E+02 -0.70630659023E+02 -0.99965276771E+02  0.12570325378E+03  0.41800000000E+01 0. -1.
         -5    1    3    3    0  502  0.85351588189E+01  0.50790797030E+02 -0.56409445954E+02  0.76498705818E+02  0.41800000000E+01 0. -1.
        -11    1    1    2    0    0  0.52893851875E+02 -0.52579680114E+01 -0.48384972994E+02  0.71878448824E+02  0.00000000000E+00 0.  1.
         11    1    1    2    0    0 -0.33107833846E+02  0.25097830004E+02 -0.20568805956E+02  0.46358445955E+02  0.00000000000E+00 0. -1.
</event>
<event>
 7    1  0.2553344E-009  0.1047074E+03  0.7561462E-02  0.1270697E+00
         -1   -1    0    0    0  501 -0.00000000000E+00  0.00000000000E+00  0.81966419192E+02  0.81966419192E+02  0.00000000000E+00 0.  1.
          1   -1    0    0  501    0  0.00000000000E+00 -0.00000000000E+00 -0.25744546328E+03  0.25744546328E+03  0.00000000000E+00 0. -1.
         25    2    1    2    0    0 -0.64907574031E+02  0.53525641908E+00 -0.12015734256E+02  0.14143806523E+03  0.12508824389E+03 0.  0.
          5    1    3    3  502    0 -0.81619172075E+02  0.37242584953E+00  0.36830819217E+02  0.89642677311E+02  0.41800000000E+01 0. -1.
         -5    1    3    3    0  502  0.16711598044E+02  0.16283056955E+00 -0.48846553473E+02  0.51795387914E+02  0.41800000000E+01 0. -1.
        -11    1    1    2    0    0  0.31230473725E+02  0.44413965615E+02 -0.65766802671E+02  0.85283147012E+02  0.00000000000E+00 0.  1.
         11    1    1    2    0    0  0.33677100306E+02 -0.44949222034E+02 -0.97696507161E+02  0.11269067024E+03  0.00000000000E+00 0. -1.
</event>
<event>
 7    1  0.2530765E-009  0.1313878E+03  0.7561462E-02  0.1225411E+00
          1   -1    0    0  501    0  0.00000000000E+00  0.00000000000E+00  0.36277194874E+03  0.36277194874E+03  0.00000000000E+00 0. -1.
         -1   -1    0    0    0  501 -0.00000000000E+00 -0.00000000000E+00 -0.54898753050E+02  0.54898753050E+02  0.00000000000E+00 0.  1.
         25    2    1    2    0    0  0.41421763753E+02  0.76991534317E+02  0.12805367645E+03  0.19921904389E+03  0.12508806708E+03 0.  0.
          5    1    3    3  502    0  0.27513691749E+02 -0.25687567780E+02  0.48502647461E+01  0.38181826046E+02  0.41800000000E+01 0. -1.
         -5    1    3    3    0  502  0.13908072004E+02  0.10267910210E+03  0.12320341171E+03  0.16103721784E+03  0.41800000000E+01 0. -1.
        -11    1    1    2    0    0 -0.66350625625E+02 -0.43063801886E+02  0.13828981775E+03  0.15931406168E+03  0.00000000000E+00 0. -1.
         11    1    1    2    0    0  0.24928861872E+02 -0.33927732431E+02  0.41529701488E+02  0.59137596230E+02  0.00000000000E+00 0.  1.
</event>
<event>
 7    1  0.2530765E-009  0.1454763E+03  0.7561462E-02  0.1206144E+00
         -2   -1    0    0    0  501 -0.00000000000E+00  0.00000000000E+00  0.47141339119E+02  0.47141339119E+02  0.00000000000E+00 0.  1.
          2   -1    0    0  501    0  0.00000000000E+00 -0.00000000000E+00 -0.14794870369E+04  0.14794870369E+04  0.00000000000E+00 0. -1.
         25    2    1    2    0    0  0.64444263959E+02  0.84894922974E+02 -0.13533157230E+04  0.13632575253E+04  0.12508965980E+03 0.  0.
          5    1    3    3  502    0 -0.29503053117E+02  0.42189109791E+02 -0.69202157562E+03  0.69394645661E+03  0.41800000000E+01 0.  1.
         -5    1    3    3    0  502  0.93947317077E+02  0.42705813184E+02 -0.66129414737E+03  0.66931106865E+03  0.41800000000E+01 0.  1.
        -11    1    1    2    0    0 -0.80531429024E+02 -0.88370743718E+02 -0.84068876978E+02  0.14615839176E+03  0.00000000000E+00 0. -1.
         11    1    1    2    0    0  0.16087165065E+02  0.34758207435E+01  0.50389021811E+01  0.17212459001E+02  0.00000000000E+00 0.  1.
</event>
<event>
 7    1  0.2530765E-009  0.8780974E+02  0.7561462E-02  0.1308244E+00
         -3   -1    0    0    0  501 -0.00000000000E+00  0.00000000000E+00  0.37682671710E+02  0.37682671710E+02  0.00000000000E+00 0.  1.
          3   -1    0    0  501    0  0.00000000000E+00 -0.00000000000E+00 -0.63108644661E+03  0.63108644661E+03  0.00000000000E+00 0. -1.
         25    2    1    2    0    0 -0.27465529873E+02 -0.34041186943E+02 -0.10307579656E+03  0.16789020915E+03  0.12509734111E+03 0.  0.
          5    1    3    3  502    0 -0.18964647071E+02  0.15133026254E+02 -0.11400502995E+03  0.11663312384E+03  0.41800000000E+01 0. -1.
         -5    1    3    3    0  502 -0.85008828018E+01 -0.49174213197E+02  0.10929233395E+02  0.51257085311E+02  0.41800000000E+01 0. -1.
        -11    1    1    2    0    0 -0.33628065925E+02  0.83750172168E+01 -0.13189298332E+03  0.13636988957E+03  0.00000000000E+00 0.  1.
         11    1    1    2    0    0  0.61093595798E+02  0.25666169727E+02 -0.35843499502E+03  0.36450901960E+03  0.00000000000E+00 0. -1.
</event>
<event>
 7    1  0.2530765E-009  0.1072493E+03  0.7561462E-02  0.1265750E+00
         -1   -1    0    0    0  501 -0.00000000000E+00  0.00000000000E+00  0.95500171762E+03  0.95500171762E+03  0.00000000000E+00 0.  1.
          1   -1    0    0  501    0  0.00000000000E+00 -0.00000000000E+00 -0.16037271470E+02  0.16037271470E+02  0.00000000000E+00 0. -1.
         25    2    1    2    0    0 -0.24457978042E+02 -0.35438118635E+02  0.69628267715E+03  0.70873883368E+03  0.12508842841E+03 0.  0.
          5    1    3    3  502    0  0.39256726676E+02  0.22805827542E+02  0.21922745388E+03  0.22391816651E+03  0.41800000000E+01 0. -1.
         -5    1    3    3    0  502 -0.63714704718E+02 -0.58243946177E+02  0.47705522327E+03  0.48482066717E+03  0.41800000000E+01 0. -1.
        -11    1    1    2    0    0 -0.16166539387E+01  0.51716451865E+02  0.70801969060E+02  0.87693350867E+02  0.00000000000E+00 0. -1.
         11    1    1    2    0    0  0.26074631980E+02 -0.16278333230E+02  0.17187979994E+03  0.17460680454E+03  0.00000000000E+00 0.  1.
</event>
<event>
 7    1  0.2530765E-009  0.9781228E+02  0.7561462E-02  0.1284965E+00
         -1   -1    0    0    0  501 -0.00000000000E+00  0.00000000000E+00  0.56952781605E+02  0.56952781605E+02  0.00000000000E+00 0.  1.
          1   -1    0    0  501    0  0.00000000000E+00 -0.00000000000E+00 -0.24032873118E+03  0.24032873118E+03  0.00000000000E+00 0. -1.
         25    2    1    2    0    0  0.60134169302E+01 -0.47361589718E+02 -0.73366437998E+02  0.15267483235E+03  0.12509072246E+03 0.  0.
          5    1    3    3  502    0  0.32030485693E+02 -0.65396340365E+02 -0.30426937708E+00  0.72939689653E+02  0.41800000000E+01 0.  1.
         -5    1    3    3    0  502 -0.26017068762E+02  0.18034750648E+02 -0.73062168621E+02  0.79735142700E+02  0.41800000000E+01 0.  1.
        -11    1    1    2    0    0 -0.39083696319E+02  0.90014168962E+01 -0.30712888205E+02  0.50515763144E+02  0.00000000000E+00 0.  1.
         11    1    1    2    0    0  0.33070279389E+02  0.38360172821E+02 -0.79296623370E+02  0.94090917286E+02  0.00000000000E+00 0. -1.
</event>
<event>
 7    1  0.2530765E-009  0.9557738E+02  0.7561462E-02  0.1289881E+00
         -2   -1    0    0    0  501 -0.00000000000E+00  0.00000000000E+00  0.20386212145E+02  0.20386212145E+02  0.00000000000E+00 0.  1.
          2   -1    0    0  501    0  0.00000000000E+00 -0.00000000000E+00 -0.73708195748E+03  0.73708195748E+03  0.00000000000E+00 0. -1.
         25    2    1    2    0    0 -0.20732446737E+02  0.50190756396E+02 -0.46530851156E+03  0.48487994749E+03  0.12509039203E+03 0.  0.
          5    1    3    3  502    0 -0.10150727591E+02  0.66007733870E+02 -0.45978445431E+03  0.46462810400E+03  0.41800000000E+01 0.  1.
         -5    1    3    3    0  502 -0.10581719147E+02 -0.15816977473E+02 -0.55240572507E+01  0.20251843496E+02  0.41800000000E+01 0.  1.
        -11    1    1    2    0    0 -0.21869210851E+02 -0.57512674847E+02 -0.13259989375E+03  0.14618037479E+03  0.00000000000E+00 0.  1.
         11    1    1    2    0    0  0.42601657589E+02  0.73219184507E+01 -0.11878734003E+03  0.12640784734E+03  0.00000000000E+00 0. -1.
</event>
<event>
 7    1  0.2530765E-009  0.7312181E+02  0.7561462E-02  0.1349788E+00
          2   -1    0    0  501    0  0.00000000000E+00  0.00000000000E+00  0.36204678464E+03  0.36204678464E+03  0.00000000000E+00 0. -1.
         -2   -1    0    0    0  501 -0.00000000000E+00 -0.00000000000E+00 -0.46646055963E+02  0.46646055963E+02  0.00000000000E+00 0.  1.
         25    2    1    2    0    0  0.17861149514E+01 -0.19143187801E+00  0.28869331521E+03  0.31463295831E+03  0.12508733492E+03 0.  0.
          5    1    3    3  502    0  0.26193597370E+02 -0.20803959178E+02  0.27894046388E+03  0.28097004120E+03  0.41800000000E+01 0.  1.
         -5    1    3    3    0  502 -0.24407482419E+02  0.20612527300E+02  0.97528513311E+01  0.33662917117E+02  0.41800000000E+01 0.  1.
        -11    1    1    2    0    0 -0.38630118229E+02  0.13823828186E+02 -0.78088544824E+01  0.41765565582E+02  0.00000000000E+00 0.  1.
         11    1    1    2    0    0  0.36844003277E+02 -0.13632396308E+02  0.34516267946E+02  0.52294316704E+02  0.00000000000E+00 0. -1.
</event>
<event>
 7    1  0.2889183E-009  0.1083347E+03  0.7561462E-02  0.1263685E+00
          1   -1    0    0  501    0  0.00000000000E+00  0.00000000000E+00  0.97228277174E+03  0.97228277174E+03  0.00000000000E+00 0. -1.
         -1   -1    0    0    0  501 -0.00000000000E+00 -0.00000000000E+00 -0.15851948079E+02  0.15851948079E+02  0.00000000000E+00 0.  1.
         25    2    1    2    0    0  0.52919178206E+02 -0.28606431565E+02  0.54877215817E+03  0.56605319471E+03  0.12508625147E+03 0.  0.
          5    1    3    3  502    0  0.58916673692E+02  0.16784033655E+02  0.11975288708E+03  0.13457750402E+03  0.41800000000E+01 0. -1.
         -5    1    3    3    0  502 -0.59974954862E+01 -0.45390465219E+02  0.42901927110E+03  0.43147569069E+03  0.41800000000E+01 0. -1.
        -11    1    1    2    0    0 -0.16830666053E+02  0.59469308985E+02  0.23960349127E+03  0.24744636401E+03  0.00000000000E+00 0.  1.
         11    1    1    2    0    0 -0.36088512153E+02 -0.30862877420E+02  0.16805517422E+03  0.17463516110E+03  0.00000000000E+00 0. -1.
</event>
<event>
 7    1  0.2530765E-009  0.2123500E+03  0.7561462E-02  0.1139718E+00
          1   -1    0    0  501    0  0.00000000000E+00  0.00000000000E+00  0.12535037021E+03  0.12535037021E+03  0.00000000000E+00 0. -1.
         -1   -1    0    0    0  501 -0.00000000000E+00 -0.00000000000E+00 -0.42887645472E+03  0.42887645472E+03  0.00000000000E+00 0.  1.
         25    2    1    2    0    0 -0.19855686294E+03 -0.37280763712E+02 -0.22920455064E+03  0.33014757898E+03  0.12509202495E+03 0.  0.
          5    1    3    3  502    0  0.29502525808E+01 -0.19225958902E+02 -0.69701960110E+02  0.72485702929E+02  0.41800000000E+01 0.  1.
         -5    1    3    3    0  502 -0.20150711552E+03 -0.18054804811E+02 -0.15950259053E+03  0.25766187605E+03  0.41800000000E+01 0.  1.
        -11    1    1    2    0    0  0.97360217236E+02  0.24918608499E+02 -0.69167001352E+02  0.12200009437E+03  0.00000000000E+00 0.  1.
         11    1    1    2    0    0  0.10119664570E+03  0.12362155214E+02 -0.51545325074E+01  0.10207915158E+03  0.00000000000E+00 0. -1.
</event>
<event>
 7    1  0.2530765E-009  0.9958124E+02  0.7561462E-02  0.1281179E+00
          2   -1    0    0  501    0  0.00000000000E+00  0.00000000000E+00  0.28223810420E+02  0.28223810420E+02  0.00000000000E+00 0. -1.
         -2   -1    0    0    0  501 -0.00000000000E+00 -0.00000000000E+00 -0.63428345622E+03  0.63428345622E+03  0.00000000000E+00 0.  1.
         25    2    1    2    0    0 -0.40310372381E+02  0.53310751362E+02 -0.42197751640E+03  0.44517567995E+03  0.12509755929E+03 0.  0.
          5    1    3    3  502    0 -0.62975915483E+02 -0.29938946438E+01 -0.32200809931E+03  0.32814877382E+03  0.41800000000E+01 0. -1.
         -5    1    3    3    0  502  0.22665543102E+02  0.56304646006E+02 -0.99969417083E+02  0.11702690613E+03  0.41800000000E+01 0. -1.
        -11    1    1    2    0    0  0.51085275380E+01 -0.35165290587E+02 -0.17242459553E+03  0.17604810667E+03  0.00000000000E+00 0.  1.
         11    1    1    2    0    0  0.35201844843E+02 -0.18145460775E+02 -0.11657533867E+02  0.41283480024E+02  0.00000000000E+00 0. -1.
</event>
<event>
 7    1  0.2530765E-009  0.7527470E+02  0.7561462E-02  0.1343022E+00
          2   -1    0    0  501    0  0.00000000000E+00  0.00000000000E+00  0.33899253857E+02  0.33899253857E+02  0.00000000000E+00 0.  1.
         -2   -1    0    0    0  501 -0.00000000000E+00 -0.00000000000E+00 -0.37322070011E+03  0.37322070011E+03  0.00000000000E+00 0. -1.
         25    2    1    2    0    0  0.17908065095E+02 -0.25004863657E+02 -0.19075060745E+03  0.23017249406E+03  0.12509053032E+03 0.  0.
          5    1    3    3  502    0  0.29429048939E+01  0.38350218144E+02 -0.12975958445E+02  0.40807448076E+02  0.41800000000E+01 0.  1.
         -5    1    3    3    0  502  0.14965160201E+02 -0.63355081800E+02 -0.17777464901E+03  0.18936504598E+03  0.41800000000E+01 0.  1.
        -11    1    1    2    0    0  0.29721943642E+01  0.25567324602E+02 -0.15337042016E+03  0.15551529766E+03  0.00000000000E+00 0. -1.
         11    1    1    2    0    0 -0.20880259459E+02 -0.56246094518E+00  0.47995813602E+01  0.21432162248E+02  0.00000000000E+00 0.  1.
</event>
<event>
 7    1  0.2530765E-009  0.1517049E+03  0.7561462E-02  0.1198394E+00
         -2   -1    0    0    0  501 -0.00000000000E+00  0.00000000000E+00  0.85311547854E+02  0.85311547854E+02  0.00000000000E+00 0.  1.
          2   -1    0    0  501    0  0.00000000000E+00 -0.00000000000E+00 -0.28550219458E+03  0.28550219458E+03  0.00000000000E+00 0. -1.
         25    2    1    2    0    0  0.62631276644E+02  0.92823743957E+02 -0.10612025482E+03  0.19861514310E+03  0.12509013682E+03 0.  0.
          5    1    3    3  502    0  0.59957183727E+02  0.12321455061E+03 -0.87129484098E+02  0.16243678390E+03  0.41800000000E+01 0.  1.
         -5    1    3    3    0  502  0.26740929175E+01 -0.30390806656E+02 -0.18990770719E+02  0.36178359203E+02  0.41800000000E+01 0.  1.
        -11    1    1    2    0    0 -0.11223539630E+02 -0.82286261710E+02 -0.27608555806E+02  0.87517021554E+02  0.00000000000E+00 0.  1.
         11    1    1    2    0    0 -0.51407737015E+02 -0.10537482247E+02 -0.66461836103E+02  0.84681577779E+02  0.00000000000E+00 0. -1.
</event>
<event>
 7    1  0.2530765E-009  0.1355581E+03  0.7561462E-02  0.1219434E+00
          1   -1    0    0  501    0  0.00000000000E+00  0.00000000000E+00  0.13492557223E+04  0.13492557223E+04  0.00000000000E+00 0. -1.
         -1   -1    0    0    0  501 -0.00000000000E+00 -0.00000000000E+00 -0.14565063977E+02  0.14565063977E+02  0.00000000000E+00 0.  1.
         25    2    1    2    0    0  0.24356126283E+02 -0.84377025914E+02  0.69262040643E+03  0.70928388056E+03  0.12509153620E+03 0.  0.
          5    1    3    3  502    0  0.47580379337E+02  0.96581444468E+01  0.34397024290E+03  0.34740491167E+03  0.41800000000E+01 0. -1.
         -5    1    3    3    0  502 -0.23224253055E+02 -0.94035170361E+02  0.34865016353E+03  0.36187896889E+03  0.41800000000E+01 0. -1.
        -11    1    1    2    0    0 -0.37844584894E+01  0.99707582124E+02  0.54908004763E+03  0.55807241714E+03  0.00000000000E+00 0. -1.
         11    1    1    2    0    0 -0.20571667793E+02 -0.15330556210E+02  0.92990204301E+02  0.96464488624E+02  0.00000000000E+00 0.  1.
</event>
<event>
 7    1  0.2530765E-009  0.1060081E+03  0.7561462E-02  0.1268146E+00
          3   -1    0    0  501    0  0.00000000000E+00  0.00000000000E+00  0.34822660760E+02  0.34822660760E+02  0.00000000000E+00 0. -1.
         -3   -1    0    0    0  501 -0.00000000000E+00 -0.00000000000E+00 -0.41209898381E+03  0.41209898381E+03  0.00000000000E+00 0.  1.
         25    2    1    2    0    0 -0.36627192785E+02 -0.11349490033E+02 -0.22733032321E+03  0.26229430696E+03  0.12509542531E+03 0.  0.
          5    1    3    3  502    0 -0.78784101371E+02 -0.10658840765E+02 -0.18930404592E+03  0.20536318979E+03  0.41800000000E+01 0. -1.
         -5    1    3    3    0  502  0.42156908586E+02 -0.69064926830E+00 -0.38026277290E+02  0.56931117172E+02  0.41800000000E+01 0. -1.
        -11    1    1    2    0    0 -0.18559584355E+02  0.26916475238E+02 -0.10997040456E+03  0.11472769801E+03  0.00000000000E+00 0.  1.
         11    1    1    2    0    0  0.55186777140E+02 -0.15566985205E+02 -0.39975595276E+02  0.69899639607E+02  0.00000000000E+00 0. -1.
</event>
<event>
 7    1  0.2530765E-009  0.9432089E+02  0.7561462E-02  0.1292713E+00
          1   -1    0    0  501    0  0.00000000000E+00  0.00000000000E+00  0.13841136000E+04  0.13841136000E+04  0.00000000000E+00 0. -1.
         -1   -1    0    0    0  501 -0.00000000000E+00 -0.00000000000E+00 -0.10693042354E+02  0.10693042354E+02  0.00000000000E+00 0.  1.
         25    2    1    2    0    0 -0.46820310688E+02  0.19056273978E+02  0.89089063608E+03  0.90104837402E+03  0.12508702490E+03 0.  0.
          5    1    3    3  502    0 -0.64287746423E+02  0.10118626595E+02  0.86865816118E+03  0.87110261986E+03  0.41800000000E+01 0.  1.
         -5    1    3    3    0  502  0.17467435735E+02  0.89376473828E+01  0.22232474897E+02  0.29945754156E+02  0.41800000000E+01 0.  1.
        -11    1    1    2    0    0 -0.24355837258E+02  0.10209328666E+02  0.91875143090E+02  0.95595392767E+02  0.00000000000E+00 0.  1.
         11    1    1    2    0    0  0.71176147946E+02 -0.29265602644E+02  0.39065477851E+03  0.39816287560E+03  0.00000000000E+00 0. -1.
</event>
<event>
 7    1  0.2530765E-009  0.1563961E+03  0.7561462E-02  0.1192827E+00
         -1   -1    0    0    0  501 -0.00000000000E+00  0.00000000000E+00  0.71548919325E+03  0.71548919325E+03  0.00000000000E+00 0.  1.
          1   -1    0    0  501    0  0.00000000000E+00 -0.00000000000E+00 -0.36789718264E+02  0.36789718264E+02  0.00000000000E+00 0. -1.
         25    2    1    2    0    0 -0.18935469643E+02  0.11828011944E+03  0.33123344685E+03  0.37378188955E+03  0.12509422840E+03 0.  0.
          5    1    3    3  502    0  0.38427628634E+02  0.92047634904E+02  0.13697458214E+03  0.16949618959E+03  0.41800000000E+01 0. -1.
         -5    1    3    3    0  502 -0.57363098277E+02  0.26232484531E+02  0.19425886471E+03  0.20428569996E+03  0.41800000000E+01 0. -1.
        -11    1    1    2    0    0  0.47270896745E+02 -0.11076127266E+03  0.26870930816E+03  0.29446101523E+03  0.00000000000E+00 0. -1.
         11    1    1    2    0    0 -0.28335427102E+02 -0.75188467732E+01  0.78756719985E+02  0.84036006739E+02  0.00000000000E+00 0.  1.
</event>
<event>
 7    1  0.2530765E-009  0.1758414E+03  0.7561462E-02  0.1171889E+00
          2   -1    0    0  501    0  0.00000000000E+00  0.00000000000E+00  0.92886850329E+03  0.92886850329E+03  0.00000000000E+00 0. -1.
         -2   -1    0    0    0  501 -0.00000000000E+00 -0.00000000000E+00 -0.42650434396E+02  0.42650434396E+02  0.00000000000E+00 0.  1.
         25    2    1    2    0    0 -0.11352086595E+03 -0.87361869903E+02  0.25491403103E+03  0.31803742347E+03  0.12509019223E+03 0.  0.
          5    1    3    3  502    0 -0.11715916455E+03 -0.16717132306E+02  0.14427005848E+03  0.18664687119E+03  0.41800000000E+01 0.  1.
         -5    1    3    3    0  502  0.36382986016E+01 -0.70644737597E+02  0.11064397255E+03  0.13139055228E+03  0.41800000000E+01 0.  1.
        -11    1    1    2    0    0  0.22381459284E+02  0.64735655097E+02  0.18184623659E+03  0.19431852337E+03  0.00000000000E+00 0.  1.
         11    1    1    2    0    0  0.91139406666E+02  0.22626214806E+02  0.44945780126E+03  0.45916299084E+03  0.00000000000E+00 0. -1.
</event>
<event>
 7    1  0.2530765E-009  0.1299654E+03  0.7561462E-02  0.1227507E+00
         -1   -1    0    0    0  501 -0.00000000000E+00  0.00000000000E+00  0.70376815133E+02  0.70376815133E+02  0.00000000000E+00 0.  1.
          1   -1    0    0  501    0  0.00000000000E+00 -0.00000000000E+00 -0.39768895576E+03  0.39768895576E+03  0.00000000000E+00 0. -1.
         25    2    1    2    0    0 -0.41375611162E+02  0.73098974587E+02 -0.40829432623E+02  0.15610764889E+03  0.12508858537E+03 0.  0.
          5    1    3    3  502    0  0.72819133524E+01 -0.32424385253E+02 -0.21348767184E+01  0.33561840231E+02  0.41800000000E+01 0. -1.
         -5    1    3    3    0  502 -0.48657524515E+02  0.10552335984E+03 -0.38694555905E+02  0.12254580866E+03  0.41800000000E+01 0. -1.
        -11    1    1    2    0    0  0.50779101563E+02 -0.17406470984E+02 -0.69908768160E+02  0.88140446183E+02  0.00000000000E+00 0.  1.
         11    1    1    2    0    0 -0.94034904006E+01 -0.55692503603E+02 -0.21657393984E+03  0.22381767581E+03  0.00000000000E+00 0. -1.
</event>
<event>
 7    1  0.2530765E-009  0.1380182E+03  0.7561462E-02  0.1216021E+00
         -2   -1    0    0    0  501 -0.00000000000E+00  0.00000000000E+00  0.11011019414E+04  0.11011019414E+04  0.00000000000E+00 0. -1.
          2   -1    0    0  501    0  0.00000000000E+00 -0.00000000000E+00 -0.19929860955E+02  0.19929860955E+02  0.00000000000E+00 0.  1.
         25    2    1    2    0    0  0.86279996167E+02 -0.53720049971E+02  0.66578650602E+03  0.68501676094E+03  0.12508480984E+03 0.  0.
          5    1    3    3  502    0  0.34046935721E+02  0.32184573538E+02  0.36094435393E+03  0.36399634564E+03  0.41800000000E+01 0.  1.
         -5    1    3    3    0  502  0.52233060446E+02 -0.85904623508E+02  0.30484215210E+03  0.32102041530E+03  0.41800000000E+01 0.  1.
        -11    1    1    2    0    0  0.14521635188E+02  0.13555450295E+02  0.32868061052E+02  0.38404915812E+02  0.00000000000E+00 0.  1.
         11    1    1    2    0    0 -0.10080163136E+03  0.40164599676E+02  0.38251751337E+03  0.39761012561E+03  0.00000000000E+00 0. -1.
</event>
<event>
 7    1  0.2530765E-009  0.1138920E+03  0.7561462E-02  0.1253528E+00
         -1   -1    0    0    0  501 -0.00000000000E+00  0.00000000000E+00  0.49708712625E+03  0.49708712625E+03  0.00000000000E+00 0.  1.
          1   -1    0    0  501    0  0.00000000000E+00 -0.00000000000E+00 -0.29091192879E+02  0.29091192879E+02  0.00000000000E+00 0. -1.
         25    2    1    2    0    0 -0.45890711058E+02 -0.49638879426E+01  0.21556620191E+03  0.25346951424E+03  0.12508960668E+03 0.  0.
          5    1    3    3  502    0  0.53481778286E+01 -0.54299893157E+02  0.53956919486E+02  0.76849872891E+02  0.41800000000E+01 0. -1.
         -5    1    3    3    0  502 -0.51238888886E+02  0.49336005214E+02  0.16160928243E+03  0.17661964135E+03  0.41800000000E+01 0. -1.
        -11    1    1    2    0    0  0.53780863510E+02 -0.32957015514E+02  0.17723764937E+03  0.18812690000E+03  0.00000000000E+00 0.  1.
         11    1    1    2    0    0 -0.78901524521E+01  0.37920903456E+02  0.75192082093E+02  0.84581904886E+02  0.00000000000E+00 0. -1.
</event>
<event>
 7    1  0.2530765E-009  0.1041870E+03  0.7561462E-02  0.1271730E+00
          1   -1    0    0  501    0  0.00000000000E+00  0.00000000000E+00  0.73095254228E+02  0.73095254228E+02  0.00000000000E+00 0. -1.
         -1   -1    0    0    0  501 -0.00000000000E+00 -0.00000000000E+00 -0.17486656358E+03  0.17486656358E+03  0.00000000000E+00 0.  1.
         25    2    1    2    0    0 -0.24539188264E+02 -0.19442332361E+02 -0.55033947480E+02  0.14020084402E+03  0.12508942897E+03 0.  0.
          5    1    3    3  502    0 -0.24824587175E+02  0.42547270081E+02 -0.60150617388E+02  0.77859485562E+02  0.41800000000E+01 0. -1.
         -5    1    3    3    0  502  0.28539891130E+00 -0.61989602443E+02  0.51166699085E+01  0.62341358459E+02  0.41800000000E+01 0. -1.
        -11    1    1    2    0    0  0.12091901328E+02 -0.37042429944E+02 -0.22936228419E+02  0.45215332222E+02  0.00000000000E+00 0. -1.
         11    1    1    2    0    0  0.12447286935E+02  0.56484762305E+02 -0.23801133449E+02  0.62545641560E+02  0.00000000000E+00 0.  1.
</event>
<event>
 7    1  0.2530765E-009  0.1080524E+03  0.7561462E-02  0.1264220E+00
         -3   -1    0    0    0  501 -0.00000000000E+00  0.00000000000E+00  0.31900208294E+02  0.31900208294E+02  0.00000000000E+00 0.  1.
          3   -1    0    0  501    0  0.00000000000E+00 -0.00000000000E+00 -0.43397140973E+03  0.43397140973E+03  0.00000000000E+00 0. -1.
         25    2    1    2    0    0  0.24522335908E+02  0.46928028144E+02 -0.20673178366E+03  0.24736464455E+03  0.12509057604E+03 0.  0.
          5    1    3    3  502    0  0.31460595043E+02  0.88135079087E+02 -0.13701616704E+03  0.16597729856E+03  0.41800000000E+01 0.  1.
         -5    1    3    3    0  502 -0.69382591351E+01 -0.41207050943E+02 -0.69715616618E+02  0.81387345992E+02  0.41800000000E+01 0.  1.
        -11    1    1    2    0    0  0.13585781297E+02  0.62961339507E+01 -0.29175764117E+01  0.15255392761E+02  0.00000000000E+00 0.  1.
         11    1    1    2    0    0 -0.38108117205E+02 -0.53224162095E+02 -0.19242184137E+03  0.20325158071E+03  0.00000000000E+00 0. -1.
</event>
<event>
 7    1  0.2530765E-009  0.1148037E+03  0.7561462E-02  0.1251924E+00
          1   -1    0    0  501    0  0.00000000000E+00  0.00000000000E+00  0.56556597982E+02  0.56556597982E+02  0.00000000000E+00 0. -1.
         -1   -1    0    0    0  501 -0.00000000000E+00 -0.00000000000E+00 -0.27451274128E+03  0.27451274128E+03  0.00000000000E+00 0.  1.
         25    2    1    2    0    0  0.36534648983E+02  0.35949138637E+02 -0.16488732173E+03  0.21321906003E+03  0.12508963805E+03 0.  0.
          5    1    3    3  502    0  0.78418375128E+02  0.17429617891E+01 -0.11666486914E+03  0.14064367588E+03  0.41800000000E+01 0.  1.
         -5    1    3    3    0  502 -0.41883726144E+02  0.34206176848E+02 -0.48222452589E+02  0.72575384146E+02  0.41800000000E+01 0.  1.
        -11    1    1    2    0    0  0.32878536739E+00  0.25316786196E+02 -0.36554660213E+02  0.44466739777E+02  0.00000000000E+00 0.  1.
         11    1    1    2    0    0 -0.36863434351E+02 -0.61265924833E+02 -0.16514161352E+02  0.73383539455E+02  0.00000000000E+00 0. -1.
</event>
<event>
 7    1  0.2530765E-009  0.1059003E+03  0.7561462E-02  0.1268356E+00
         -1   -1    0    0    0  501 -0.00000000000E+00  0.00000000000E+00  0.38778712974E+03  0.38778712974E+03  0.00000000000E+00 0.  1.
          1   -1    0    0  501    0  0.00000000000E+00 -0.00000000000E+00 -0.48712091212E+02  0.48712091212E+02  0.00000000000E+00 0. -1.
         25    2    1    2    0    0 -0.25569647701E+02  0.63114374071E+02  0.25473167905E+03  0.29184527046E+03  0.12509277549E+03 0.  0.
          5    1    3    3  502    0  0.44235050571E+02  0.56803900371E+02  0.13441801010E+03  0.15254211430E+03  0.41800000000E+01 0.  1.
         -5    1    3    3    0  502 -0.69804698273E+02  0.63104737001E+01  0.12031366896E+03  0.13930315616E+03  0.41800000000E+01 0.  1.
        -11    1    1    2    0    0  0.55997840265E+01 -0.32080513811E+02  0.99548961427E+02  0.10474021515E+03  0.00000000000E+00 0.  1.
         11    1    1    2    0    0  0.19969863675E+02 -0.31033860260E+02 -0.15205601958E+02  0.39913735339E+02  0.00000000000E+00 0. -1.
</event>
<event>
 7    1  0.2530765E-009  0.1212043E+03  0.7561462E-02  0.1241123E+00
         -2   -1    0    0    0  501 -0.00000000000E+00  0.00000000000E+00  0.14267371385E+02  0.14267371385E+02  0.00000000000E+00 0. -1.
          2   -1    0    0  501    0  0.00000000000E+00 -0.00000000000E+00 -0.29045674368E+04  0.29045674368E+04  0.00000000000E+00 0.  1.
         25    2    1    2    0    0  0.71882858901E+02 -0.64515563062E+02 -0.25292968630E+04  0.25342299221E+04  0.12509705656E+03 0.  0.
          5    1    3    3  502    0  0.81038957850E+02 -0.30834189867E+02 -0.82195312930E+03  0.82652433667E+03  0.41800000000E+01 0. -1.
         -5    1    3    3    0  502 -0.91560989493E+01 -0.33681373195E+02 -0.17073437337E+04  0.17077055855E+04  0.41800000000E+01 0. -1.
        -11    1    1    2    0    0 -0.76287484707E+02  0.24404638353E+02 -0.30648226425E+03  0.31677554356E+03  0.00000000000E+00 0.  1.
         11    1    1    2    0    0  0.44046258057E+01  0.40110924709E+02 -0.54520938123E+02  0.67829342495E+02  0.00000000000E+00 0. -1.
</event>
<event>
 7    1  0.3038661E-009  0.7906678E+02  0.7561462E-02  0.1331721E+00
         -2   -1    0    0    0  501 -0.00000000000E+00  0.00000000000E+00  0.17951603185E+02  0.17951603185E+02  0.00000000000E+00 0.  1.
          2   -1    0    0  501    0  0.00000000000E+00 -0.00000000000E+00 -0.75047494974E+03  0.75047494974E+03  0.00000000000E+00 0. -1.
         25    2    1    2    0    0 -0.15213965866E+01  0.27937293671E+02 -0.31565996655E+03  0.34069259656E+03  0.12508966322E+03 0.  0.
          5    1    3    3  502    0 -0.10761440395E+02 -0.15901355583E+02 -0.28628038373E+03  0.28695398973E+03  0.41800000000E+01 0.  1.
         -5    1    3    3    0  502  0.92400438080E+01  0.43838649254E+02 -0.29379582813E+02  0.53738606832E+02  0.41800000000E+01 0.  1.
        -11    1    1    2    0    0  0.42967302614E+02  0.93206040814E+00 -0.14569460163E+03  0.15190120070E+03  0.00000000000E+00 0.  1.
         11    1    1    2    0    0 -0.41445906028E+02 -0.28869354079E+02 -0.27116877838E+03  0.27583275566E+03  0.00000000000E+00 0. -1.
</event>
<event>
 7    1  0.2530765E-009  0.1183723E+03  0.7561462E-02  0.1245807E+00
         -2   -1    0    0    0  501 -0.00000000000E+00  0.00000000000E+00  0.42469167895E+03  0.42469167895E+03  0.00000000000E+00 0.  1.
          2   -1    0    0  501    0  0.00000000000E+00 -0.00000000000E+00 -0.36624583463E+02  0.36624583463E+02  0.00000000000E+00 0. -1.
         25    2    1    2    0    0  0.83406816979E+01 -0.61291422950E+02  0.20584387368E+03  0.24868323444E+03  0.12508175430E+03 0.  0.
          5    1    3    3  502    0 -0.44984439389E+02 -0.65522175049E+02  0.15747408395E+03  0.17644351710E+03  0.41800000000E+01 0. -1.
         -5    1    3    3    0  502  0.53325121087E+02  0.42307520990E+01  0.48369789729E+02  0.72239717335E+02  0.41800000000E+01 0. -1.
        -11    1    1    2    0    0  0.30354822189E+02 -0.76985962523E+00  0.89666052767E+02  0.94667887547E+02  0.00000000000E+00 0.  1.
         11    1    1    2    0    0 -0.38695503887E+02  0.62061282576E+02  0.92557169037E+02  0.11796514043E+03  0.00000000000E+00 0. -1.
</event>
<event>
 7    1  0.2530765E-009  0.9582748E+02  0.7561462E-02  0.1289323E+00
          2   -1    0    0  501    0  0.00000000000E+00  0.00000000000E+00  0.18570631718E+03  0.18570631718E+03  0.00000000000E+00 0. -1.
         -2   -1    0    0    0  501 -0.00000000000E+00 -0.00000000000E+00 -0.67900101481E+02  0.67900101481E+02  0.00000000000E+00 0.  1.
         25    2    1    2    0    0  0.68932414808E+01  0.13348221198E+02  0.38829268052E+02  0.13183129732E+03  0.12508432000E+03 0.  0.
          5    1    3    3  502    0  0.27866822308E+02 -0.50855215627E+02  0.21375486055E+02  0.61945109138E+02  0.41800000000E+01 0. -1.
         -5    1    3    3    0  502 -0.20973580827E+02  0.64203436825E+02  0.17453781997E+02  0.69886188184E+02  0.41800000000E+01 0. -1.
        -11    1    1    2    0    0 -0.10021731795E+02  0.25225201481E+02  0.78512761147E+02  0.83072255061E+02  0.00000000000E+00 0. -1.
         11    1    1    2    0    0  0.31284903139E+01 -0.38573422679E+02  0.46418649594E+00  0.38702866275E+02  0.00000000000E+00 0.  1.
</event>
<event>
 7    1  0.2903051E-009  0.1166805E+03  0.7561462E-02  0.1248676E+00
          1   -1    0    0  501    0  0.00000000000E+00  0.00000000000E+00  0.10600233005E+04  0.10600233005E+04  0.00000000000E+00 0. -1.
         -1   -1    0    0    0  501 -0.00000000000E+00 -0.00000000000E+00 -0.21750972758E+02  0.21750972758E+02  0.00000000000E+00 0.  1.
         25    2    1    2    0    0  0.39271844253E+02 -0.48579755778E+02  0.86652808399E+03  0.87773611391E+03  0.12508994720E+03 0.  0.
          5    1    3    3  502    0  0.37954634073E+02  0.37476840637E+02  0.31241434369E+03  0.31696255674E+03  0.41800000000E+01 0. -1.
         -5    1    3    3    0  502  0.13172101804E+01 -0.86056596415E+02  0.55411374030E+03  0.56077355717E+03  0.41800000000E+01 0. -1.
        -11    1    1    2    0    0 -0.20402235487E+02  0.65340496884E+02  0.65159623807E+02  0.94506128482E+02  0.00000000000E+00 0.  1.
         11    1    1    2    0    0 -0.18869608767E+02 -0.16760741106E+02  0.10658461991E+03  0.10953203083E+03  0.00000000000E+00 0. -1.
</event>
<event>
 7    1  0.2530765E-009  0.1436371E+03  0.7561462E-02  0.1208517E+00
          1   -1    0    0  501    0  0.00000000000E+00  0.00000000000E+00  0.39811481939E+03  0.39811481939E+03  0.00000000000E+00 0. -1.
         -1   -1    0    0    0  501 -0.00000000000E+00 -0.00000000000E+00 -0.65409325231E+02  0.65409325231E+02  0.00000000000E+00 0.  1.
         25    2    1    2    0    0  0.94343347547E+02 -0.43859859807E+02  0.92545273000E+02  0.18718110582E+03  0.12509110396E+03 0.  0.
          5    1    3    3  502    0 -0.23388850722E+02  0.26693612301E+01  0.46723334667E+02  0.52485295368E+02  0.41800000000E+01 0.  1.
         -5    1    3    3    0  502  0.11773219827E+03 -0.46529221037E+02  0.45821938333E+02  0.13469581045E+03  0.41800000000E+01 0.  1.
        -11    1    1    2    0    0 -0.47575976674E+02 -0.24781989841E+02  0.93343863789E+02  0.10766010163E+03  0.00000000000E+00 0.  1.
         11    1    1    2    0    0 -0.46767370873E+02  0.68641849648E+02  0.14681635737E+03  0.16868293718E+03  0.00000000000E+00 0. -1.
</event>
<event>
 7    1  0.2530765E-009  0.1092705E+03  0.7561462E-02  0.1261927E+00
         -1   -1    0    0    0  501 -0.00000000000E+00  0.00000000000E+00  0.31201762780E+02  0.31201762780E+02  0.00000000000E+00 0.  1.
          1   -1    0    0  501    0  0.00000000000E+00 -0.00000000000E+00 -0.42905682984E+03  0.42905682984E+03  0.00000000000E+00 0. -1.
         25    2    1    2    0    0  0.10172794770E+02 -0.25279317697E+02 -0.20672799367E+03  0.24315961775E+03  0.12509039404E+03 0.  0.
          5    1    3    3  502    0 -0.29310140454E+02  0.39126680708E+02 -0.10926403085E+03  0.11977513229E+03  0.41800000000E+01 0. -1.
         -5    1    3    3    0  502  0.39482935224E+02 -0.64405998406E+02 -0.97463962820E+02  0.12338448546E+03  0.41800000000E+01 0. -1.
        -11    1    1    2    0    0  0.12405754125E+00  0.58773471801E+02 -0.15916783474E+03  0.16967243734E+03  0.00000000000E+00 0.  1.
         11    1    1    2    0    0 -0.10296852311E+02 -0.33494154104E+02 -0.31959238648E+02  0.47426537525E+02  0.00000000000E+00 0. -1.
</event>
<event>
 7    1  0.2530765E-009  0.1189972E+03  0.7561462E-02  0.1244761E+00
         -2   -1    0    0    0  501 -0.00000000000E+00  0.00000000000E+00  0.11403792109E+03  0.11403792109E+03  0.00000000000E+00 0.  1.
          2   -1    0    0  501    0  0.00000000000E+00 -0.00000000000E+00 -0.17749883701E+03  0.17749883701E+03  0.00000000000E+00 0. -1.
         25    2    1    2    0    0  0.72511107388E+01 -0.87997873743E+02 -0.15394187275E+02  0.15388274270E+03  0.12508682228E+03 0.  0.
          5    1    3    3  502    0 -0.14924777149E+02 -0.11087783297E+03 -0.33675104066E+02  0.11691076876E+03  0.41800000000E+01 0.  1.
         -5    1    3    3    0  502  0.22175887887E+02  0.22879959232E+02  0.18280916791E+02  0.36971973936E+02  0.41800000000E+01 0.  1.
        -11    1    1    2    0    0  0.10619519822E+02  0.58164691818E+02  0.19002672701E+02  0.62104807748E+02  0.00000000000E+00 0.  1.
         11    1    1    2    0    0 -0.17870630561E+02  0.29833181924E+02 -0.67069401344E+02  0.75549207653E+02  0.00000000000E+00 0. -1.
</event>
<event>
 7    1  0.2530765E-009  0.1121547E+03  0.7561462E-02  0.1256631E+00
         -4   -1    0    0    0  501 -0.00000000000E+00  0.00000000000E+00  0.13673599117E+03  0.13673599117E+03  0.00000000000E+00 0.  1.
          4   -1    0    0  501    0  0.00000000000E+00 -0.00000000000E+00 -0.13650065829E+03  0.13650065829E+03  0.00000000000E+00 0. -1.
         25    2    1    2    0    0 -0.68400095746E+02  0.42302770975E+02  0.13869775757E+02  0.14936225927E+03  0.12509442947E+03 0.  0.
          5    1    3    3  502    0  0.26308888516E+02 -0.15287348750E+02  0.22545970437E+02  0.38100575188E+02  0.41800000000E+01 0. -1.
         -5    1    3    3    0  502 -0.94708984261E+02  0.57590119725E+02 -0.86761946804E+01  0.11126168408E+03  0.41800000000E+01 0. -1.
        -11    1    1    2    0    0  0.21489394323E+02 -0.34559442566E+01 -0.48878189933E+02  0.53505280769E+02  0.00000000000E+00 0. -1.
         11    1    1    2    0    0  0.46910701423E+02 -0.38846826719E+02  0.35243747058E+02  0.70369109422E+02  0.00000000000E+00 0.  1.
</event>
<event>
 7    1  0.2530765E-009  0.1004346E+03  0.7561462E-02  0.1279385E+00
          2   -1    0    0  501    0  0.00000000000E+00  0.00000000000E+00  0.32613918877E+03  0.32613918877E+03  0.00000000000E+00 0. -1.
         -2   -1    0    0    0  501 -0.00000000000E+00 -0.00000000000E+00 -0.47267057972E+02  0.47267057972E+02  0.00000000000E+00 0.  1.
         25    2    1    2    0    0  0.19318281280E+02  0.34259819269E+02  0.89565402878E+02  0.15879692571E+03  0.12509025148E+03 0.  0.
          5    1    3    3  502    0  0.10354270187E+02  0.67275614549E+02  0.10153574380E+03  0.12231189187E+03  0.41800000000E+01 0.  1.
         -5    1    3    3    0  502  0.89640110927E+01 -0.33015795280E+02 -0.11970340921E+02  0.36485033844E+02  0.41800000000E+01 0.  1.
        -11    1    1    2    0    0 -0.51554116424E+02 -0.40268241250E+02  0.10023052743E+03  0.11968925099E+03  0.00000000000E+00 0.  1.
         11    1    1    2    0    0  0.32235835144E+02  0.60084219809E+01  0.89076200489E+02  0.94920070036E+02  0.00000000000E+00 0. -1.
</event>
<event>
 7    1  0.2530765E-009  0.9086176E+02  0.7561462E-02  0.1300778E+00
          1   -1    0    0  501    0  0.00000000000E+00  0.00000000000E+00  0.22010356693E+03  0.22010356693E+03  0.00000000000E+00 0. -1.
         -1   -1    0    0    0  501 -0.00000000000E+00 -0.00000000000E+00 -0.57199513207E+02  0.57199513207E+02  0.00000000000E+00 0.  1.
         25    2    1    2    0    0 -0.13535818697E+02  0.12093916940E+02  0.12604056348E+03  0.17850531056E+03  0.12509372902E+03 0.  0.
          5    1    3    3  502    0  0.27265771239E+02 -0.45770161010E+02  0.38633346454E+02  0.65941927317E+02  0.41800000000E+01 0.  1.
         -5    1    3    3    0  502 -0.40801589936E+02  0.57864077949E+02  0.87407217023E+02  0.11256338324E+03  0.41800000000E+01 0.  1.
        -11    1    1    2    0    0  0.10931127906E+02 -0.33785795280E+02  0.58252807396E+02  0.68222863393E+02  0.00000000000E+00 0. -1.
         11    1    1    2    0    0  0.26046907909E+01  0.21691878340E+02 -0.21389317152E+02  0.30574906186E+02  0.00000000000E+00 0.  1.
</event>
<event>
 7    1  0.2530765E-009  0.1099505E+03  0.7561462E-02  0.1260662E+00
          2   -1    0    0  501    0  0.00000000000E+00  0.00000000000E+00  0.19899300417E+03  0.19899300417E+03  0.00000000000E+00 0. -1.
         -2   -1    0    0    0  501 -0.00000000000E+00 -0.00000000000E+00 -0.10943252351E+03  0.10943252351E+03  0.00000000000E+00 0.  1.
         25    2    1    2    0    0 -0.45828758436E+02  0.73603010504E+02 -0.28136989074E+01  0.15221967838E+03  0.12508091513E+03 0.  0.
          5    1    3    3  502    0 -0.46228886614E+02  0.43063766259E+02 -0.60015256999E+02  0.87240480253E+02  0.41800000000E+01 0.  1.
         -5    1    3    3    0  502  0.40012817761E+00  0.30539244244E+02  0.57201558092E+02  0.64979198131E+02  0.41800000000E+01 0.  1.
        -11    1    1    2    0    0  0.68869661097E+01 -0.84924321648E+02  0.66728171526E+02  0.10822300857E+03  0.00000000000E+00 0.  1.
         11    1    1    2    0    0  0.38941792327E+02  0.11321311144E+02  0.25646008037E+02  0.47982840723E+02  0.00000000000E+00 0. -1.
</event>
<event>
 7    1  0.2530765E-009  0.1313947E+03  0.7561462E-02  0.1225401E+00
         -1   -1    0    0    0  501 -0.00000000000E+00  0.00000000000E+00  0.32648567314E+03  0.32648567314E+03  0.00000000000E+00 0.  1.
          1   -1    0    0  501    0  0.00000000000E+00 -0.00000000000E+00 -0.58886203098E+02  0.58886203098E+02  0.00000000000E+00 0. -1.
         25    2    1    2    0    0 -0.76038076226E+02 -0.48423210462E+02  0.13703553082E+03  0.20628266050E+03  0.12508878034E+03 0.  0.
          5    1    3    3  502    0 -0.81564209558E+02  0.20519614241E+02  0.65432030404E+02  0.10664238300E+03  0.41800000000E+01 0. -1.
         -5    1    3    3    0  502  0.55261333321E+01 -0.68942824703E+02  0.71603500419E+02  0.99640277498E+02  0.41800000000E+01 0. -1.
        -11    1    1    2    0    0  0.60104762092E+02  0.19230186304E+01  0.11088547778E+03  0.12614225941E+03  0.00000000000E+00 0.  1.
         11    1    1    2    0    0  0.15933314134E+02  0.46500191832E+02  0.19678461439E+02  0.52946956327E+02  0.00000000000E+00 0. -1.
</event>
<event>
 7    1  0.2761587E-009  0.1409490E+03  0.7561462E-02  0.1212058E+00
          2   -1    0    0  501    0  0.00000000000E+00  0.00000000000E+00  0.11138254636E+03  0.11138254636E+03  0.00000000000E+00 0. -1.
         -2   -1    0    0    0  501 -0.00000000000E+00 -0.00000000000E+00 -0.22052606129E+03  0.22052606129E+03  0.00000000000E+00 0.  1.
         25    2    1    2    0    0  0.30619699832E+01  0.11286427691E+03 -0.52430663536E+02  0.17647178253E+03  0.12508235242E+03 0.  0.
          5    1    3    3  502    0  0.26906708696E+02 -0.19787876409E+02 -0.10518432514E+02  0.35265292401E+02  0.41800000000E+01 0. -1.
         -5    1    3    3    0  502 -0.23844738713E+02  0.13265215332E+03 -0.41912231022E+02  0.14120649013E+03  0.41800000000E+01 0. -1.
        -11    1    1    2    0    0  0.38225332294E+01 -0.29457026664E+02 -0.64871974388E+02  0.71349150248E+02  0.00000000000E+00 0.  1.
         11    1    1    2    0    0 -0.68845032126E+01 -0.83407250246E+02  0.81591229879E+01  0.84087674875E+02  0.00000000000E+00 0. -1.
</event>
<event>
 7    1  0.2530765E-009  0.1163403E+03  0.7561462E-02  0.1249259E+00
          2   -1    0    0  501    0  0.00000000000E+00  0.00000000000E+00  0.69721206822E+03  0.69721206822E+03  0.00000000000E+00 0. -1.
         -2   -1    0    0    0  501 -0.00000000000E+00 -0.00000000000E+00 -0.22518963505E+02  0.22518963505E+02  0.00000000000E+00 0.  1.
         25    2    1    2    0    0  0.61325728641E+02  0.16117143371E+02  0.38452259199E+03  0.40929906776E+03  0.12508995090E+03 0.  0.
          5    1    3    3  502    0  0.42169783623E+02  0.61461241070E+02  0.12899731176E+03  0.14904212037E+03  0.41800000000E+01 0. -1.
         -5    1    3    3    0  502  0.19155945018E+02 -0.45344097699E+02  0.25552528023E+03  0.26025694739E+03  0.41800000000E+01 0. -1.
        -11    1    1    2    0    0  0.81984187446E+01 -0.35512137207E+02  0.73213614894E+02  0.81783613057E+02  0.00000000000E+00 0. -1.
         11    1    1    2    0    0 -0.69524147386E+02  0.19394993836E+02  0.21695689783E+03  0.22864835091E+03  0.00000000000E+00 0.  1.
</event>
<event>
 7    1  0.2530765E-009  0.7260894E+02  0.7561462E-02  0.1351439E+00
         -1   -1    0    0    0  501 -0.00000000000E+00  0.00000000000E+00  0.11032532135E+03  0.11032532135E+03  0.00000000000E+00 0.  1.
          1   -1    0    0  501    0  0.00000000000E+00 -0.00000000000E+00 -0.13349981334E+03  0.13349981334E+03  0.00000000000E+00 0. -1.
         25    2    1    2    0    0  0.29020266806E+02  0.46225495630E+02  0.90852684456E+01  0.13678179881E+03  0.12509095112E+03 0.  0.
          5    1    3    3  502    0  0.23924173409E+01  0.10008362150E+02  0.64417805562E+02  0.65368318375E+02  0.41800000000E+01 0.  1.
         -5    1    3    3    0  502  0.26627849465E+02  0.36217133480E+02 -0.55332537117E+02  0.71413480439E+02  0.41800000000E+01 0.  1.
        -11    1    1    2    0    0 -0.36475700133E+02  0.53386014909E+01 -0.39971363583E+02  0.54375428943E+02  0.00000000000E+00 0. -1.
         11    1    1    2    0    0  0.74554333272E+01 -0.51564097121E+02  0.77116031445E+01  0.52667906936E+02  0.00000000000E+00 0.  1.
</event>
<event>
 7    1  0.2530765E-009  0.1271400E+03  0.7561462E-02  0.1231762E+00
          3   -1    0    0  501    0  0.00000000000E+00  0.00000000000E+00  0.30269117562E+03  0.30269117562E+03  0.00000000000E+00 0. -1.
         -3   -1    0    0    0  501 -0.00000000000E+00 -0.00000000000E+00 -0.73136123669E+02  0.73136123669E+02  0.00000000000E+00 0.  1.
         25    2    1    2    0    0  0.14068471724E+02 -0.81239433587E+02  0.86446197790E+02  0.17296947602E+03  0.12509087519E+03 0.  0.
          5    1    3    3  502    0  0.41019006565E+02 -0.79020856232E+02  0.10662411693E+03  0.13897132557E+03  0.41800000000E+01 0. -1.
         -5    1    3    3    0  502 -0.26950534840E+02 -0.22185773554E+01 -0.20177919137E+02  0.33998150455E+02  0.41800000000E+01 0. -1.
        -11    1    1    2    0    0  0.48557338566E+02  0.38465876842E+02  0.36095708687E+02  0.71696157466E+02  0.00000000000E+00 0.  1.
         11    1    1    2    0    0 -0.62625810290E+02  0.42773556745E+02  0.10701314547E+03  0.13116166580E+03  0.00000000000E+00 0. -1.
</event>
<event>
 7    1  0.2530765E-009  0.1357698E+03  0.7561462E-02  0.1219137E+00
         -1   -1    0    0    0  501 -0.00000000000E+00  0.00000000000E+00  0.10685532383E+03  0.10685532383E+03  0.00000000000E+00 0.  1.
          1   -1    0    0  501    0  0.00000000000E+00 -0.00000000000E+00 -0.23785928415E+03  0.23785928415E+03  0.00000000000E+00 0. -1.
         25    2    1    2    0    0 -0.69087381011E+02 -0.85648108844E+02 -0.11314522483E+03  0.20139029146E+03  0.12509013882E+03 0.  0.
          5    1    3    3  502    0 -0.78759960154E+02 -0.28048220957E+02 -0.12065562473E+02  0.84574725658E+02  0.41800000000E+01 0. -1.
         -5    1    3    3    0  502  0.96725791428E+01 -0.57599887886E+02 -0.10107966236E+03  0.11681556580E+03  0.41800000000E+01 0. -1.
        -11    1    1    2    0    0  0.74255472953E+02  0.41978642239E+02  0.17283139802E+02  0.87033261395E+02  0.00000000000E+00 0.  1.
         11    1    1    2    0    0 -0.51680919418E+01  0.43669466605E+02 -0.35141875296E+02  0.56291055126E+02  0.00000000000E+00 0. -1.
</event>
<event>
 7    1  0.2530765E-009  0.1181997E+03  0.7561462E-02  0.1246097E+00
          1   -1    0    0  501    0  0.00000000000E+00  0.00000000000E+00  0.53131078123E+03  0.53131078123E+03  0.00000000000E+00 0. -1.
         -1   -1    0    0    0  501 -0.00000000000E+00 -0.00000000000E+00 -0.44142147260E+02  0.44142147260E+02  0.00000000000E+00 0.  1.
         25    2    1    2    0    0 -0.76522416143E+02  0.55717661721E+02  0.36090181153E+03  0.39351914111E+03  0.12508820430E+03 0.  0.
          5    1    3    3  502    0 -0.16742819159E+01  0.31392533827E+02  0.27545832780E+03  0.27727794207E+03  0.41800000000E+01 0.  1.
         -5    1    3    3    0  502 -0.74848134227E+02  0.24325127894E+02  0.85443483731E+02  0.11624119905E+03  0.41800000000E+01 0.  1.
        -11    1    1    2    0    0  0.47759483252E+02  0.14566198739E+02  0.75745825501E+02  0.90722502540E+02  0.00000000000E+00 0. -1.
         11    1    1    2    0    0  0.28762932891E+02 -0.70283860460E+02  0.50520996931E+02  0.91211284831E+02  0.00000000000E+00 0.  1.
</event>
<event>
 7    1  0.2530765E-009  0.1485837E+03  0.7561462E-02  0.1202224E+00
          2   -1    0    0  501    0  0.00000000000E+00  0.00000000000E+00  0.11287861711E+04  0.11287861711E+04  0.00000000000E+00 0.  1.
         -2   -1    0    0    0  501 -0.00000000000E+00 -0.00000000000E+00 -0.20050661829E+02  0.20050661829E+02  0.00000000000E+00 0. -1.
         25    2    1    2    0    0  0.79170703710E+02  0.64256949144E+02  0.51151202865E+03  0.53636663322E+03  0.12509058291E+03 0.  0.
          5    1    3    3  502    0  0.10470453179E+03  0.15180514944E+02  0.33137934026E+03  0.34788392685E+03  0.41800000000E+01 0.  1.
         -5    1    3    3    0  502 -0.25533828082E+02  0.49076434201E+02  0.18013268840E+03  0.18848270637E+03  0.41800000000E+01 0.  1.
        -11    1    1    2    0    0 -0.79132169585E+00 -0.57094881102E+02  0.25269836527E+03  0.25906932556E+03  0.00000000000E+00 0. -1.
         11    1    1    2    0    0 -0.78379382015E+02 -0.71620680425E+01  0.34452511539E+03  0.35340087419E+03  0.00000000000E+00 0.  1.
</event>
<event>
 7    1  0.2530765E-009  0.1064383E+03  0.7561462E-02  0.1267311E+00
          1   -1    0    0  501    0  0.00000000000E+00  0.00000000000E+00  0.18654578931E+03  0.18654578931E+03  0.00000000000E+00 0. -1.
         -1   -1    0    0    0  501 -0.00000000000E+00 -0.00000000000E+00 -0.13549009997E+03  0.13549009997E+03  0.00000000000E+00 0.  1.
         25    2    1    2    0    0 -0.63945006884E+02 -0.31227982986E+02 -0.66258376342E+02  0.15843129370E+03  0.12508457763E+03 0.  0.
          5    1    3    3  502    0  0.36109557149E+02 -0.15456414569E+02 -0.33794252002E+02  0.51983889208E+02  0.41800000000E+01 0.  1.
         -5    1    3    3    0  502 -0.10005456403E+03 -0.15771568418E+02 -0.32464124340E+02  0.10644740449E+03  0.41800000000E+01 0.  1.
        -11    1    1    2    0    0  0.38752562767E+02  0.12889832865E+02 -0.14051662212E+01  0.40864206886E+02  0.00000000000E+00 0.  1.
         11    1    1    2    0    0  0.25192444117E+02  0.18338150121E+02  0.11871923191E+03  0.12274038869E+03  0.00000000000E+00 0. -1.
</event>
<event>
 7    1  0.2530765E-009  0.1274484E+03  0.7561462E-02  0.1231292E+00
          1   -1    0    0  501    0  0.00000000000E+00  0.00000000000E+00  0.16451436056E+03  0.16451436056E+03  0.00000000000E+00 0. -1.
         -1   -1    0    0    0  501 -0.00000000000E+00 -0.00000000000E+00 -0.12899425681E+03  0.12899425681E+03  0.00000000000E+00 0.  1.
         25    2    1    2    0    0  0.79450583763E+02  0.48430763046E+02 -0.82813508481E+01  0.15612331732E+03  0.12509186772E+03 0.  0.
          5    1    3    3  502    0  0.42762508021E+02 -0.29394316447E+02 -0.38594199749E+02  0.64804649416E+02  0.41800000000E+01 0.  1.
         -5    1    3    3    0  502  0.36688075742E+02  0.77825079493E+02  0.30312848901E+02  0.91318667907E+02  0.41800000000E+01 0.  1.
        -11    1    1    2    0    0 -0.25496478559E+02  0.17930606671E+02 -0.13987752960E+02  0.34164810952E+02  0.00000000000E+00 0.  1.
         11    1    1    2    0    0 -0.53954105204E+02 -0.66361369717E+02  0.57789207560E+02  0.10322048910E+03  0.00000000000E+00 0. -1.
</event>
<event>
 7    1  0.2530765E-009  0.1363471E+03  0.7561462E-02  0.1218331E+00
         -1   -1    0    0    0  501 -0.00000000000E+00  0.00000000000E+00  0.74427872226E+02  0.74427872226E+02  0.00000000000E+00 0.  1.
          1   -1    0    0  501    0  0.00000000000E+00 -0.00000000000E+00 -0.38365087802E+03  0.38365087802E+03  0.00000000000E+00 0. -1.
         25    2    1    2    0    0 -0.47285686844E+02  0.11138879992E+03 -0.22559924585E+03  0.28493510950E+03  0.12509834518E+03 0.  0.
          5    1    3    3  502    0 -0.76082638036E+00  0.75126200267E+02 -0.21101209934E+03  0.22402701465E+03  0.41800000000E+01 0. -1.
         -5    1    3    3    0  502 -0.46524860464E+02  0.36262599653E+02 -0.14587146508E+02  0.60908094848E+02  0.41800000000E+01 0. -1.
        -11    1    1    2    0    0  0.64249229590E+02 -0.79732957493E+02 -0.26673761499E+02  0.10581492128E+03  0.00000000000E+00 0.  1.
         11    1    1    2    0    0 -0.16963542746E+02 -0.31655842428E+02 -0.56949998442E+02  0.67328719466E+02  0.00000000000E+00 0. -1.
</event>
<event>
 7    1  0.2530765E-009  0.1113177E+03  0.7561462E-02  0.1258149E+00
         -1   -1    0    0    0  501 -0.00000000000E+00  0.00000000000E+00  0.52054255664E+03  0.52054255664E+03  0.00000000000E+00 0.  1.
          1   -1    0    0  501    0  0.00000000000E+00 -0.00000000000E+00 -0.30201382316E+02  0.30201382316E+02  0.00000000000E+00 0. -1.
         25    2    1    2    0    0  0.41611614352E+02  0.35475615764E+02  0.33258224765E+03  0.35951163173E+03  0.12509043182E+03 0.  0.
          5    1    3    3  502    0 -0.40747470937E+02  0.36228430618E+01  0.16493781037E+03  0.16998657320E+03  0.41800000000E+01 0. -1.
         -5    1    3    3    0  502  0.82359085289E+02  0.31852772702E+02  0.16764443729E+03  0.18952505853E+03  0.41800000000E+01 0. -1.
        -11    1    1    2    0    0 -0.51426210463E+02  0.48067574563E+01  0.36948759770E+02  0.63505676033E+02  0.00000000000E+00 0. -1.
         11    1    1    2    0    0  0.98145961108E+01 -0.40282373220E+02  0.12081016690E+03  0.12772663119E+03  0.00000000000E+00 0.  1.
</event>
<event>
 7    1  0.2530765E-009  0.1874837E+03  0.7561462E-02  0.1160751E+00
         -1   -1    0    0    0  501 -0.00000000000E+00  0.00000000000E+00  0.15707033577E+03  0.15707033577E+03  0.00000000000E+00 0.  1.
          1   -1    0    0  501    0  0.00000000000E+00 -0.00000000000E+00 -0.47787162161E+03  0.47787162161E+03  0.00000000000E+00 0. -1.
         25    2    1    2    0    0  0.15957205841E+03 -0.39788906560E+02 -0.38631980661E+03  0.43810542169E+03  0.12508784365E+03 0.  0.
          5    1    3    3  502    0  0.17976710968E+03 -0.34753519312E+02 -0.32284009261E+03  0.37117006699E+03  0.41800000000E+01 0.  1.
         -5    1    3    3    0  502 -0.20195051275E+02 -0.50353872481E+01 -0.63479713993E+02  0.66935354704E+02  0.41800000000E+01 0.  1.
        -11    1    1    2    0    0 -0.63740842020E+02  0.39068519696E+02 -0.91888822344E+01  0.75323832413E+02  0.00000000000E+00 0. -1.
         11    1    1    2    0    0 -0.95831216389E+02  0.72038686405E+00  0.74707403003E+02  0.12151270327E+03  0.00000000000E+00 0.  1.
</event>
<event>
 7    1  0.2530765E-009  0.9017663E+02  0.7561462E-02  0.1302425E+00
         -2   -1    0    0    0  501 -0.00000000000E+00  0.00000000000E+00  0.24150690075E+03  0.24150690075E+03  0.00000000000E+00 0.  1.
          2   -1    0    0  501    0  0.00000000000E+00 -0.00000000000E+00 -0.55629598420E+02  0.55629598420E+02  0.00000000000E+00 0. -1.
         25    2    1    2    0    0  0.24999067217E+02  0.20772499260E+02  0.14047594609E+03  0.19088584134E+03  0.12508981936E+03 0.  0.
          5    1    3    3  502    0 -0.96287547040E+01 -0.44332484346E+02  0.91643715776E+02  0.10234317333E+03  0.41800000000E+01 0.  1.
         -5    1    3    3    0  502  0.34627821921E+02  0.65104983606E+02  0.48832230314E+02  0.88542668013E+02  0.41800000000E+01 0.  1.
        -11    1    1    2    0    0  0.12947255171E+02  0.62243110256E+01 -0.20819138431E+02  0.25294465584E+02  0.00000000000E+00 0. -1.
         11    1    1    2    0    0 -0.37946322388E+02 -0.26996810286E+02  0.66220494669E+02  0.80956192244E+02  0.00000000000E+00 0.  1.
</event>
<event>
 7    1  0.2530765E-009  0.1167721E+03  0.7561462E-02  0.1248519E+00
         -1   -1    0    0    0  501 -0.00000000000E+00  0.00000000000E+00  0.49735835442E+03  0.49735835442E+03  0.00000000000E+00 0.  1.
          1   -1    0    0  501    0  0.00000000000E+00 -0.00000000000E+00 -0.39365120933E+02  0.39365120933E+02  0.00000000000E+00 0. -1.
         25    2    1    2    0    0  0.81698981963E+02  0.27255919461E+02  0.21082839790E+03  0.25983399217E+03  0.12508989299E+03 0.  0.
          5    1    3    3  502    0 -0.15571166774E+02  0.61898114572E+01 -0.82746028692E+01  0.19149842120E+02  0.41800000000E+01 0.  1.
         -5    1    3    3    0  502  0.97270148737E+02  0.21066108004E+02  0.21910300077E+03  0.24068415005E+03  0.41800000000E+01 0.  1.
        -11    1    1    2    0    0 -0.31084031778E+02  0.27923171657E+02  0.45513187640E+02  0.61784875141E+02  0.00000000000E+00 0.  1.
         11    1    1    2    0    0 -0.50614950185E+02 -0.55179091119E+02  0.20165164795E+03  0.21510460804E+03  0.00000000000E+00 0. -1.
</event>
<event>
 7    1  0.2530765E-009  0.2700203E+03  0.7561462E-02  0.1101268E+00
         -1   -1    0    0    0  501 -0.00000000000E+00  0.00000000000E+00  0.59064052950E+03  0.59064052950E+03  0.00000000000E+00 0.  1.
          1   -1    0    0  501    0  0.00000000000E+00 -0.00000000000E+00 -0.12659178872E+03  0.12659178872E+03  0.00000000000E+00 0. -1.
         25    2    1    2    0    0 -0.16730945369E+03 -0.18734893702E+03  0.28793373542E+03  0.40205209400E+03  0.12509185744E+03 0.  0.
          5    1    3    3  502    0  0.95230017868E+01  0.10028375080E+02  0.78344731154E+01  0.16434939573E+02  0.41800000000E+01 0. -1.
         -5    1    3    3    0  502 -0.17683245548E+03 -0.19737731210E+03  0.28009926230E+03  0.38561715442E+03  0.41800000000E+01 0. -1.
        -11    1    1    2    0    0  0.50413284087E+02  0.15547411778E+02  0.25891131509E+02  0.58767098927E+02  0.00000000000E+00 0.  1.
         11    1    1    2    0    0  0.11689616961E+03  0.17180152525E+03  0.15022387386E+03  0.25641312529E+03  0.00000000000E+00 0. -1.
</event>
<event>
 7    1  0.2530765E-009  0.1021337E+03  0.7561462E-02  0.1275872E+00
          3   -1    0    0  501    0  0.00000000000E+00  0.00000000000E+00  0.43066100221E+03  0.43066100221E+03  0.00000000000E+00 0. -1.
         -3   -1    0    0    0  501 -0.00000000000E+00 -0.00000000000E+00 -0.70226162551E+02  0.70226162551E+02  0.00000000000E+00 0.  1.
         25    2    1    2    0    0  0.98270266066E+02  0.72539743416E+01  0.56602007787E+02  0.16899964064E+03  0.12508967150E+03 0.  0.
          5    1    3    3  502    0  0.22467686469E+02  0.51503444395E+00 -0.39927674362E+02  0.46008192485E+02  0.41800000000E+01 0. -1.
         -5    1    3    3    0  502  0.75802579597E+02  0.67389398976E+01  0.96529682149E+02  0.12299144816E+03  0.41800000000E+01 0. -1.
        -11    1    1    2    0    0 -0.66010199126E+02  0.12754257172E+02  0.78392315480E+02  0.10327329079E+03  0.00000000000E+00 0.  1.
         11    1    1    2    0    0 -0.32260066940E+02 -0.20008231514E+02  0.22544051639E+03  0.22861423332E+03  0.00000000000E+00 0. -1.
</event>
<event>
 7    1  0.2530765E-009  0.9996055E+02  0.7561462E-02  0.1280379E+00
         -1   -1    0    0    0  501 -0.00000000000E+00  0.00000000000E+00  0.19293052419E+03  0.19293052419E+03  0.00000000000E+00 0.  1.
          1   -1    0    0  501    0  0.00000000000E+00 -0.00000000000E+00 -0.76298180583E+02  0.76298180583E+02  0.00000000000E+00 0. -1.
         25    2    1    2    0    0 -0.44516970315E+02 -0.18792583139E+02  0.37846931687E+02  0.13933632226E+03  0.12508916274E+03 0.  0.
          5    1    3    3  502    0  0.26588314885E+02 -0.63116205754E+01 -0.29563971776E+02  0.40475620685E+02  0.41800000000E+01 0.  1.
         -5    1    3    3    0  502 -0.71105285200E+02 -0.12480962564E+02  0.67410903463E+02  0.98860701573E+02  0.41800000000E+01 0.  1.
        -11    1    1    2    0    0 -0.33886090260E+01  0.45155450175E+02  0.19683664325E+02  0.49375540431E+02  0.00000000000E+00 0. -1.
         11    1    1    2    0    0  0.47905579341E+02 -0.26362867035E+02  0.59101747595E+02  0.80516842083E+02  0.00000000000E+00 0.  1.
</event>
<event>
 7    1  0.2530765E-009  0.1375485E+03  0.7561462E-02  0.1216666E+00
         -1   -1    0    0    0  501 -0.00000000000E+00  0.00000000000E+00  0.40630700486E+02  0.40630700486E+02  0.00000000000E+00 0.  1.
          1   -1    0    0  501    0  0.00000000000E+00 -0.00000000000E+00 -0.51915869332E+03  0.51915869332E+03  0.00000000000E+00 0. -1.
         25    2    1    2    0    0  0.86690213844E+02 -0.38826201996E+02 -0.23274621281E+03  0.28078075478E+03  0.12507743819E+03 0.  0.
          5    1    3    3  502    0  0.46763742042E+02  0.41363234542E+02 -0.13086064864E+03  0.14505084110E+03  0.41800000000E+01 0.  1.
         -5    1    3    3    0  502  0.39926471803E+02 -0.80189436538E+02 -0.10188556417E+03  0.13572991368E+03  0.41800000000E+01 0.  1.
        -11    1    1    2    0    0 -0.78209642141E+02 -0.48466789867E+01 -0.20166798362E+03  0.21635668244E+03  0.00000000000E+00 0. -1.
         11    1    1    2    0    0 -0.84805717034E+01  0.43672880983E+02 -0.44113796412E+02  0.62651956582E+02  0.00000000000E+00 0.  1.
</event>
<event>
 7    1  0.2530765E-009  0.9500204E+02  0.7561462E-02  0.1291171E+00
         -1   -1    0    0    0  501 -0.00000000000E+00  0.00000000000E+00  0.43492186408E+02  0.43492186408E+02  0.00000000000E+00 0.  1.
          1   -1    0    0  501    0  0.00000000000E+00 -0.00000000000E+00 -0.35516998031E+03  0.35516998031E+03  0.00000000000E+00 0. -1.
         25    2    1    2    0    0 -0.80362499994E+01 -0.13788129380E+02 -0.26977271705E+03  0.29779107299E+03  0.12509000943E+03 0.  0.
          5    1    3    3  502    0 -0.64941330439E+02  0.18949763803E+01 -0.16635606859E+03  0.17864148816E+03  0.41800000000E+01 0.  1.
         -5    1    3    3    0  502  0.56905080440E+02 -0.15683105761E+02 -0.10341664846E+03  0.11914958483E+03  0.41800000000E+01 0.  1.
        -11    1    1    2    0    0 -0.25148954104E+02 -0.75681509564E+01 -0.53619447166E+02  0.59705878402E+02  0.00000000000E+00 0. -1.
         11    1    1    2    0    0  0.33185204104E+02  0.21356280337E+02  0.11714370313E+02  0.41165215329E+02  0.00000000000E+00 0.  1.
</event>
<event>
 7    1  0.2530765E-009  0.6696396E+02  0.7561462E-02  0.1370733E+00
         -2   -1    0    0    0  501 -0.00000000000E+00  0.00000000000E+00  0.13404629179E+02  0.13404629179E+02  0.00000000000E+00 0.  1.
          2   -1    0    0  501    0  0.00000000000E+00 -0.00000000000E+00 -0.10963398308E+04  0.10963398308E+04  0.00000000000E+00 0. -1.
         25    2    1    2    0    0 -0.43570621737E+01 -0.42533341325E+02 -0.76222987026E+03  0.77360855374E+03  0.12509096766E+03 0.  0.
          5    1    3    3  502    0  0.57642763588E+01  0.11116524742E+01 -0.67862651595E+03  0.67866477970E+03  0.41800000000E+01 0. -1.
         -5    1    3    3    0  502 -0.10121338533E+02 -0.43644993800E+02 -0.83603354307E+02  0.94943774040E+02  0.41800000000E+01 0. -1.
        -11    1    1    2    0    0  0.35304715861E+02  0.97197724083E+01 -0.51577834237E+02  0.63254801575E+02  0.00000000000E+00 0.  1.
         11    1    1    2    0    0 -0.30947653687E+02  0.32813568917E+02 -0.26912749715E+03  0.27288110468E+03  0.00000000000E+00 0. -1.
</event>
<event>
 7    1  0.2530765E-009  0.1245578E+03  0.7561462E-02  0.1235762E+00
          1   -1    0    0  501    0  0.00000000000E+00  0.00000000000E+00  0.33185942955E+02  0.33185942955E+02  0.00000000000E+00 0. -1.
         -1   -1    0    0    0  501 -0.00000000000E+00 -0.00000000000E+00 -0.66095339396E+03  0.66095339396E+03  0.00000000000E+00 0.  1.
         25    2    1    2    0    0 -0.33191880031E+01  0.84209869378E+02 -0.46679955613E+03  0.49056068442E+03  0.12508253430E+03 0.  0.
          5    1    3    3  502    0 -0.41831856667E+02  0.78761604905E+02 -0.17811782932E+03  0.19924037784E+03  0.41800000000E+01 0. -1.
         -5    1    3    3    0  502  0.38512668664E+02  0.54482644737E+01 -0.28868172680E+03  0.29132030657E+03  0.41800000000E+01 0. -1.
        -11    1    1    2    0    0 -0.41439313547E+02 -0.45477332838E+02 -0.10726026486E+03  0.12365342263E+03  0.00000000000E+00 0. -1.
         11    1    1    2    0    0  0.44758501550E+02 -0.38732536540E+02 -0.53707630014E+02  0.79925229868E+02  0.00000000000E+00 0.  1.
</event>
<event>
 7    1  0.2530765E-009  0.1251287E+03  0.7561462E-02  0.1234868E+00
         -2   -1    0    0    0  501 -0.00000000000E+00  0.00000000000E+00  0.12316935961E+02  0.12316935961E+02  0.00000000000E+00 0.  1.
          2   -1    0    0  501    0  0.00000000000E+00 -0.00000000000E+00 -0.23641553666E+04  0.23641553666E+04  0.00000000000E+00 0. -1.
         25    2    1    2    0    0 -0.73048684858E+02 -0.33201460043E+02 -0.19776906091E+04  0.19832663022E+04  0.12508650023E+03 0.  0.
          5    1    3    3  502    0 -0.62791189350E+02 -0.71290091468E+02 -0.93537503475E+03  0.94019622348E+03  0.41800000000E+01 0.  1.
         -5    1    3    3    0  502 -0.10257495508E+02  0.38088631425E+02 -0.10423155744E+04  0.10430700787E+04  0.41800000000E+01 0.  1.
        -11    1    1    2    0    0  0.62761266636E+01 -0.25702811914E+02 -0.44755657502E+02  0.51991279891E+02  0.00000000000E+00 0.  1.
         11    1    1    2    0    0  0.66772558194E+02  0.58904271957E+02 -0.32939216400E+03  0.34121472050E+03  0.00000000000E+00 0. -1.
</event>
<event>
 7    1  0.2530765E-009  0.1090231E+03  0.7561462E-02  0.1262390E+00
         -2   -1    0    0    0  501 -0.00000000000E+00  0.00000000000E+00  0.65805167401E+02  0.65805167401E+02  0.00000000000E+00 0.  1.
          2   -1    0    0  501    0  0.00000000000E+00 -0.00000000000E+00 -0.21842976165E+03  0.21842976165E+03  0.00000000000E+00 0. -1.
         25    2    1    2    0    0 -0.22873016695E+02  0.31156021684E+02 -0.44834172452E+02  0.13839067660E+03  0.12509198124E+03 0.  0.
          5    1    3    3  502    0  0.43837917627E+02 -0.11550229511E+02  0.32368001452E+01  0.45641210532E+02  0.41800000000E+01 0. -1.
         -5    1    3    3    0  502 -0.66710934322E+02  0.42706251195E+02 -0.48070972597E+02  0.92749466067E+02  0.41800000000E+01 0. -1.
        -11    1    1    2    0    0  0.53653748656E+02 -0.31880781698E+02 -0.48515207993E+02  0.79049569216E+02  0.00000000000E+00 0.  1.
         11    1    1    2    0    0 -0.30780731961E+02  0.72476001373E+00 -0.59275213804E+02  0.66794683237E+02  0.00000000000E+00 0. -1.
</event>
<event>
 7    1  0.2530765E-009  0.1095761E+03  0.7561462E-02  0.1261357E+00
         -1   -1    0    0    0  501 -0.00000000000E+00  0.00000000000E+00  0.70417126745E+02  0.70417126745E+02  0.00000000000E+00 0.  1.
          1   -1    0    0  501    0  0.00000000000E+00 -0.00000000000E+00 -0.20504291438E+03  0.20504291438E+03  0.00000000000E+00 0. -1.
         25    2    1    2    0    0  0.30972730896E+02  0.41874358695E+02 -0.89541620380E+02  0.16241086783E+03  0.12508723450E+03 0.  0.
          5    1    3    3  502    0  0.11919199204E+02  0.75942940469E+02 -0.95539536548E+02  0.12269748555E+03  0.41800000000E+01 0. -1.
         -5    1    3    3    0  502  0.19053531692E+02 -0.34068581774E+02  0.59979161681E+01  0.39713382283E+02  0.41800000000E+01 0. -1.
        -11    1    1    2    0    0 -0.44244230669E+02  0.13268320249E+02 -0.13464055472E+02  0.48113210862E+02  0.00000000000E+00 0. -1.
         11    1    1    2    0    0  0.13271499773E+02 -0.55142678944E+02 -0.31620111779E+02  0.64935962426E+02  0.00000000000E+00 0.  1.
</event>
<event>
 7    1  0.2530765E-009  0.1019911E+03  0.7561462E-02  0.1276164E+00
          2   -1    0    0  501    0  0.00000000000E+00  0.00000000000E+00  0.41825999870E+03  0.41825999870E+03  0.00000000000E+00 0. -1.
         -2   -1    0    0    0  501 -0.00000000000E+00 -0.00000000000E+00 -0.34699528325E+02  0.34699528325E+02  0.00000000000E+00 0.  1.
         25    2    1    2    0    0  0.28689372796E+02 -0.39457972455E+02  0.25157391173E+03  0.28516155704E+03  0.12509064251E+03 0.  0.
          5    1    3    3  502    0  0.69262167192E+02  0.12016543601E+01  0.18237033707E+03  0.19512842955E+03  0.41800000000E+01 0. -1.
         -5    1    3    3    0  502 -0.40572794396E+02 -0.40659626815E+02  0.69203574664E+02  0.90033127481E+02  0.41800000000E+01 0. -1.
        -11    1    1    2    0    0 -0.24978149143E+02 -0.10355877743E+02  0.39302357046E+00  0.27042681190E+02  0.00000000000E+00 0.  1.
         11    1    1    2    0    0 -0.37112236525E+01  0.49813850198E+02  0.13159353507E+03  0.14075528880E+03  0.00000000000E+00 0. -1.
</event>
<event>
 7    1  0.2530765E-009  0.2040632E+03  0.7561462E-02  0.1146355E+00
          1   -1    0    0  501    0  0.00000000000E+00  0.00000000000E+00  0.49130122735E+03  0.49130122735E+03  0.00000000000E+00 0. -1.
         -1   -1    0    0    0  501 -0.00000000000E+00 -0.00000000000E+00 -0.92406524708E+02  0.92406524708E+02  0.00000000000E+00 0.  1.
         25    2    1    2    0    0 -0.13130849754E+03 -0.12334633598E+03  0.16545786915E+03  0.27473504658E+03  0.12508716654E+03 0.  0.
          5    1    3    3  502    0 -0.74150127453E+02  0.85373177910E+01  0.45868018432E+02  0.87706754080E+02  0.41800000000E+01 0. -1.
         -5    1    3    3    0  502 -0.57158370083E+02 -0.13188365377E+03  0.11958985071E+03  0.18702829250E+03  0.41800000000E+01 0. -1.
        -11    1    1    2    0    0  0.15300505768E+02  0.50077858962E+02  0.12006239364E+03  0.13098425784E+03  0.00000000000E+00 0. -1.
         11    1    1    2    0    0  0.11600799177E+03  0.73268477020E+02  0.11337443986E+03  0.17798844764E+03  0.00000000000E+00 0.  1.
</event>
<event>
 7    1  0.2530765E-009  0.1235129E+03  0.7561462E-02  0.1237412E+00
         -4   -1    0    0    0  501 -0.00000000000E+00  0.00000000000E+00  0.53104040113E+03  0.53104040113E+03  0.00000000000E+00 0.  1.
          4   -1    0    0  501    0  0.00000000000E+00 -0.00000000000E+00 -0.38776334480E+02  0.38776334480E+02  0.00000000000E+00 0. -1.
         25    2    1    2    0    0 -0.48923264726E+02  0.68125762150E+02  0.18697395514E+03  0.24008590906E+03  0.12508948209E+03 0.  0.
          5    1    3    3  502    0 -0.85303439729E+02  0.29426527362E+02  0.80375518391E+02  0.12091440650E+03  0.41800000000E+01 0.  1.
         -5    1    3    3    0  502  0.36380175003E+02  0.38699234788E+02  0.10659843675E+03  0.11917150256E+03  0.41800000000E+01 0.  1.
        -11    1    1    2    0    0  0.63043430185E+02 -0.50161035342E+02  0.29281801344E+03  0.30369885175E+03  0.00000000000E+00 0.  1.
         11    1    1    2    0    0 -0.14120165459E+02 -0.17964726808E+02  0.12472098074E+02  0.26031974805E+02  0.00000000000E+00 0. -1.
</event>
<event>
 7    1  0.2530765E-009  0.9220088E+02  0.7561462E-02  0.1297608E+00
          2   -1    0    0  501    0  0.00000000000E+00  0.00000000000E+00  0.94562465051E+03  0.94562465051E+03  0.00000000000E+00 0. -1.
         -2   -1    0    0    0  501 -0.00000000000E+00 -0.00000000000E+00 -0.13932541232E+02  0.13932541232E+02  0.00000000000E+00 0.  1.
         25    2    1    2    0    0 -0.96608681718E+01 -0.46870697746E+01  0.68682670757E+03  0.69821020583E+03  0.12510501308E+03 0.  0.
          5    1    3    3  502    0  0.42079311851E+02 -0.22986681321E+02  0.52657290098E+03  0.52876795331E+03  0.41800000000E+01 0.  1.
         -5    1    3    3    0  502 -0.51740180023E+02  0.18299611546E+02  0.16025380659E+03  0.16944225252E+03  0.41800000000E+01 0.  1.
        -11    1    1    2    0    0 -0.23983621756E+02  0.30518134974E+02  0.17784687246E+03  0.18203318576E+03  0.00000000000E+00 0. -1.
         11    1    1    2    0    0  0.33644489928E+02 -0.25831065200E+02  0.67018529255E+02  0.79313800157E+02  0.00000000000E+00 0.  1.
</event>
<event>
 7    1  0.2530765E-009  0.1013587E+03  0.7561462E-02  0.1277464E+00
         -1   -1    0    0    0  501 -0.00000000000E+00  0.00000000000E+00  0.18135070361E+02  0.18135070361E+02  0.00000000000E+00 0.  1.
          1   -1    0    0  501    0  0.00000000000E+00 -0.00000000000E+00 -0.70546081147E+03  0.70546081147E+03  0.00000000000E+00 0. -1.
         25    2    1    2    0    0  0.41573470423E+01 -0.76805932345E+01 -0.49455638427E+03  0.51020192857E+03  0.12507484019E+03 0.  0.
          5    1    3    3  502    0  0.54187803786E+02  0.23555463737E+02 -0.33161716536E+03  0.33686584083E+03  0.41800000000E+01 0.  1.
         -5    1    3    3    0  502 -0.50030456744E+02 -0.31236056972E+02 -0.16293921891E+03  0.17333608775E+03  0.41800000000E+01 0.  1.
        -11    1    1    2    0    0  0.19446113515E+02  0.39916529940E+02 -0.59350266955E+02  0.74121082567E+02  0.00000000000E+00 0.  1.
         11    1    1    2    0    0 -0.23603460557E+02 -0.32235936706E+02 -0.13341908988E+03  0.13927287069E+03  0.00000000000E+00 0. -1.
</event>
<event>
 7    1  0.2530765E-009  0.1099264E+03  0.7561462E-02  0.1260706E+00
         -1   -1    0    0    0  501 -0.00000000000E+00  0.00000000000E+00  0.76827376593E+03  0.76827376593E+03  0.00000000000E+00 0.  1.
          1   -1    0    0  501    0  0.00000000000E+00 -0.00000000000E+00 -0.19543183704E+02  0.19543183704E+02  0.00000000000E+00 0. -1.
         25    2    1    2    0    0  0.30302058681E+02  0.12755012663E+02  0.31047464733E+03  0.33633739837E+03  0.12508970300E+03 0.  0.
          5    1    3    3  502    0  0.65565101214E+02 -0.16329728423E+02  0.98962297066E+02  0.11990183972E+03  0.41800000000E+01 0.  1.
         -5    1    3    3    0  502 -0.35263042534E+02  0.29084741086E+02  0.21151235027E+03  0.21643555865E+03  0.41800000000E+01 0.  1.
        -11    1    1    2    0    0 -0.79164627277E+01  0.44281060133E+02  0.23175643460E+03  0.23608161226E+03  0.00000000000E+00 0.  1.
         11    1    1    2    0    0 -0.22385595953E+02 -0.57036072796E+02  0.20649950029E+03  0.21539793900E+03  0.00000000000E+00 0. -1.
</event>
<event>
 7    1  0.2530765E-009  0.1169964E+03  0.7561462E-02  0.1248136E+00
          1   -1    0    0  501    0  0.00000000000E+00  0.00000000000E+00  0.67484222473E+03  0.67484222473E+03  0.00000000000E+00 0. -1.
         -1   -1    0    0    0  501 -0.00000000000E+00 -0.00000000000E+00 -0.29283171396E+02  0.29283171396E+02  0.00000000000E+00 0.  1.
         25    2    1    2    0    0  0.38619601385E+02  0.79026216863E+02  0.32780322519E+03  0.36171694410E+03  0.12509027397E+03 0.  0.
          5    1    3    3  502    0  0.53987789108E+02  0.51287209792E+02  0.32029188742E+03  0.32886079852E+03  0.41800000000E+01 0. -1.
         -5    1    3    3    0  502 -0.15368187723E+02  0.27739007071E+02  0.75113377791E+01  0.32856145581E+02  0.41800000000E+01 0. -1.
        -11    1    1    2    0    0  0.16895144113E+02 -0.68966076307E+02  0.18522265249E+03  0.19836631915E+03  0.00000000000E+00 0.  1.
         11    1    1    2    0    0 -0.55514745498E+02 -0.10060140556E+02  0.13253317564E+03  0.14404213287E+03  0.00000000000E+00 0. -1.
</event>
<event>
 7    1  0.2530765E-009  0.2535619E+03  0.7561462E-02  0.1111074E+00
         -2   -1    0    0    0  501 -0.00000000000E+00  0.00000000000E+00  0.43978533341E+02  0.43978533341E+02  0.00000000000E+00 0. -1.
          2   -1    0    0  501    0  0.00000000000E+00 -0.00000000000E+00 -0.16727785984E+04  0.16727785984E+04  0.00000000000E+00 0.  1.
         25    2    1    2    0    0  0.69126004003E+02  0.23623341902E+03 -0.92324322100E+03  0.96364369355E+03  0.12508593167E+03 0.  0.
          5    1    3    3  502    0  0.32379534663E+02  0.18018820868E+03 -0.82204415703E+03  0.84219373859E+03  0.41800000000E+01 0.  1.
         -5    1    3    3    0  502  0.36746469340E+02  0.56045210345E+02 -0.10119906398E+03  0.12144995497E+03  0.41800000000E+01 0.  1.
        -11    1    1    2    0    0 -0.73087323689E+02 -0.11967350658E+03 -0.30062956615E+03  0.33172524942E+03  0.00000000000E+00 0. -1.
         11    1    1    2    0    0  0.39613196855E+01 -0.11655991244E+03 -0.40492727794E+03  0.42138818880E+03  0.00000000000E+00 0.  1.
</event>
<event>
 7    1  0.2530765E-009  0.2909556E+03  0.7561462E-02  0.1089851E+00
         -1   -1    0    0    0  501 -0.00000000000E+00  0.00000000000E+00  0.75607706005E+03  0.75607706005E+03  0.00000000000E+00 0.  1.
          1   -1    0    0  501    0  0.00000000000E+00 -0.00000000000E+00 -0.14072631532E+03  0.14072631532E+03  0.00000000000E+00 0. -1.
         25    2    1    2    0    0  0.86058013614E+01 -0.28153817059E+03  0.14397597851E+03  0.34016788924E+03  0.12508920483E+03 0.  0.
          5    1    3    3  502    0  0.48214376304E+02 -0.79953137982E+02  0.85147482683E+02  0.12643059979E+03  0.41800000000E+01 0.  1.
         -5    1    3    3    0  502 -0.39608574942E+02 -0.20158503261E+03  0.58828495827E+02  0.21373728946E+03  0.41800000000E+01 0.  1.
        -11    1    1    2    0    0  0.90254880356E+01  0.53928019783E+02  0.37301166979E+02  0.66189635215E+02  0.00000000000E+00 0. -1.
         11    1    1    2    0    0 -0.17631289397E+02  0.22761015081E+03  0.43407359924E+03  0.49044585091E+03  0.00000000000E+00 0.  1.
</event>
<event>
 7    1  0.2530765E-009  0.2536289E+03  0.7561462E-02  0.1111033E+00
         -4   -1    0    0    0  501 -0.00000000000E+00  0.00000000000E+00  0.48506225655E+03  0.48506225655E+03  0.00000000000E+00 0.  1.
          4   -1    0    0  501    0  0.00000000000E+00 -0.00000000000E+00 -0.15486198917E+03  0.15486198917E+03  0.00000000000E+00 0. -1.
         25    2    1    2    0    0 -0.12611169111E+03 -0.19746663106E+03  0.28252245470E+03  0.38776711139E+03  0.12508863357E+03 0.  0.
          5    1    3    3  502    0 -0.41365229139E+02 -0.17145249433E+03  0.17737160654E+03  0.25017034037E+03  0.41800000000E+01 0.  1.
         -5    1    3    3    0  502 -0.84746461972E+02 -0.26014136734E+02  0.10515084816E+03  0.13759677102E+03  0.41800000000E+01 0.  1.
        -11    1    1    2    0    0  0.43744900660E+02  0.23614526092E+02  0.32047325009E+02  0.59146371119E+02  0.00000000000E+00 0.  1.
         11    1    1    2    0    0  0.82366790451E+02  0.17385210497E+03  0.15630487664E+02  0.19301076322E+03  0.00000000000E+00 0. -1.
</event>
<event>
 7    1  0.2530765E-009  0.7710112E+02  0.7561462E-02  0.1337485E+00
         -2   -1    0    0    0  501 -0.00000000000E+00  0.00000000000E+00  0.56764185652E+02  0.56764185652E+02  0.00000000000E+00 0.  1.
          2   -1    0    0  501    0  0.00000000000E+00 -0.00000000000E+00 -0.22295463413E+03  0.22295463413E+03  0.00000000000E+00 0. -1.
         25    2    1    2    0    0  0.14047089202E+02  0.31454877552E+02 -0.52759810323E+02  0.14006707369E+03  0.12509379485E+03 0.  0.
          5    1    3    3  502    0  0.35250733626E+02  0.11342682298E+01  0.31800322295E+02  0.47672147882E+02  0.41800000000E+01 0.  1.
         -5    1    3    3    0  502 -0.21203644424E+02  0.30320609322E+02 -0.84560132619E+02  0.92394925808E+02  0.41800000000E+01 0.  1.
        -11    1    1    2    0    0  0.29785264149E+02 -0.20841816112E+02 -0.51731605626E+02  0.63227385522E+02  0.00000000000E+00 0.  1.
         11    1    1    2    0    0 -0.43832353351E+02 -0.10613061440E+02 -0.61699032527E+02  0.76424360568E+02  0.00000000000E+00 0. -1.
</event>
<event>
 7    1  0.2530765E-009  0.1211094E+03  0.7561462E-02  0.1241278E+00
         -2   -1    0    0    0  501 -0.00000000000E+00  0.00000000000E+00  0.75357689220E+02  0.75357689220E+02  0.00000000000E+00 0. -1.
          2   -1    0    0  501    0  0.00000000000E+00 -0.00000000000E+00 -0.35848235134E+03  0.35848235134E+03  0.00000000000E+00 0.  1.
         25    2    1    2    0    0 -0.45434034132E+02  0.54052230560E+02 -0.18182423257E+02  0.14478948323E+03  0.12508996304E+03 0.  0.
          5    1    3    3  502    0 -0.66002639027E+01  0.87545377790E+02  0.56728816336E+01  0.88076163869E+02  0.41800000000E+01 0.  1.
         -5    1    3    3    0  502 -0.38833770229E+02 -0.33493147229E+02 -0.23855304891E+02  0.56713319361E+02  0.41800000000E+01 0.  1.
        -11    1    1    2    0    0  0.57792807791E+02 -0.11977213163E+02 -0.82665015994E+02  0.10157247234E+03  0.00000000000E+00 0. -1.
         11    1    1    2    0    0 -0.12358773660E+02 -0.42075017397E+02 -0.18227722287E+03  0.18747808499E+03  0.00000000000E+00 0.  1.
</event>
<event>
 7    1  0.2530765E-009  0.1358271E+03  0.7561462E-02  0.1219057E+00
          1   -1    0    0  501    0  0.00000000000E+00  0.00000000000E+00  0.48155485539E+03  0.48155485539E+03  0.00000000000E+00 0. -1.
         -1   -1    0    0    0  501 -0.00000000000E+00 -0.00000000000E+00 -0.59971806132E+02  0.59971806132E+02  0.00000000000E+00 0.  1.
         25    2    1    2    0    0 -0.11882843738E+03 -0.40420374355E+01  0.13927518313E+03  0.22176999908E+03  0.12509124773E+03 0.  0.
          5    1    3    3  502    0  0.13391059136E+02  0.34029146253E+01 -0.13347053644E+02  0.19660023746E+02  0.41800000000E+01 0. -1.
         -5    1    3    3    0  502 -0.13221949652E+03 -0.74449520608E+01  0.15262223678E+03  0.20210997533E+03  0.41800000000E+01 0. -1.
        -11    1    1    2    0    0  0.80465903289E+02  0.20412544143E+02  0.25899540318E+03  0.27197435985E+03  0.00000000000E+00 0. -1.
         11    1    1    2    0    0  0.38362534093E+02 -0.16370506708E+02  0.23312462944E+02  0.47782302586E+02  0.00000000000E+00 0.  1.
</event>
<event>
 7    1  0.2530765E-009  0.1978190E+03  0.7561462E-02  0.1151592E+00
         -2   -1    0    0    0  501 -0.00000000000E+00  0.00000000000E+00  0.13553486011E+03  0.13553486011E+03  0.00000000000E+00 0.  1.
          2   -1    0    0  501    0  0.00000000000E+00 -0.00000000000E+00 -0.64546334604E+03  0.64546334604E+03  0.00000000000E+00 0. -1.
         25    2    1    2    0    0 -0.13445772874E+03 -0.12609706354E+03  0.83991498509E+01  0.22292857968E+03  0.12508899100E+03 0.  0.
          5    1    3    3  502    0 -0.13150120652E+02 -0.34536992680E+02 -0.48037225363E+02  0.60751765053E+02  0.41800000000E+01 0. -1.
         -5    1    3    3    0  502 -0.12130760809E+03 -0.91560070857E+02  0.56436375214E+02  0.16217681463E+03  0.41800000000E+01 0. -1.
        -11    1    1    2    0    0  0.70656765593E+02  0.66261412267E+01 -0.16160349458E+03  0.17649921737E+03  0.00000000000E+00 0. -1.
         11    1    1    2    0    0  0.63800963151E+02  0.11947092231E+03 -0.35672414121E+03  0.38157040910E+03  0.00000000000E+00 0.  1.
</event>
<event>
 7    1  0.2530765E-009  0.1222072E+03  0.7561462E-02  0.1239500E+00
          2   -1    0    0  501    0  0.00000000000E+00  0.00000000000E+00  0.81443204555E+03  0.81443204555E+03  0.00000000000E+00 0. -1.
         -2   -1    0    0    0  501 -0.00000000000E+00 -0.00000000000E+00 -0.33534565766E+02  0.33534565766E+02  0.00000000000E+00 0.  1.
         25    2    1    2    0    0 -0.73546039826E+02  0.43717773698E+02  0.65003416550E+03  0.66746565570E+03  0.12508285855E+03 0.  0.
          5    1    3    3  502    0  0.32656920444E+02 -0.44097876877E+01  0.18902742838E+03  0.19192384365E+03  0.41800000000E+01 0.  1.
         -5    1    3    3    0  502 -0.10620296027E+03  0.48127561386E+02  0.46100673712E+03  0.47554181205E+03  0.41800000000E+01 0.  1.
        -11    1    1    2    0    0  0.47534720283E+02 -0.48684267885E+02  0.13731200006E+03  0.15324585780E+03  0.00000000000E+00 0. -1.
         11    1    1    2    0    0  0.26011319542E+02  0.49664941873E+01 -0.64486857800E+01  0.27255097819E+02  0.00000000000E+00 0.  1.
</event>
<event>
 7    1  0.2530765E-009  0.1190550E+03  0.7561462E-02  0.1244664E+00
          1   -1    0    0  501    0  0.00000000000E+00  0.00000000000E+00  0.19910393314E+03  0.19910393314E+03  0.00000000000E+00 0. -1.
         -1   -1    0    0    0  501 -0.00000000000E+00 -0.00000000000E+00 -0.13123739612E+03  0.13123739612E+03  0.00000000000E+00 0.  1.
         25    2    1    2    0    0 -0.48893041755E+02 -0.20820267664E+02  0.14629274776E+03  0.19968299926E+03  0.12509084326E+03 0.  0.
          5    1    3    3  502    0 -0.71766281982E+02 -0.56223013517E+02  0.81987804202E+02  0.12268210512E+03  0.41800000000E+01 0. -1.
         -5    1    3    3    0  502  0.22873240227E+02  0.35402745853E+02  0.64304943557E+02  0.77000894140E+02  0.41800000000E+01 0. -1.
        -11    1    1    2    0    0  0.16394962214E+02 -0.35705454025E+02 -0.30440850907E+02  0.49702310178E+02  0.00000000000E+00 0. -1.
         11    1    1    2    0    0  0.32498079541E+02  0.56525721689E+02 -0.47985359840E+02  0.80956019821E+02  0.00000000000E+00 0.  1.
</event>
<event>
 7    1  0.2530765E-009  0.8965217E+02  0.7561462E-02  0.1303696E+00
         -2   -1    0    0    0  501 -0.00000000000E+00  0.00000000000E+00  0.55022642975E+02  0.55022642975E+02  0.00000000000E+00 0. -1.
          2   -1    0    0  501    0  0.00000000000E+00 -0.00000000000E+00 -0.29858741122E+03  0.29858741122E+03  0.00000000000E+00 0.  1.
         25    2    1    2    0    0 -0.61043334297E+02 -0.11987895682E+02 -0.17629922394E+03  0.22494050276E+03  0.12508723003E+03 0.  0.
          5    1    3    3  502    0 -0.63557274401E+02 -0.15905843359E+02 -0.19471836737E+03  0.20548780492E+03  0.41800000000E+01 0.  1.
         -5    1    3    3    0  502  0.25139401041E+01  0.39179476773E+01  0.18419143423E+02  0.19452697841E+02  0.41800000000E+01 0.  1.
        -11    1    1    2    0    0 -0.10109880594E+02  0.31938251561E+02 -0.93477885153E+01  0.34779918754E+02  0.00000000000E+00 0. -1.
         11    1    1    2    0    0  0.71153214891E+02 -0.19950355879E+02 -0.57917755786E+02  0.93889632677E+02  0.00000000000E+00 0.  1.
</event>
<event>
 7    1  0.2530765E-009  0.4864584E+03  0.7561462E-02  0.1017375E+00
         -2   -1    0    0    0  501 -0.00000000000E+00  0.00000000000E+00  0.10699545839E+03  0.10699545839E+03  0.00000000000E+00 0.  1.
          2   -1    0    0  501    0  0.00000000000E+00 -0.00000000000E+00 -0.22767016334E+04  0.22767016334E+04  0.00000000000E+00 0. -1.
         25    2    1    2    0    0 -0.92800324278E+02 -0.47063886557E+03 -0.99343244387E+03  0.11102554195E+04  0.12508490746E+03 0.  0.
          5    1    3    3  502    0  0.21578069238E+02 -0.76035216696E+02 -0.10566638692E+03  0.13202206246E+03  0.41800000000E+01 0.  1.
         -5    1    3    3    0  502 -0.11437839352E+03 -0.39460364887E+03 -0.88776605695E+03  0.97823335707E+03  0.41800000000E+01 0.  1.
        -11    1    1    2    0    0  0.93653908977E+02  0.35159723039E+03 -0.80170015036E+03  0.88040604165E+03  0.00000000000E+00 0. -1.
         11    1    1    2    0    0 -0.85358469918E+00  0.11904163518E+03 -0.37457358082E+03  0.39303563065E+03  0.00000000000E+00 0.  1.
</event>
<event>
 7    1  0.2530765E-009  0.1073536E+03  0.7561462E-02  0.1265551E+00
         -1   -1    0    0    0  501 -0.00000000000E+00  0.00000000000E+00  0.26386600187E+03  0.26386600187E+03  0.00000000000E+00 0.  1.
          1   -1    0    0  501    0  0.00000000000E+00 -0.00000000000E+00 -0.68275701504E+02  0.68275701504E+02  0.00000000000E+00 0. -1.
         25    2    1    2    0    0  0.52553715377E+02 -0.32739364565E+02  0.17059031518E+03  0.22041062210E+03  0.12508408256E+03 0.  0.
          5    1    3    3  502    0  0.24460518769E+02 -0.64592952996E+02  0.16297908389E+03  0.17705993545E+03  0.41800000000E+01 0.  1.
         -5    1    3    3    0  502  0.28093196608E+02  0.31853588431E+02  0.76112312899E+01  0.43350686653E+02  0.41800000000E+01 0.  1.
        -11    1    1    2    0    0  0.22072133239E+02  0.13102074654E+02  0.23114674682E+02  0.34541737241E+02  0.00000000000E+00 0.  1.
         11    1    1    2    0    0 -0.74625848616E+02  0.19637289911E+02  0.18853105056E+01  0.77189344034E+02  0.00000000000E+00 0. -1.
</event>
<event>
 7    1  0.2530765E-009  0.1082943E+03  0.7561462E-02  0.1263762E+00
         -2   -1    0    0    0  501 -0.00000000000E+00  0.00000000000E+00  0.67818267999E+02  0.67818267999E+02  0.00000000000E+00 0. -1.
          2   -1    0    0  501    0  0.00000000000E+00 -0.00000000000E+00 -0.23940995663E+03  0.23940995663E+03  0.00000000000E+00 0.  1.
         25    2    1    2    0    0 -0.46278977705E+02 -0.14640137689E+02 -0.15311108088E+03  0.20358471173E+03  0.12509058459E+03 0.  0.
          5    1    3    3  502    0 -0.79614588509E+02 -0.18505515285E+02 -0.51995242442E+02  0.96963469596E+02  0.41800000000E+01 0.  1.
         -5    1    3    3    0  502  0.33335610804E+02  0.38653775961E+01 -0.10111583844E+03  0.10662124214E+03  0.41800000000E+01 0.  1.
        -11    1    1    2    0    0 -0.12106145918E+02 -0.26747797150E+02  0.13157344678E+01  0.29389361656E+02  0.00000000000E+00 0.  1.
         11    1    1    2    0    0  0.58385123623E+02  0.41387934840E+02 -0.19796342215E+02  0.74254151236E+02  0.00000000000E+00 0. -1.
</event>
<event>
 7    1  0.2530765E-009  0.9636794E+02  0.7561462E-02  0.1288125E+00
         -1   -1    0    0    0  501 -0.00000000000E+00  0.00000000000E+00  0.23392646061E+03  0.23392646061E+03  0.00000000000E+00 0.  1.
          1   -1    0    0  501    0  0.00000000000E+00 -0.00000000000E+00 -0.58635186652E+02  0.58635186652E+02  0.00000000000E+00 0. -1.
         25    2    1    2    0    0  0.36752357922E+02 -0.23510923047E+02  0.83137685370E+02  0.15640618254E+03  0.12509004714E+03 0.  0.
          5    1    3    3  502    0 -0.37657767789E+02 -0.22546966074E+02  0.66903434351E+02  0.80124996611E+02  0.41800000000E+01 0. -1.
         -5    1    3    3    0  502  0.74410125710E+02 -0.96395697251E+00  0.16234251019E+02  0.76281185934E+02  0.41800000000E+01 0. -1.
        -11    1    1    2    0    0 -0.24744148488E+02 -0.18193758409E+02  0.87228863004E+02  0.92477890711E+02  0.00000000000E+00 0.  1.
         11    1    1    2    0    0 -0.12008209434E+02  0.41704681456E+02  0.49247255858E+01  0.43677574008E+02  0.00000000000E+00 0. -1.
</event>
<event>
 7    1  0.2530765E-009  0.2588033E+03  0.7561462E-02  0.1107864E+00
          1   -1    0    0  501    0  0.00000000000E+00  0.00000000000E+00  0.15969905177E+04  0.15969905177E+04  0.00000000000E+00 0. -1.
         -1   -1    0    0    0  501 -0.00000000000E+00 -0.00000000000E+00 -0.44375690929E+02  0.44375690929E+02  0.00000000000E+00 0.  1.
         25    2    1    2    0    0 -0.22336581280E+03 -0.87349108926E+02  0.68155585085E+03  0.73327344103E+03  0.12509759525E+03 0.  0.
          5    1    3    3  502    0 -0.24452402009E+01 -0.43357389722E+02  0.14255149678E+03  0.14907797985E+03  0.41800000000E+01 0. -1.
         -5    1    3    3    0  502 -0.22092057260E+03 -0.43991719204E+02  0.53900435407E+03  0.58419546118E+03  0.41800000000E+01 0. -1.
        -11    1    1    2    0    0  0.73548353831E+02  0.63117406628E+02  0.23546236067E+03  0.25462853466E+03  0.00000000000E+00 0.  1.
         11    1    1    2    0    0  0.14981745897E+03  0.24231702297E+02  0.63559661523E+03  0.65346423291E+03  0.00000000000E+00 0. -1.
</event>
<event>
 7    1  0.2530765E-009  0.1094676E+03  0.7561462E-02  0.1261559E+00
         -2   -1    0    0    0  501 -0.00000000000E+00  0.00000000000E+00  0.26634370658E+02  0.26634370658E+02  0.00000000000E+00 0.  1.
          2   -1    0    0  501    0  0.00000000000E+00 -0.00000000000E+00 -0.59836851248E+03  0.59836851248E+03  0.00000000000E+00 0. -1.
         25    2    1    2    0    0  0.19300695398E+02 -0.32878880194E+02 -0.47221710302E+03  0.48999004783E+03  0.12509083495E+03 0.  0.
          5    1    3    3  502    0  0.65174991297E+02  0.87076878712E+01 -0.19223809382E+03  0.20321555166E+03  0.41800000000E+01 0. -1.
         -5    1    3    3    0  502 -0.45874295899E+02 -0.41586568065E+02 -0.27997900919E+03  0.28677449618E+03  0.41800000000E+01 0. -1.
        -11    1    1    2    0    0 -0.69465973950E+01  0.60412612953E+02 -0.61700018940E+02  0.86630429736E+02  0.00000000000E+00 0. -1.
         11    1    1    2    0    0 -0.12354098003E+02 -0.27533732759E+02 -0.37817019863E+02  0.48382405567E+02  0.00000000000E+00 0.  1.
</event>
<event>
 7    1  0.2530765E-009  0.9871135E+02  0.7561462E-02  0.1283029E+00
         -1   -1    0    0    0  501 -0.00000000000E+00  0.00000000000E+00  0.30524302938E+03  0.30524302938E+03  0.00000000000E+00 0.  1.
          1   -1    0    0  501    0  0.00000000000E+00 -0.00000000000E+00 -0.58231394503E+02  0.58231394503E+02  0.00000000000E+00 0. -1.
         25    2    1    2    0    0  0.58801706851E+02 -0.59584425550E+02  0.11734454096E+03  0.19085276554E+03  0.12508833809E+03 0.  0.
          5    1    3    3  502    0  0.44897591608E+02  0.70895428287E+00 -0.12636986843E+02  0.46834412400E+02  0.41800000000E+01 0. -1.
         -5    1    3    3    0  502  0.13904115242E+02 -0.60293379833E+02  0.12998152780E+03  0.14401835314E+03  0.41800000000E+01 0. -1.
        -11    1    1    2    0    0 -0.78085553635E+00  0.20127226931E+02 -0.50156688332E+01  0.20757454881E+02  0.00000000000E+00 0. -1.
         11    1    1    2    0    0 -0.58020851314E+02  0.39457198619E+02  0.13468276275E+03  0.15186420346E+03  0.00000000000E+00 0.  1.
</event>
<event>
 7    1  0.2530765E-009  0.9884298E+02  0.7561462E-02  0.1282748E+00
         -1   -1    0    0    0  501 -0.00000000000E+00  0.00000000000E+00  0.51740665372E+02  0.51740665372E+02  0.00000000000E+00 0.  1.
          1   -1    0    0  501    0  0.00000000000E+00 -0.00000000000E+00 -0.30420959514E+03  0.30420959514E+03  0.00000000000E+00 0. -1.
         25    2    1    2    0    0 -0.46852737596E+02  0.31656812920E+02 -0.10025788797E+03  0.16998956549E+03  0.12508986949E+03 0.  0.
          5    1    3    3  502    0 -0.43302188589E+02 -0.16989740554E+02 -0.11050933964E+03  0.11997298599E+03  0.41800000000E+01 0. -1.
         -5    1    3    3    0  502 -0.35505490068E+01  0.48646553474E+02  0.10251451664E+02  0.50016579495E+02  0.41800000000E+01 0. -1.
        -11    1    1    2    0    0 -0.72598739975E+01  0.23597827639E+02 -0.16296010809E+02  0.29582481438E+02  0.00000000000E+00 0. -1.
         11    1    1    2    0    0  0.54112611593E+02 -0.55254640559E+02 -0.13591503098E+03  0.15637821358E+03  0.00000000000E+00 0.  1.
</event>
<event>
 7    1  0.2530765E-009  0.1541920E+03  0.7561462E-02  0.1195415E+00
         -2   -1    0    0    0  501 -0.00000000000E+00  0.00000000000E+00  0.15494195240E+03  0.15494195240E+03  0.00000000000E+00 0. -1.
          2   -1    0    0  501    0  0.00000000000E+00 -0.00000000000E+00 -0.30759690123E+03  0.30759690123E+03  0.00000000000E+00 0.  1.
         25    2    1    2    0    0 -0.95570162202E+02  0.78510722420E+02 -0.22772515897E+03  0.28775746985E+03  0.12509206206E+03 0.  0.
          5    1    3    3  502    0  0.24447162427E+02  0.39083343278E+02 -0.87390112173E+02  0.98892242255E+02  0.41800000000E+01 0. -1.
         -5    1    3    3    0  502 -0.12001732463E+03  0.39427379142E+02 -0.14033504679E+03  0.18886522760E+03  0.41800000000E+01 0. -1.
        -11    1    1    2    0    0  0.63241809172E+02 -0.81582827126E+02  0.91899486999E+02  0.13820564323E+03  0.00000000000E+00 0. -1.
         11    1    1    2    0    0  0.32328353031E+02  0.30721047061E+01 -0.16829276866E+02  0.36575740551E+02  0.00000000000E+00 0.  1.
</event>
<event>
 7    1  0.2530765E-009  0.1093221E+03  0.7561462E-02  0.1261830E+00
          2   -1    0    0  501    0  0.00000000000E+00  0.00000000000E+00  0.77747800328E+03  0.77747800328E+03  0.00000000000E+00 0. -1.
         -2   -1    0    0    0  501 -0.00000000000E+00 -0.00000000000E+00 -0.24672384693E+02  0.24672384693E+02  0.00000000000E+00 0.  1.
         25    2    1    2    0    0  0.65432068261E+02  0.20021546836E+02  0.55554763001E+03  0.57355293757E+03  0.12509030774E+03 0.  0.
          5    1    3    3  502    0  0.57376731049E+02  0.59142216764E+02  0.20915873866E+03  0.22484381563E+03  0.41800000000E+01 0.  1.
         -5    1    3    3    0  502  0.80553372120E+01 -0.39120669928E+02  0.34638889135E+03  0.34870912194E+03  0.41800000000E+01 0.  1.
        -11    1    1    2    0    0 -0.79529704000E+02 -0.14517200038E+02  0.19755909935E+03  0.21346034913E+03  0.00000000000E+00 0. -1.
         11    1    1    2    0    0  0.14097635738E+02 -0.55043467980E+01 -0.30111077688E+00  0.15137101267E+02  0.00000000000E+00 0.  1.
</event>
<event>
 7    1  0.2530765E-009  0.1414734E+03  0.7561462E-02  0.1211360E+00
         -1   -1    0    0    0  501 -0.00000000000E+00  0.00000000000E+00  0.21578956492E+02  0.21578956492E+02  0.00000000000E+00 0.  1.
          1   -1    0    0  501    0  0.00000000000E+00 -0.00000000000E+00 -0.13562351202E+04  0.13562351202E+04  0.00000000000E+00 0. -1.
         25    2    1    2    0    0 -0.10183305584E+03 -0.67536413862E+02 -0.50190834514E+03  0.53149842676E+03  0.12508977683E+03 0.  0.
          5    1    3    3  502    0 -0.24487783039E+01 -0.22161271502E+02 -0.57025715253E+01  0.23390386739E+02  0.41800000000E+01 0.  1.
         -5    1    3    3    0  502 -0.99384277541E+02 -0.45375142360E+02 -0.49620577361E+03  0.50810804002E+03  0.41800000000E+01 0.  1.
        -11    1    1    2    0    0  0.44898928015E+02  0.80831134203E+02 -0.51346890074E+03  0.52172780070E+03  0.00000000000E+00 0.  1.
         11    1    1    2    0    0  0.56934127830E+02 -0.13294720341E+02 -0.31927891786E+03  0.32458784927E+03  0.00000000000E+00 0. -1.
</event>
<event>
 7    1  0.2530765E-009  0.1052157E+03  0.7561462E-02  0.1269695E+00
         -1   -1    0    0    0  501 -0.00000000000E+00  0.00000000000E+00  0.14725474167E+03  0.14725474167E+03  0.00000000000E+00 0.  1.
          1   -1    0    0  501    0  0.00000000000E+00 -0.00000000000E+00 -0.10669653743E+03  0.10669653743E+03  0.00000000000E+00 0. -1.
         25    2    1    2    0    0  0.33134017583E+02  0.44032891741E+02 -0.58006452751E+01  0.13681322587E+03  0.12508977820E+03 0.  0.
          5    1    3    3  502    0 -0.29715078765E+02 -0.18650669475E+02  0.24422628477E+02  0.42950792304E+02  0.41800000000E+01 0. -1.
         -5    1    3    3    0  502  0.62849096348E+02  0.62683561217E+02 -0.30223273752E+02  0.93862433566E+02  0.41800000000E+01 0. -1.
        -11    1    1    2    0    0 -0.48327817362E+02 -0.10547501080E+02  0.60139797489E+02  0.77869268341E+02  0.00000000000E+00 0.  1.
         11    1    1    2    0    0  0.15193799778E+02 -0.33485390661E+02 -0.13780947977E+02  0.39268784888E+02  0.00000000000E+00 0. -1.
</event>
<event>
 7    1  0.2530765E-009  0.1147075E+03  0.7561462E-02  0.1252093E+00
          2   -1    0    0  501    0  0.00000000000E+00  0.00000000000E+00  0.44903242870E+03  0.44903242870E+03  0.00000000000E+00 0. -1.
         -2   -1    0    0    0  501 -0.00000000000E+00 -0.00000000000E+00 -0.41135476063E+02  0.41135476063E+02  0.00000000000E+00 0.  1.
         25    2    1    2    0    0 -0.65473299721E+02  0.42250150586E+02  0.26772213175E+03  0.30560640998E+03  0.12509320441E+03 0.  0.
          5    1    3    3  502    0 -0.77462488827E+02 -0.12299368076E+02  0.21416240856E+03  0.22811120374E+03  0.41800000000E+01 0. -1.
         -5    1    3    3    0  502  0.11989189107E+02  0.54549518662E+02  0.53559723185E+02  0.77495206235E+02  0.41800000000E+01 0. -1.
        -11    1    1    2    0    0  0.26326806109E+02  0.11200594650E+02 -0.98478592348E+00  0.28627326870E+02  0.00000000000E+00 0.  1.
         11    1    1    2    0    0  0.39146493611E+02 -0.53450745236E+02  0.14115960681E+03  0.15593416791E+03  0.00000000000E+00 0. -1.
</event>
<event>
 7    1  0.2530765E-009  0.1078119E+03  0.7561462E-02  0.1264676E+00
          2   -1    0    0  501    0  0.00000000000E+00  0.00000000000E+00  0.46440703630E+02  0.46440703630E+02  0.00000000000E+00 0. -1.
         -2   -1    0    0    0  501 -0.00000000000E+00 -0.00000000000E+00 -0.37021245971E+03  0.37021245971E+03  0.00000000000E+00 0.  1.
         25    2    1    2    0    0 -0.27319474641E+02  0.10320933434E+02 -0.71968317109E+02  0.14724164516E+03  0.12509111895E+03 0.  0.
          5    1    3    3  502    0 -0.90338605541E+00 -0.56396511382E+02 -0.32920891917E+02  0.65441883584E+02  0.41800000000E+01 0. -1.
         -5    1    3    3    0  502 -0.26416088586E+02  0.66717444816E+02 -0.39047425192E+02  0.81799761571E+02  0.41800000000E+01 0. -1.
        -11    1    1    2    0    0 -0.31115504764E+01  0.33605610688E+02 -0.15698306695E+03  0.16056992908E+03  0.00000000000E+00 0.  1.
         11    1    1    2    0    0  0.30431025117E+02 -0.43926544122E+02 -0.94820372020E+02  0.10884158910E+03  0.00000000000E+00 0. -1.
</event>
<event>
 7    1  0.2530765E-009  0.1098026E+03  0.7561462E-02  0.1260936E+00
          1   -1    0    0  501    0  0.00000000000E+00  0.00000000000E+00  0.66605326482E+02  0.66605326482E+02  0.00000000000E+00 0. -1.
         -1   -1    0    0    0  501 -0.00000000000E+00 -0.00000000000E+00 -0.19950659385E+03  0.19950659385E+03  0.00000000000E+00 0.  1.
         25    2    1    2    0    0 -0.29715046825E+01  0.31560468533E+02 -0.10457684429E+03  0.16610119670E+03  0.12509355766E+03 0.  0.
          5    1    3    3  502    0 -0.62849077272E+02  0.15986723671E+02 -0.38727402929E+02  0.75649626472E+02  0.41800000000E+01 0. -1.
         -5    1    3    3    0  502  0.59877572590E+02  0.15573744862E+02 -0.65849441362E+02  0.90451570224E+02  0.41800000000E+01 0. -1.
        -11    1    1    2    0    0 -0.31083245180E+02 -0.46084021652E+02 -0.40381790574E+01  0.55733401768E+02  0.00000000000E+00 0. -1.
         11    1    1    2    0    0  0.34054749862E+02  0.14523553119E+02 -0.24286244024E+02  0.44277321872E+02  0.00000000000E+00 0.  1.
</event>
<event>
 7    1  0.4613255E-009  0.1169305E+03  0.7561462E-02  0.1248248E+00
         -2   -1    0    0    0  501 -0.00000000000E+00  0.00000000000E+00  0.16810654368E+03  0.16810654368E+03  0.00000000000E+00 0.  1.
          2   -1    0    0  501    0  0.00000000000E+00 -0.00000000000E+00 -0.11128323582E+03  0.11128323582E+03  0.00000000000E+00 0. -1.
         25    2    1    2    0    0  0.38968799025E+02  0.41290079154E+02 -0.30516965200E+02  0.14072136582E+03  0.12509108561E+03 0.  0.
          5    1    3    3  502    0 -0.35279624754E+02 -0.19629529765E+02 -0.15376462034E+02  0.43403667429E+02  0.41800000000E+01 0. -1.
         -5    1    3    3    0  502  0.74248423778E+02  0.60919608919E+02 -0.15140503165E+02  0.97317698393E+02  0.41800000000E+01 0. -1.
        -11    1    1    2    0    0  0.22828028163E+02 -0.18279501230E-01  0.51149918477E+02  0.56012796432E+02  0.00000000000E+00 0.  1.
         11    1    1    2    0    0 -0.61796827188E+02 -0.41271799653E+02  0.36190354589E+02  0.82655617246E+02  0.00000000000E+00 0. -1.
</event>
<event>
 7    1  0.2530765E-009  0.3312375E+03  0.7561462E-02  0.1070591E+00
          1   -1    0    0  501    0  0.00000000000E+00  0.00000000000E+00  0.43601338669E+03  0.43601338669E+03  0.00000000000E+00 0. -1.
         -1   -1    0    0    0  501 -0.00000000000E+00 -0.00000000000E+00 -0.27208946060E+03  0.27208946060E+03  0.00000000000E+00 0.  1.
         25    2    1    2    0    0  0.32568993594E+03  0.15306501873E+02  0.91654671432E+02  0.36104375994E+03  0.12507515510E+03 0.  0.
          5    1    3    3  502    0  0.30462933284E+03  0.34871188298E+02  0.50664535250E+02  0.31080443648E+03  0.41800000000E+01 0. -1.
         -5    1    3    3    0  502  0.21060603100E+02 -0.19564686425E+02  0.40990136182E+02  0.50239323464E+02  0.41800000000E+01 0. -1.
        -11    1    1    2    0    0 -0.54762053954E+02  0.55925714748E+01  0.50085100737E+02  0.74422286479E+02  0.00000000000E+00 0. -1.
         11    1    1    2    0    0 -0.27092788199E+03 -0.20899073348E+02  0.22184153922E+02  0.27263680088E+03  0.00000000000E+00 0.  1.
</event>
<event>
 7    1  0.2530765E-009  0.1449308E+03  0.7561462E-02  0.1206844E+00
         -1   -1    0    0    0  501 -0.00000000000E+00  0.00000000000E+00  0.61842254793E+02  0.61842254793E+02  0.00000000000E+00 0.  1.
          1   -1    0    0  501    0  0.00000000000E+00 -0.00000000000E+00 -0.52348049399E+03  0.52348049399E+03  0.00000000000E+00 0. -1.
         25    2    1    2    0    0 -0.37815625935E+02 -0.13190822513E+03 -0.17689343783E+03  0.25645355705E+03  0.12508931671E+03 0.  0.
          5    1    3    3  502    0 -0.41464704626E+02 -0.48672125971E+02 -0.36600578041E+01  0.64180729190E+02  0.41800000000E+01 0. -1.
         -5    1    3    3    0  502  0.36490786902E+01 -0.83236099155E+02 -0.17323338002E+03  0.19227282786E+03  0.41800000000E+01 0. -1.
        -11    1    1    2    0    0  0.50176204440E+01  0.84884153423E+02 -0.81832638910E+02  0.11801303660E+03  0.00000000000E+00 0. -1.
         11    1    1    2    0    0  0.32798005491E+02  0.47024071704E+02 -0.20291216247E+03  0.21085615514E+03  0.00000000000E+00 0.  1.
</event>
<event>
 7    1  0.2530765E-009  0.1870600E+03  0.7561462E-02  0.1161140E+00
          3   -1    0    0  501    0  0.00000000000E+00  0.00000000000E+00  0.17150738303E+03  0.17150738303E+03  0.00000000000E+00 0. -1.
         -3   -1    0    0    0  501 -0.00000000000E+00 -0.00000000000E+00 -0.40247470775E+03  0.40247470775E+03  0.00000000000E+00 0.  1.
         25    2    1    2    0    0  0.17827709788E+03  0.60682778461E+01  0.55463028268E+02  0.22481995841E+03  0.12509323950E+03 0.  0.
          5    1    3    3  502    0  0.32223497808E+02 -0.28547316051E+01  0.70483941192E+02  0.77665704590E+02  0.41800000000E+01 0. -1.
         -5    1    3    3    0  502  0.14605360007E+03  0.89230094512E+01 -0.15020912924E+02  0.14715425382E+03  0.41800000000E+01 0. -1.
        -11    1    1    2    0    0 -0.70204791683E+02 -0.41292300156E+02 -0.84009353767E+02  0.11700999251E+03  0.00000000000E+00 0.  1.
         11    1    1    2    0    0 -0.10807230620E+03  0.35224022310E+02 -0.20242099922E+03  0.23215213986E+03  0.00000000000E+00 0. -1.
</event>
<event>
 7    1  0.2530765E-009  0.9519679E+02  0.7561462E-02  0.1290733E+00
         -1   -1    0    0    0  501 -0.00000000000E+00  0.00000000000E+00  0.28467042966E+03  0.28467042966E+03  0.00000000000E+00 0.  1.
          1   -1    0    0  501    0  0.00000000000E+00 -0.00000000000E+00 -0.64266170758E+02  0.64266170758E+02  0.00000000000E+00 0. -1.
         25    2    1    2    0    0  0.43548921748E+02 -0.24942128309E+02  0.20247610088E+03  0.24323762821E+03  0.12509737806E+03 0.  0.
          5    1    3    3  502    0  0.26016868189E+01 -0.57347733063E+02  0.34102297666E+02  0.66902693278E+02  0.41800000000E+01 0. -1.
         -5    1    3    3    0  502  0.40947234929E+02  0.32405604754E+02  0.16837380322E+03  0.17633493493E+03  0.41800000000E+01 0. -1.
        -11    1    1    2    0    0 -0.19204259289E+02 -0.20998988742E+02 -0.25304654883E+02  0.38080003437E+02  0.00000000000E+00 0. -1.
         11    1    1    2    0    0 -0.24344662459E+02  0.45941117051E+02  0.43232812902E+02  0.67618968770E+02  0.00000000000E+00 0.  1.
</event>
<event>
 7    1  0.2530765E-009  0.7257825E+02  0.7561462E-02  0.1351539E+00
          2   -1    0    0  501    0  0.00000000000E+00  0.00000000000E+00  0.38624710880E+03  0.38624710880E+03  0.00000000000E+00 0. -1.
         -2   -1    0    0    0  501 -0.00000000000E+00 -0.00000000000E+00 -0.29623107505E+02  0.29623107505E+02  0.00000000000E+00 0.  1.
         25    2    1    2    0    0 -0.53816161759E+01 -0.48557362473E+01  0.16327469871E+03  0.20581568341E+03  0.12509567671E+03 0.  0.
          5    1    3    3  502    0 -0.82598739856E+01  0.28235357175E+02 -0.84227354649E+01  0.30884879566E+02  0.41800000000E+01 0.  1.
         -5    1    3    3    0  502  0.28782578097E+01 -0.33091093422E+02  0.17169743418E+03  0.17493080385E+03  0.41800000000E+01 0.  1.
        -11    1    1    2    0    0 -0.25319975725E+02 -0.27485990109E+02  0.82368658557E+02  0.90449857576E+02  0.00000000000E+00 0.  1.
         11    1    1    2    0    0  0.30701591901E+02  0.32341726356E+02  0.11098064402E+03  0.11960467531E+03  0.00000000000E+00 0. -1.
</event>
<event>
 7    1  0.2530765E-009  0.9513740E+02  0.7561462E-02  0.1290867E+00
         -2   -1    0    0    0  501 -0.00000000000E+00  0.00000000000E+00  0.12932796960E+03  0.12932796960E+03  0.00000000000E+00 0.  1.
          2   -1    0    0  501    0  0.00000000000E+00 -0.00000000000E+00 -0.97675737144E+02  0.97675737144E+02  0.00000000000E+00 0. -1.
         25    2    1    2    0    0  0.26369458245E+02  0.18979997661E+02  0.12638048116E+02  0.12987335386E+03  0.12510707072E+03 0.  0.
          5    1    3    3  502    0 -0.71862362431E+01  0.49135185131E+02 -0.37447650283E+02  0.62335441932E+02  0.41800000000E+01 0. -1.
         -5    1    3    3    0  502  0.33555694488E+02 -0.30155187470E+02  0.50085698399E+02  0.67537911931E+02  0.41800000000E+01 0. -1.
        -11    1    1    2    0    0  0.29609004176E+02 -0.25106915272E+02  0.53922491861E+01  0.39193451928E+02  0.00000000000E+00 0.  1.
         11    1    1    2    0    0 -0.55978462421E+02  0.61269176102E+01  0.13621935153E+02  0.57936900951E+02  0.00000000000E+00 0. -1.
</event>
<event>
 7    1  0.2530765E-009  0.1421550E+03  0.7561462E-02  0.1210458E+00
          2   -1    0    0  501    0  0.00000000000E+00  0.00000000000E+00  0.26266740734E+03  0.26266740734E+03  0.00000000000E+00 0. -1.
         -2   -1    0    0    0  501 -0.00000000000E+00 -0.00000000000E+00 -0.13599239569E+03  0.13599239569E+03  0.00000000000E+00 0.  1.
         25    2    1    2    0    0 -0.92503814997E+02 -0.60415591903E+02  0.18054212557E+03  0.24586700406E+03  0.12509246599E+03 0.  0.
          5    1    3    3  502    0 -0.11146447524E+03 -0.74103558504E+02  0.11627551734E+03  0.17735031705E+03  0.41800000000E+01 0.  1.
         -5    1    3    3    0  502  0.18960660243E+02  0.13687966602E+02  0.64266608229E+02  0.68516687017E+02  0.41800000000E+01 0.  1.
        -11    1    1    2    0    0  0.89770150359E+02  0.27895253357E+02 -0.69207012128E+02  0.11673232450E+03  0.00000000000E+00 0.  1.
         11    1    1    2    0    0  0.27336646384E+01  0.32520338546E+02  0.15339898210E+02  0.36060474465E+02  0.00000000000E+00 0. -1.
</event>
<event>
 7    1  0.2530765E-009  0.1876830E+03  0.7561462E-02  0.1160568E+00
          1   -1    0    0  501    0  0.00000000000E+00  0.00000000000E+00  0.64197622810E+03  0.64197622810E+03  0.00000000000E+00 0. -1.
         -1   -1    0    0    0  501 -0.00000000000E+00 -0.00000000000E+00 -0.56040686160E+02  0.56040686160E+02  0.00000000000E+00 0.  1.
         25    2    1    2    0    0 -0.14782636923E+03  0.47976853077E+02  0.30493386027E+03  0.36439997649E+03  0.12509304479E+03 0.  0.
          5    1    3    3  502    0 -0.17005698562E+03  0.48471274836E+02  0.26996103344E+03  0.32274645593E+03  0.41800000000E+01 0.  1.
         -5    1    3    3    0  502  0.22230616393E+02 -0.49442175916E+00  0.34972826834E+02  0.41653520557E+02  0.41800000000E+01 0.  1.
        -11    1    1    2    0    0  0.99125845400E+02 -0.71061952057E+02  0.16025857621E+03  0.20139152292E+03  0.00000000000E+00 0.  1.
         11    1    1    2    0    0  0.48700523825E+02  0.23085098980E+02  0.12074310546E+03  0.13222541485E+03  0.00000000000E+00 0. -1.
</event>
<event>
 7    1  0.2530765E-009  0.8446696E+02  0.7561462E-02  0.1316832E+00
          1   -1    0    0  501    0  0.00000000000E+00  0.00000000000E+00  0.23197699297E+03  0.23197699297E+03  0.00000000000E+00 0. -1.
         -1   -1    0    0    0  501 -0.00000000000E+00 -0.00000000000E+00 -0.54615900165E+02  0.54615900165E+02  0.00000000000E+00 0.  1.
         25    2    1    2    0    0 -0.63216832362E+01 -0.24833077934E+02  0.84683825684E+02  0.15321493987E+03  0.12508725766E+03 0.  0.
          5    1    3    3  502    0  0.32267215437E+02 -0.43660639853E+02  0.94414872375E+02  0.10899112436E+03  0.41800000000E+01 0.  1.
         -5    1    3    3    0  502 -0.38588898673E+02  0.18827561919E+02 -0.97310466909E+01  0.44223815511E+02  0.41800000000E+01 0.  1.
        -11    1    1    2    0    0  0.16333224742E+02  0.45519658973E+02  0.12469988547E+02  0.49943109613E+02  0.00000000000E+00 0.  1.
         11    1    1    2    0    0 -0.10011541505E+02 -0.20686581038E+02  0.80207278577E+02  0.83434843651E+02  0.00000000000E+00 0. -1.
</event>
<event>
 7    1  0.2530765E-009  0.8805547E+02  0.7561462E-02  0.1307630E+00
          2   -1    0    0  501    0  0.00000000000E+00  0.00000000000E+00  0.56512757446E+02  0.56512757446E+02  0.00000000000E+00 0. -1.
         -2   -1    0    0    0  501 -0.00000000000E+00 -0.00000000000E+00 -0.24636979824E+03  0.24636979824E+03  0.00000000000E+00 0.  1.
         25    2    1    2    0    0  0.29506413921E+02  0.37034129511E+02 -0.98559957393E+02  0.16614344188E+03  0.12508965931E+03 0.  0.
          5    1    3    3  502    0  0.11404197288E+02  0.62159606017E+02 -0.11466141906E+03  0.13099078501E+03  0.41800000000E+01 0.  1.
         -5    1    3    3    0  502  0.18102216634E+02 -0.25125476506E+02  0.16101461671E+02  0.35152656865E+02  0.41800000000E+01 0.  1.
        -11    1    1    2    0    0 -0.19297124474E+02 -0.56413915718E+02 -0.21168740956E+02  0.63269459404E+02  0.00000000000E+00 0. -1.
         11    1    1    2    0    0 -0.10209289448E+02  0.19379786207E+02 -0.70128342446E+02  0.73469654407E+02  0.00000000000E+00 0.  1.
</event>
<event>
 7    1  0.2530765E-009  0.1199092E+03  0.7561462E-02  0.1243247E+00
          3   -1    0    0  501    0  0.00000000000E+00  0.00000000000E+00  0.11620144784E+02  0.11620144784E+02  0.00000000000E+00 0. -1.
         -3   -1    0    0    0  501 -0.00000000000E+00 -0.00000000000E+00 -0.14669600270E+04  0.14669600270E+04  0.00000000000E+00 0.  1.
         25    2    1    2    0    0 -0.49297149784E+02 -0.18758730171E+02 -0.10899248668E+04  0.10983468395E+04  0.12508983028E+03 0.  0.
          5    1    3    3  502    0 -0.87171271754E+02  0.10235615893E+02 -0.70992878917E+03  0.71534603972E+03  0.41800000000E+01 0. -1.
         -5    1    3    3    0  502  0.37874121970E+02 -0.28994346064E+02 -0.37999607760E+03  0.38300079975E+03  0.41800000000E+01 0. -1.
        -11    1    1    2    0    0  0.61837690132E+02 -0.18669495496E+02 -0.19993786088E+03  0.21011329848E+03  0.00000000000E+00 0. -1.
         11    1    1    2    0    0 -0.12540540348E+02  0.37428225667E+02 -0.16547715454E+03  0.17012003381E+03  0.00000000000E+00 0.  1.
</event>
<event>
 7    1  0.2931313E-009  0.1374890E+03  0.7561462E-02  0.1216748E+00
         -2   -1    0    0    0  501 -0.00000000000E+00  0.00000000000E+00  0.95652642208E+02  0.95652642208E+02  0.00000000000E+00 0.  1.
          2   -1    0    0  501    0  0.00000000000E+00 -0.00000000000E+00 -0.26741416875E+03  0.26741416875E+03  0.00000000000E+00 0. -1.
         25    2    1    2    0    0 -0.10577231759E+03  0.49036602727E+02 -0.95592785196E+02  0.19590205521E+03  0.12508902062E+03 0.  0.
          5    1    3    3  502    0 -0.70543292200E+02 -0.21232220496E+02 -0.22813525223E+01  0.73823033200E+02  0.41800000000E+01 0.  1.
         -5    1    3    3    0  502 -0.35229025388E+02  0.70268823224E+02 -0.93311432674E+02  0.12207902201E+03  0.41800000000E+01 0.  1.
        -11    1    1    2    0    0  0.78381374647E+02 -0.16781606066E+02 -0.14538662857E+00  0.80157865060E+02  0.00000000000E+00 0.  1.
         11    1    1    2    0    0  0.27390942941E+02 -0.32254996661E+02 -0.76023354714E+02  0.87006890686E+02  0.00000000000E+00 0. -1.
</event>
<event>
 7    1  0.2530765E-009  0.1207401E+03  0.7561462E-02  0.1241881E+00
         -1   -1    0    0    0  501 -0.00000000000E+00  0.00000000000E+00  0.36456544678E+02  0.36456544678E+02  0.00000000000E+00 0.  1.
          1   -1    0    0  501    0  0.00000000000E+00 -0.00000000000E+00 -0.44274171413E+03  0.44274171413E+03  0.00000000000E+00 0. -1.
         25    2    1    2    0    0 -0.59285502536E+02 -0.13084382384E+02 -0.27642353886E+03  0.30942542221E+03  0.12509255455E+03 0.  0.
          5    1    3    3  502    0  0.35816392027E+02  0.38977460079E+00 -0.38199499746E+02  0.52532276202E+02  0.41800000000E+01 0. -1.
         -5    1    3    3    0  502 -0.95101894564E+02 -0.13474156984E+02 -0.23822403911E+03  0.25689314601E+03  0.41800000000E+01 0. -1.
        -11    1    1    2    0    0  0.33939942252E+02  0.52440055469E+02 -0.71002002048E+02  0.94568300146E+02  0.00000000000E+00 0. -1.
         11    1    1    2    0    0  0.25345560285E+02 -0.39355673085E+02 -0.58859628546E+02  0.75204536450E+02  0.00000000000E+00 0.  1.
</event>
<event>
 7    1  0.2530765E-009  0.1141643E+03  0.7561462E-02  0.1253047E+00
         -2   -1    0    0    0  501 -0.00000000000E+00  0.00000000000E+00  0.98790188122E+02  0.98790188122E+02  0.00000000000E+00 0.  1.
          2   -1    0    0  501    0  0.00000000000E+00 -0.00000000000E+00 -0.24496887796E+03  0.24496887796E+03  0.00000000000E+00 0. -1.
         25    2    1    2    0    0  0.59895200627E+02  0.55999135400E+02 -0.16097626182E+03  0.21972779014E+03  0.12507440453E+03 0.  0.
          5    1    3    3  502    0 -0.36356232385E+02  0.42611110768E+01 -0.62584397090E+02  0.72623769249E+02  0.41800000000E+01 0.  1.
         -5    1    3    3    0  502  0.96251433012E+02  0.51738024323E+02 -0.98391864734E+02  0.14710402090E+03  0.41800000000E+01 0.  1.
        -11    1    1    2    0    0 -0.33189918382E+02 -0.27824022666E+02  0.53756747923E+02  0.69032853532E+02  0.00000000000E+00 0.  1.
         11    1    1    2    0    0 -0.26705282246E+02 -0.28175112734E+02 -0.38959175937E+02  0.54998422405E+02  0.00000000000E+00 0. -1.
</event>
<event>
 7    1  0.2530765E-009  0.1013521E+03  0.7561462E-02  0.1277478E+00
         -2   -1    0    0    0  501 -0.00000000000E+00  0.00000000000E+00  0.34409223605E+02  0.34409223605E+02  0.00000000000E+00 0. -1.
          2   -1    0    0  501    0  0.00000000000E+00 -0.00000000000E+00 -0.55112969827E+03  0.55112969827E+03  0.00000000000E+00 0.  1.
         25    2    1    2    0    0 -0.15292076360E+02 -0.22728891254E+02 -0.45204337267E+03  0.46983088151E+03  0.12508955334E+03 0.  0.
          5    1    3    3  502    0  0.12304672814E+02 -0.59391500853E+02 -0.11915904515E+03  0.13377258982E+03  0.41800000000E+01 0.  1.
         -5    1    3    3    0  502 -0.27596749174E+02  0.36662609599E+02 -0.33288432752E+03  0.33605829169E+03  0.41800000000E+01 0.  1.
        -11    1    1    2    0    0  0.11816366688E+01 -0.35700653045E+02 -0.26860063466E+02  0.44692235370E+02  0.00000000000E+00 0. -1.
         11    1    1    2    0    0  0.14110439691E+02  0.58429544299E+02 -0.37817038529E+02  0.71015804990E+02  0.00000000000E+00 0.  1.
</event>
<event>
 7    1  0.2530765E-009  0.8554750E+02  0.7561462E-02  0.1314007E+00
         -1   -1    0    0    0  501 -0.00000000000E+00  0.00000000000E+00  0.34862941476E+03  0.34862941476E+03  0.00000000000E+00 0.  1.
          1   -1    0    0  501    0  0.00000000000E+00 -0.00000000000E+00 -0.43358909743E+02  0.43358909743E+02  0.00000000000E+00 0. -1.
         25    2    1    2    0    0 -0.54608833364E+02 -0.18333628676E+02  0.16033902119E+03  0.21136458637E+03  0.12509252589E+03 0.  0.
          5    1    3    3  502    0 -0.27834252509E+02  0.43938652944E+01  0.17183106671E+03  0.17417646095E+03  0.41800000000E+01 0. -1.
         -5    1    3    3    0  502 -0.26774580855E+02 -0.22727493970E+02 -0.11492045512E+02  0.37188125419E+02  0.41800000000E+01 0. -1.
        -11    1    1    2    0    0 -0.22088980693E+02 -0.11549360920E+02  0.41835692545E+02  0.48698418624E+02  0.00000000000E+00 0.  1.
         11    1    1    2    0    0  0.76697814057E+02  0.29882989596E+02  0.10309579128E+03  0.13192531951E+03  0.00000000000E+00 0. -1.
</event>
<event>
 7    1  0.3451592E-009  0.7961176E+02  0.7561462E-02  0.1330157E+00
         -2   -1    0    0    0  501 -0.00000000000E+00  0.00000000000E+00  0.10037756975E+02  0.10037756975E+02  0.00000000000E+00 0.  1.
          2   -1    0    0  501    0  0.00000000000E+00 -0.00000000000E+00 -0.22353046283E+04  0.22353046283E+04  0.00000000000E+00 0. -1.
         25    2    1    2    0    0 -0.17877168407E+01  0.44620881941E+02 -0.18988369910E+04  0.19034769530E+04  0.12509345784E+03 0.  0.
          5    1    3    3  502    0 -0.71104120450E+01 -0.71266134791E+01 -0.13204653609E+02  0.17122554017E+02  0.41800000000E+01 0.  1.
         -5    1    3    3    0  502  0.53226952043E+01  0.51747495420E+02 -0.18856323374E+04  0.18863543990E+04  0.41800000000E+01 0.  1.
        -11    1    1    2    0    0  0.40589871153E+02 -0.53723652138E+01 -0.86945192474E+02  0.96103415353E+02  0.00000000000E+00 0.  1.
         11    1    1    2    0    0 -0.38802154312E+02 -0.39248516727E+02 -0.23948468788E+03  0.24576201694E+03  0.00000000000E+00 0. -1.
</event>
<event>
 7    1  0.2530765E-009  0.1100041E+03  0.7561462E-02  0.1260562E+00
          2   -1    0    0  501    0  0.00000000000E+00  0.00000000000E+00  0.51108523261E+02  0.51108523261E+02  0.00000000000E+00 0. -1.
         -2   -1    0    0    0  501 -0.00000000000E+00 -0.00000000000E+00 -0.37885787834E+03  0.37885787834E+03  0.00000000000E+00 0.  1.
         25    2    1    2    0    0  0.63172815425E+02 -0.38945838281E+02 -0.25002354565E+03  0.28925134286E+03  0.12508790125E+03 0.  0.
          5    1    3    3  502    0  0.79961523632E+02 -0.24770794833E+02 -0.73984852601E+02  0.11179744341E+03  0.41800000000E+01 0.  1.
         -5    1    3    3    0  502 -0.16788708207E+02 -0.14175043448E+02 -0.17603869305E+03  0.17745389945E+03  0.41800000000E+01 0.  1.
        -11    1    1    2    0    0  0.13504429171E+02 -0.14917085477E+02 -0.28441824290E+02  0.34840011701E+02  0.00000000000E+00 0. -1.
         11    1    1    2    0    0 -0.76677244596E+02  0.53862923758E+02 -0.49283985137E+02  0.10587504704E+03  0.00000000000E+00 0.  1.
</event>
<event>
 7    1  0.2530765E-009  0.1820155E+03  0.7561462E-02  0.1165867E+00
          1   -1    0    0  501    0  0.00000000000E+00  0.00000000000E+00  0.14715931705E+04  0.14715931705E+04  0.00000000000E+00 0.  1.
         -1   -1    0    0    0  501 -0.00000000000E+00 -0.00000000000E+00 -0.29400797003E+02  0.29400797003E+02  0.00000000000E+00 0. -1.
         25    2    1    2    0    0 -0.12092292741E+03 -0.11545204975E+03  0.58128384931E+03  0.61764857617E+03  0.12508924819E+03 0.  0.
          5    1    3    3  502    0 -0.67360444964E+02 -0.64092234938E+02  0.49540816971E+03  0.50407536256E+03  0.41800000000E+01 0.  1.
         -5    1    3    3    0  502 -0.53562482444E+02 -0.51359814809E+02  0.85875679599E+02  0.11357321361E+03  0.41800000000E+01 0.  1.
        -11    1    1    2    0    0  0.12966264455E+03  0.64284489904E+02  0.58838315879E+03  0.60592048867E+03  0.00000000000E+00 0. -1.
         11    1    1    2    0    0 -0.87397171461E+01  0.51167559842E+02  0.27252536536E+03  0.27742490264E+03  0.00000000000E+00 0.  1.
</event>
<event>
 7    1  0.2530765E-009  0.1074836E+03  0.7561462E-02  0.1265302E+00
         -1   -1    0    0    0  501 -0.00000000000E+00  0.00000000000E+00  0.12966910719E+03  0.12966910719E+03  0.00000000000E+00 0.  1.
          1   -1    0    0  501    0  0.00000000000E+00 -0.00000000000E+00 -0.19635000510E+03  0.19635000510E+03  0.00000000000E+00 0. -1.
         25    2    1    2    0    0  0.55788696291E+01  0.60406493468E+02  0.65364499914E+02  0.15362683779E+03  0.12509444113E+03 0.  0.
          5    1    3    3  502    0  0.25067939206E+02 -0.17708232825E+02 -0.19478344413E+02  0.36590454860E+02  0.41800000000E+01 0.  1.
         -5    1    3    3    0  502 -0.19489069576E+02  0.78114726293E+02  0.84842844327E+02  0.11703638293E+03  0.41800000000E+01 0.  1.
        -11    1    1    2    0    0  0.55727804928E+01 -0.80340301927E+02 -0.71543190650E+02  0.10772208745E+03  0.00000000000E+00 0.  1.
         11    1    1    2    0    0 -0.11151650122E+02  0.19933808459E+02 -0.60502207177E+02  0.64670187053E+02  0.00000000000E+00 0. -1.
</event>
<event>
 7    1  0.2530765E-009  0.1436721E+03  0.7561462E-02  0.1208472E+00
         -2   -1    0    0    0  501 -0.00000000000E+00  0.00000000000E+00  0.25984893358E+02  0.25984893358E+02  0.00000000000E+00 0. -1.
          2   -1    0    0  501    0  0.00000000000E+00 -0.00000000000E+00 -0.89381909306E+03  0.89381909306E+03  0.00000000000E+00 0.  1.
         25    2    1    2    0    0 -0.31725294421E+02  0.99450704817E+02 -0.53682576408E+03  0.56100393292E+03  0.12508626936E+03 0.  0.
          5    1    3    3  502    0  0.32595252935E+02  0.71619684615E+02 -0.39462797945E+03  0.40241836973E+03  0.41800000000E+01 0. -1.
         -5    1    3    3    0  502 -0.64320547357E+02  0.27831020202E+02 -0.14219778463E+03  0.15858556319E+03  0.41800000000E+01 0. -1.
        -11    1    1    2    0    0 -0.30989682462E+02 -0.48398895242E+02 -0.13014121338E+03  0.14226576855E+03  0.00000000000E+00 0.  1.
         11    1    1    2    0    0  0.62714976884E+02 -0.51051809575E+02 -0.20086722224E+03  0.21653428495E+03  0.00000000000E+00 0. -1.
</event>
<event>
 7    1  0.2530765E-009  0.1141903E+03  0.7561462E-02  0.1253001E+00
          1   -1    0    0  501    0  0.00000000000E+00  0.00000000000E+00  0.16999939246E+03  0.16999939246E+03  0.00000000000E+00 0. -1.
         -1   -1    0    0    0  501 -0.00000000000E+00 -0.00000000000E+00 -0.81745204459E+02  0.81745204459E+02  0.00000000000E+00 0.  1.
         25    2    1    2    0    0  0.45928518819E+02  0.20509052441E+02  0.78338331849E+02  0.15593221148E+03  0.12509160750E+03 0.  0.
          5    1    3    3  502    0 -0.17436464825E+02  0.57966650491E+02  0.41526149284E+02  0.73525888972E+02  0.41800000000E+01 0. -1.
         -5    1    3    3    0  502  0.63364983644E+02 -0.37457598051E+02  0.36812182566E+02  0.82406322507E+02  0.41800000000E+01 0. -1.
        -11    1    1    2    0    0  0.22636193007E+02 -0.94357052868E+01  0.96620692221E+01  0.26358781265E+02  0.00000000000E+00 0. -1.
         11    1    1    2    0    0 -0.68564711826E+02 -0.11073347154E+02  0.25378692890E+00  0.69453604174E+02  0.00000000000E+00 0.  1.
</event>
<event>
 7    1  0.2530765E-009  0.1488731E+03  0.7561462E-02  0.1201865E+00
          1   -1    0    0  501    0  0.00000000000E+00  0.00000000000E+00  0.38238021097E+03  0.38238021097E+03  0.00000000000E+00 0. -1.
         -1   -1    0    0    0  501 -0.00000000000E+00 -0.00000000000E+00 -0.88513904375E+02  0.88513904375E+02  0.00000000000E+00 0.  1.
         25    2    1    2    0    0  0.13171596157E+03 -0.20100215094E+02  0.23388066939E+03  0.29681802149E+03  0.12509059591E+03 0.  0.
          5    1    3    3  502    0  0.74155781518E+02 -0.19254488133E+02  0.22587010686E+03  0.23854683570E+03  0.41800000000E+01 0.  1.
         -5    1    3    3    0  502  0.57560180050E+02 -0.84572696137E+00  0.80105625277E+01  0.58271185791E+02  0.41800000000E+01 0.  1.
        -11    1    1    2    0    0  0.13984488262E+02  0.10111721105E+02  0.43666621398E+01  0.17801139118E+02  0.00000000000E+00 0.  1.
         11    1    1    2    0    0 -0.14570044983E+03  0.99884939889E+01  0.55618975067E+02  0.15627495474E+03  0.00000000000E+00 0. -1.
</event>
<event>
 7    1  0.2530765E-009  0.1327576E+03  0.7561462E-02  0.1223420E+00
          2   -1    0    0  501    0  0.00000000000E+00  0.00000000000E+00  0.54136371163E+03  0.54136371163E+03  0.00000000000E+00 0. -1.
         -2   -1    0    0    0  501 -0.00000000000E+00 -0.00000000000E+00 -0.50241431245E+02  0.50241431245E+02  0.00000000000E+00 0.  1.
         25    2    1    2    0    0  0.32120172175E+02 -0.10763708212E+03  0.36185150624E+03  0.39900009930E+03  0.12508844778E+03 0.  0.
          5    1    3    3  502    0  0.27814585354E+02 -0.36678054937E+00  0.21613634682E+03  0.21795912118E+03  0.41800000000E+01 0. -1.
         -5    1    3    3    0  502  0.43055868213E+01 -0.10727030157E+03  0.14571515942E+03  0.18104097812E+03  0.41800000000E+01 0. -1.
        -11    1    1    2    0    0 -0.41922922581E+02  0.29652912879E+02  0.92574898184E+02  0.10586282848E+03  0.00000000000E+00 0. -1.
         11    1    1    2    0    0  0.98027504060E+01  0.77984169239E+02  0.36695875967E+02  0.86742215100E+02  0.00000000000E+00 0.  1.
</event>
<event>
 7    1  0.2530765E-009  0.1384245E+03  0.7561462E-02  0.1215465E+00
         -1   -1    0    0    0  501 -0.00000000000E+00  0.00000000000E+00  0.43873944621E+02  0.43873944621E+02  0.00000000000E+00 0.  1.
          1   -1    0    0  501    0  0.00000000000E+00 -0.00000000000E+00 -0.60023691740E+03  0.60023691740E+03  0.00000000000E+00 0. -1.
         25    2    1    2    0    0 -0.15742000116E+02 -0.10020927444E+03 -0.42646145306E+03  0.45585859260E+03  0.12509187124E+03 0.  0.
          5    1    3    3  502    0 -0.54501556751E+02 -0.95623490127E+02 -0.22385938901E+03  0.24948901780E+03  0.41800000000E+01 0.  1.
         -5    1    3    3    0  502  0.38759556636E+02 -0.45857843167E+01 -0.20260206405E+03  0.20636957481E+03  0.41800000000E+01 0.  1.
        -11    1    1    2    0    0 -0.16429006353E+02  0.93055776642E+02 -0.62700025617E+02  0.11340451062E+03  0.00000000000E+00 0.  1.
         11    1    1    2    0    0  0.32171006468E+02  0.71534978011E+01 -0.67201494101E+02  0.74847758800E+02  0.00000000000E+00 0. -1.
</event>
<event>
 7    1  0.2530765E-009  0.1159575E+03  0.7561462E-02  0.1249919E+00
         -3   -1    0    0    0  501 -0.00000000000E+00  0.00000000000E+00  0.62561108082E+02  0.62561108082E+02  0.00000000000E+00 0.  1.
          3   -1    0    0  501    0  0.00000000000E+00 -0.00000000000E+00 -0.35972118023E+03  0.35972118023E+03  0.00000000000E+00 0. -1.
         25    2    1    2    0    0  0.88843575521E+02  0.34973325597E+02 -0.10398322802E+03  0.18861508772E+03  0.12508727030E+03 0.  0.
          5    1    3    3  502    0  0.46030372797E+02  0.51318840455E+02 -0.12118814169E+03  0.13948640325E+03  0.41800000000E+01 0.  1.
         -5    1    3    3    0  502  0.42813202724E+02 -0.16345514858E+02  0.17204913667E+02  0.49128684470E+02  0.41800000000E+01 0.  1.
        -11    1    1    2    0    0 -0.52962322928E+02  0.15245401905E+02 -0.38775159296E+02  0.67386518738E+02  0.00000000000E+00 0.  1.
         11    1    1    2    0    0 -0.35881252593E+02 -0.50218727502E+02 -0.15440168483E+03  0.16628068185E+03  0.00000000000E+00 0. -1.
</event>
<event>
 7    1  0.2530765E-009  0.1062109E+03  0.7561462E-02  0.1267752E+00
         -1   -1    0    0    0  501 -0.00000000000E+00  0.00000000000E+00  0.39966374017E+02  0.39966374017E+02  0.00000000000E+00 0.  1.
          1   -1    0    0  501    0  0.00000000000E+00 -0.00000000000E+00 -0.39529095351E+03  0.39529095351E+03  0.00000000000E+00 0. -1.
         25    2    1    2    0    0  0.98591505774E+00 -0.26839425563E+02 -0.96652107450E+02  0.16034281157E+03  0.12508741166E+03 0.  0.
          5    1    3    3  502    0  0.42755690287E+01  0.48935195794E+02 -0.22506640138E+02  0.54193681626E+02  0.41800000000E+01 0.  1.
         -5    1    3    3    0  502 -0.32896539710E+01 -0.75774621356E+02 -0.74145467312E+02  0.10614912994E+03  0.41800000000E+01 0.  1.
        -11    1    1    2    0    0 -0.40596380746E+02  0.25055645366E+01 -0.16996445218E+03  0.17476343722E+03  0.00000000000E+00 0.  1.
         11    1    1    2    0    0  0.39610465688E+02  0.24333861026E+02 -0.88708019863E+02  0.10015107874E+03  0.00000000000E+00 0. -1.
</event>
<event>
 7    1  0.2530765E-009  0.1080999E+03  0.7561462E-02  0.1264130E+00
          4   -1    0    0  501    0  0.00000000000E+00  0.00000000000E+00  0.23972192057E+03  0.23972192057E+03  0.00000000000E+00 0. -1.
         -4   -1    0    0    0  501 -0.00000000000E+00 -0.00000000000E+00 -0.51071049196E+02  0.51071049196E+02  0.00000000000E+00 0.  1.
         25    2    1    2    0    0  0.32035016132E+01  0.28800939886E+02  0.10985893194E+03  0.16899466315E+03  0.12510177731E+03 0.  0.
          5    1    3    3  502    0  0.21412900745E+02 -0.44108222360E+02  0.64465247257E+02  0.81100481515E+02  0.41800000000E+01 0. -1.
         -5    1    3    3    0  502 -0.18209399132E+02  0.72909162246E+02  0.45393684687E+02  0.87894181637E+02  0.41800000000E+01 0. -1.
        -11    1    1    2    0    0  0.11858343952E+02 -0.57824009782E+02  0.59601590681E+02  0.83884361118E+02  0.00000000000E+00 0.  1.
         11    1    1    2    0    0 -0.15061845566E+02  0.29023069896E+02  0.19190348752E+02  0.37913945498E+02  0.00000000000E+00 0. -1.
</event>
<event>
 7    1  0.2530765E-009  0.1062697E+03  0.7561462E-02  0.1267638E+00
          3   -1    0    0  501    0  0.00000000000E+00  0.00000000000E+00  0.35196296521E+03  0.35196296521E+03  0.00000000000E+00 0. -1.
         -3   -1    0    0    0  501 -0.00000000000E+00 -0.00000000000E+00 -0.48560780263E+02  0.48560780263E+02  0.00000000000E+00 0.  1.
         25    2    1    2    0    0 -0.36894375744E+02 -0.44104538469E+02  0.23814148455E+03  0.27507632899E+03  0.12509682184E+03 0.  0.
          5    1    3    3  502    0 -0.22976592661E+02  0.33335368683E+02  0.15613183203E+03  0.16134990545E+03  0.41800000000E+01 0.  1.
         -5    1    3    3    0  502 -0.13917783082E+02 -0.77439907152E+02  0.82009652516E+02  0.11372642354E+03  0.41800000000E+01 0.  1.
        -11    1    1    2    0    0  0.35879765399E+02 -0.11311522548E+02  0.58581431616E+02  0.69621061738E+02  0.00000000000E+00 0.  1.
         11    1    1    2    0    0  0.10146103451E+01  0.55416061018E+02  0.66792687886E+01  0.55826354748E+02  0.00000000000E+00 0. -1.
</event>
<event>
 7    1  0.2530765E-009  0.4478763E+02  0.7561462E-02  0.1475672E+00
         -4   -1    0    0    0  501 -0.00000000000E+00  0.00000000000E+00  0.25599068036E+03  0.25599068036E+03  0.00000000000E+00 0.  1.
          4   -1    0    0  501    0  0.00000000000E+00 -0.00000000000E+00 -0.52578091536E+02  0.52578091536E+02  0.00000000000E+00 0. -1.
         25    2    1    2    0    0 -0.88228001618E+00 -0.11254551313E+02  0.16931642691E+03  0.21082277634E+03  0.12510294663E+03 0.  0.
          5    1    3    3  502    0 -0.18889509440E+02 -0.82149363512E+01  0.18512226149E+03  0.18631162831E+03  0.41800000000E+01 0. -1.
         -5    1    3    3    0  502  0.18007229424E+02 -0.30396149614E+01 -0.15805834578E+02  0.24511148021E+02  0.41800000000E+01 0. -1.
        -11    1    1    2    0    0 -0.11194841670E+02 -0.16279037248E+02  0.56756599560E+02  0.60096947737E+02  0.00000000000E+00 0.  1.
         11    1    1    2    0    0  0.12077121687E+02  0.27533588560E+02 -0.22660437651E+02  0.37649047820E+02  0.00000000000E+00 0. -1.
</event>
<event>
 7    1  0.2530765E-009  0.8127362E+02  0.7561462E-02  0.1325475E+00
         -1   -1    0    0    0  501 -0.00000000000E+00  0.00000000000E+00  0.72937100346E+02  0.72937100346E+02  0.00000000000E+00 0.  1.
          1   -1    0    0  501    0  0.00000000000E+00 -0.00000000000E+00 -0.16092610606E+03  0.16092610606E+03  0.00000000000E+00 0. -1.
         25    2    1    2    0    0  0.47698428083E+01  0.47485244948E+01 -0.65118541744E+02  0.14118474481E+03  0.12508959910E+03 0.  0.
          5    1    3    3  502    0  0.52368004223E+02  0.28324627301E+02 -0.35885097183E+01  0.59791656442E+02  0.41800000000E+01 0.  1.
         -5    1    3    3    0  502 -0.47598161415E+02 -0.23576102806E+02 -0.61530032026E+02  0.81393088372E+02  0.41800000000E+01 0.  1.
        -11    1    1    2    0    0  0.15519423890E+02  0.14772952134E+02  0.27566889958E+02  0.34914553621E+02  0.00000000000E+00 0.  1.
         11    1    1    2    0    0 -0.20289266698E+02 -0.19521476628E+02 -0.50437353927E+02  0.57763907970E+02  0.00000000000E+00 0. -1.
</event>
<event>
 7    1  0.2530765E-009  0.1107482E+03  0.7561462E-02  0.1259191E+00
          2   -1    0    0  501    0  0.00000000000E+00  0.00000000000E+00  0.62264506692E+03  0.62264506692E+03  0.00000000000E+00 0.  1.
         -2   -1    0    0    0  501 -0.00000000000E+00 -0.00000000000E+00 -0.21745250914E+02  0.21745250914E+02  0.00000000000E+00 0. -1.
         25    2    1    2    0    0 -0.22946315034E+02 -0.36868441604E+02  0.36017766957E+03  0.38374537195E+03  0.12508693566E+03 0.  0.
          5    1    3    3  502    0 -0.10096284399E+01  0.42003743191E+02  0.19284216666E+03  0.19741050488E+03  0.41800000000E+01 0. -1.
         -5    1    3    3    0  502 -0.21936686594E+02 -0.78872184796E+02  0.16733550291E+03  0.18633486707E+03  0.41800000000E+01 0. -1.
        -11    1    1    2    0    0 -0.28210371303E+02  0.36514507618E+02  0.14421422426E+03  0.15141623689E+03  0.00000000000E+00 0.  1.
         11    1    1    2    0    0  0.51156686338E+02  0.35393398623E+00  0.96507922167E+02  0.10922870899E+03  0.00000000000E+00 0. -1.
</event>
<event>
 7    1  0.2530765E-009  0.8395711E+02  0.7561462E-02  0.1318183E+00
          2   -1    0    0  501    0  0.00000000000E+00  0.00000000000E+00  0.23773542566E+03  0.23773542566E+03  0.00000000000E+00 0. -1.
         -2   -1    0    0    0  501 -0.00000000000E+00 -0.00000000000E+00 -0.53935873476E+02  0.53935873476E+02  0.00000000000E+00 0.  1.
         25    2    1    2    0    0  0.13409108308E+01  0.55533079047E+01  0.65502555960E+02  0.14131756795E+03  0.12508969943E+03 0.  0.
          5    1    3    3  502    0  0.29891435926E+01  0.46251367070E+02 -0.16732598010E+02  0.49452767075E+02  0.41800000000E+01 0.  1.
         -5    1    3    3    0  502 -0.16482327617E+01 -0.40698059165E+02  0.82235153970E+02  0.91864800873E+02  0.41800000000E+01 0.  1.
        -11    1    1    2    0    0  0.22832186421E+02 -0.35338526565E+02  0.23731974998E+02  0.48304521878E+02  0.00000000000E+00 0. -1.
         11    1    1    2    0    0 -0.24173097252E+02  0.29785218661E+02  0.94565021229E+02  0.10204920931E+03  0.00000000000E+00 0.  1.
</event>
<event>
 7    1  0.2530765E-009  0.6936020E+02  0.7561462E-02  0.1362282E+00
          3   -1    0    0  501    0  0.00000000000E+00  0.00000000000E+00  0.37406774895E+03  0.37406774895E+03  0.00000000000E+00 0. -1.
         -3   -1    0    0    0  501 -0.00000000000E+00 -0.00000000000E+00 -0.39185453594E+02  0.39185453594E+02  0.00000000000E+00 0.  1.
         25    2    1    2    0    0  0.50194829913E+02 -0.11257730428E+02  0.19012365031E+03  0.23332784522E+03  0.12509445833E+03 0.  0.
          5    1    3    3  502    0  0.35686577767E+02 -0.30160198553E+02  0.20128916701E+03  0.20668326145E+03  0.41800000000E+01 0. -1.
         -5    1    3    3    0  502  0.14508252146E+02  0.18902468125E+02 -0.11165516691E+02  0.26644583775E+02  0.41800000000E+01 0. -1.
        -11    1    1    2    0    0 -0.44116570891E+02 -0.10229280706E+02  0.14185709086E+02  0.47456762987E+02  0.00000000000E+00 0.  1.
         11    1    1    2    0    0 -0.60782590225E+01  0.21487011134E+02  0.13057293596E+03  0.13246859433E+03  0.00000000000E+00 0. -1.
</event>
<event>
 7    1  0.2530765E-009  0.1065304E+03  0.7561462E-02  0.1267133E+00
          2   -1    0    0  501    0  0.00000000000E+00  0.00000000000E+00  0.79166732095E+03  0.79166732095E+03  0.00000000000E+00 0. -1.
         -2   -1    0    0    0  501 -0.00000000000E+00 -0.00000000000E+00 -0.17524294949E+02  0.17524294949E+02  0.00000000000E+00 0.  1.
         25    2    1    2    0    0  0.30510139064E+02 -0.17236522818E+01  0.54885937742E+03  0.56376283745E+03  0.12509229052E+03 0.  0.
          5    1    3    3  502    0  0.24346258791E+02  0.54175439950E+02  0.40311863146E+03  0.40749211286E+03  0.41800000000E+01 0. -1.
         -5    1    3    3    0  502  0.61638802734E+01 -0.55899092232E+02  0.14574074596E+03  0.15627072459E+03  0.41800000000E+01 0. -1.
        -11    1    1    2    0    0  0.15209086975E+02 -0.35208817155E+02  0.80452501636E+02  0.89126775728E+02  0.00000000000E+00 0. -1.
         11    1    1    2    0    0 -0.45719226039E+02  0.36932469437E+02  0.14483114695E+03  0.15630200272E+03  0.00000000000E+00 0.  1.
</event>
<event>
 7    1  0.2530765E-009  0.1078718E+03  0.7561462E-02  0.1264563E+00
          1   -1    0    0  501    0  0.00000000000E+00  0.00000000000E+00  0.10700090633E+04  0.10700090633E+04  0.00000000000E+00 0. -1.
         -1   -1    0    0    0  501 -0.00000000000E+00 -0.00000000000E+00 -0.15432470299E+02  0.15432470299E+02  0.00000000000E+00 0.  1.
         25    2    1    2    0    0  0.62800755769E+02  0.36700755549E+02  0.71409274685E+03  0.72860608046E+03  0.12508992364E+03 0.  0.
          5    1    3    3  502    0  0.73183873229E+02  0.53973403495E+02  0.28860389920E+03  0.30261971288E+03  0.41800000000E+01 0.  1.
         -5    1    3    3    0  502 -0.10383117460E+02 -0.17272647945E+02  0.42548884765E+03  0.42598636759E+03  0.41800000000E+01 0.  1.
        -11    1    1    2    0    0 -0.33011157575E+01  0.20994320371E+02  0.42168174198E+02  0.47220903933E+02  0.00000000000E+00 0.  1.
         11    1    1    2    0    0 -0.59499640011E+02 -0.57695075920E+02  0.29831567190E+03  0.30961454916E+03  0.00000000000E+00 0. -1.
</event>
<event>
 7    1  0.2530765E-009  0.1019141E+03  0.7561462E-02  0.1276322E+00
          1   -1    0    0  501    0  0.00000000000E+00  0.00000000000E+00  0.98858838298E+02  0.98858838298E+02  0.00000000000E+00 0. -1.
         -1   -1    0    0    0  501 -0.00000000000E+00 -0.00000000000E+00 -0.21914499805E+03  0.21914499805E+03  0.00000000000E+00 0.  1.
         25    2    1    2    0    0 -0.45413618407E+02 -0.24521207112E+02  0.22878472125E+02  0.13723203621E+03  0.12508205682E+03 0.  0.
          5    1    3    3  502    0 -0.17904425651E+02 -0.52523099887E+02 -0.36048879608E+02  0.66304137131E+02  0.41800000000E+01 0. -1.
         -5    1    3    3    0  502 -0.27509192756E+02  0.28001892775E+02  0.58927351732E+02  0.70927899075E+02  0.41800000000E+01 0. -1.
        -11    1    1    2    0    0  0.39403842445E+02 -0.32677517514E+02 -0.83178617260E+02  0.97668650649E+02  0.00000000000E+00 0.  1.
         11    1    1    2    0    0  0.60097759612E+01  0.57198724626E+02 -0.59986014613E+02  0.83103149490E+02  0.00000000000E+00 0. -1.
</event>
<event>
 7    1  0.2530765E-009  0.8488216E+02  0.7561462E-02  0.1315741E+00
          2   -1    0    0  501    0  0.00000000000E+00  0.00000000000E+00  0.56720478238E+02  0.56720478238E+02  0.00000000000E+00 0. -1.
         -2   -1    0    0    0  501 -0.00000000000E+00 -0.00000000000E+00 -0.27920306523E+03  0.27920306523E+03  0.00000000000E+00 0.  1.
         25    2    1    2    0    0 -0.18738552303E+02  0.67328299560E+02 -0.12674609319E+03  0.19130257870E+03  0.12509145141E+03 0.  0.
          5    1    3    3  502    0 -0.14091467530E+02  0.42992898409E+00 -0.12314136825E+03  0.12401622181E+03  0.41800000000E+01 0.  1.
         -5    1    3    3    0  502 -0.46470847733E+01  0.66898370576E+02 -0.36047249365E+01  0.67286356897E+02  0.41800000000E+01 0.  1.
        -11    1    1    2    0    0  0.70208199447E+01  0.85664629145E+01 -0.58014624624E+02  0.59062448898E+02  0.00000000000E+00 0.  1.
         11    1    1    2    0    0  0.11717732358E+02 -0.75894762475E+02 -0.37721869177E+02  0.85558515865E+02  0.00000000000E+00 0. -1.
</event>
<event>
 7    1  0.2530765E-009  0.1984784E+03  0.7561462E-02  0.1151029E+00
          1   -1    0    0  501    0  0.00000000000E+00  0.00000000000E+00  0.19899886501E+04  0.19899886501E+04  0.00000000000E+00 0. -1.
         -1   -1    0    0    0  501 -0.00000000000E+00 -0.00000000000E+00 -0.25283957976E+02  0.25283957976E+02  0.00000000000E+00 0.  1.
         25    2    1    2    0    0  0.74606073956E+02 -0.18068553887E+03  0.97540047875E+03  0.10026297625E+04  0.12508803521E+03 0.  0.
          5    1    3    3  502    0  0.41247297247E+02 -0.44190425696E+02  0.10735099175E+03  0.12327141227E+03  0.41800000000E+01 0. -1.
         -5    1    3    3    0  502  0.33358776709E+02 -0.13649511317E+03  0.86804948700E+03  0.87935835027E+03  0.41800000000E+01 0. -1.
        -11    1    1    2    0    0 -0.19565129818E+02  0.35750574572E+02  0.75657232115E+02  0.85935526171E+02  0.00000000000E+00 0.  1.
         11    1    1    2    0    0 -0.55040944138E+02  0.14493496429E+03  0.91364698128E+03  0.92670731939E+03  0.00000000000E+00 0. -1.
</event>
<event>
 7    1  0.2530765E-009  0.9650008E+02  0.7561462E-02  0.1287833E+00
          4   -1    0    0  501    0  0.00000000000E+00  0.00000000000E+00  0.29415394412E+03  0.29415394412E+03  0.00000000000E+00 0.  1.
         -4   -1    0    0    0  501 -0.00000000000E+00 -0.00000000000E+00 -0.54374210286E+02  0.54374210286E+02  0.00000000000E+00 0. -1.
         25    2    1    2    0    0 -0.27582554777E+02  0.51094428938E+02  0.17028438277E+03  0.21912514944E+03  0.12509045569E+03 0.  0.
          5    1    3    3  502    0  0.56196276502E+01  0.79941659671E+02  0.59632525930E+02  0.99978796325E+02  0.41800000000E+01 0. -1.
         -5    1    3    3    0  502 -0.33202182427E+02 -0.28847230733E+02  0.11065185684E+03  0.11914635312E+03  0.41800000000E+01 0. -1.
        -11    1    1    2    0    0  0.33661282960E+02 -0.25406162620E+02  0.87716051854E+02  0.97327595380E+02  0.00000000000E+00 0.  1.
         11    1    1    2    0    0 -0.60787281835E+01 -0.25688266318E+02 -0.18220700789E+02  0.32075409585E+02  0.00000000000E+00 0. -1.
</event>
<event>
 7    1  0.2530765E-009  0.1535644E+03  0.7561462E-02  0.1196160E+00
          2   -1    0    0  501    0  0.00000000000E+00  0.00000000000E+00  0.10027567193E+03  0.10027567193E+03  0.00000000000E+00 0. -1.
         -2   -1    0    0    0  501 -0.00000000000E+00 -0.00000000000E+00 -0.31158660983E+03  0.31158660983E+03  0.00000000000E+00 0.  1.
         25    2    1    2    0    0 -0.13084822793E+03 -0.50935842937E+02 -0.12207345938E+03  0.22419837271E+03  0.12508901628E+03 0.  0.
          5    1    3    3  502    0 -0.39632467773E+02 -0.53690024729E+02 -0.11442097172E+03  0.13252540295E+03  0.41800000000E+01 0.  1.
         -5    1    3    3    0  502 -0.91215760158E+02  0.27541817923E+01 -0.76524876599E+01  0.91672969768E+02  0.41800000000E+01 0. -1.
        -11    1    1    2    0    0  0.12300552785E+03  0.30080233816E+02 -0.38666573321E+02  0.13240197974E+03  0.00000000000E+00 0. -1.
         11    1    1    2    0    0  0.78427000828E+01  0.20855609121E+02 -0.50570905210E+02  0.55261929302E+02  0.00000000000E+00 0.  1.
</event>
<event>
 7    1  0.2530765E-009  0.8027763E+02  0.7561462E-02  0.1328265E+00
          1   -1    0    0  501    0  0.00000000000E+00  0.00000000000E+00  0.42014006402E+03  0.42014006402E+03  0.00000000000E+00 0. -1.
         -1   -1    0    0    0  501 -0.00000000000E+00 -0.00000000000E+00 -0.31895323138E+02  0.31895323138E+02  0.00000000000E+00 0.  1.
         25    2    1    2    0    0  0.16071446260E+02 -0.22271283572E+02  0.26108057689E+03  0.29079950115E+03  0.12508789223E+03 0.  0.
          5    1    3    3  502    0 -0.26100776034E+02 -0.30030505792E+02  0.17894529331E+02  0.43826571480E+02  0.41800000000E+01 0.  1.
         -5    1    3    3    0  502  0.42172222295E+02  0.77592222207E+01  0.24318604756E+03  0.24697292967E+03  0.41800000000E+01 0.  1.
        -11    1    1    2    0    0 -0.26938374742E+02  0.44900634556E+02  0.28883084663E+02  0.59799461510E+02  0.00000000000E+00 0.  1.
         11    1    1    2    0    0  0.10866928482E+02 -0.22629350985E+02  0.98281079323E+02  0.10143642449E+03  0.00000000000E+00 0. -1.
</event>
<event>
 7    1  0.2530765E-009  0.8776793E+02  0.7561462E-02  0.1308349E+00
          3   -1    0    0  501    0  0.00000000000E+00  0.00000000000E+00  0.31235029955E+03  0.31235029955E+03  0.00000000000E+00 0. -1.
         -3   -1    0    0    0  501 -0.00000000000E+00 -0.00000000000E+00 -0.43446166455E+02  0.43446166455E+02  0.00000000000E+00 0.  1.
         25    2    1    2    0    0  0.66684025882E+02  0.13089183905E+02  0.22695578247E+03  0.26790563904E+03  0.12508564340E+03 0.  0.
          5    1    3    3  502    0  0.32222584136E+02  0.42504075538E+02  0.21401453715E+03  0.22060051196E+03  0.41800000000E+01 0. -1.
         -5    1    3    3    0  502  0.34461441746E+02 -0.29414891633E+02  0.12941245322E+02  0.47305127074E+02  0.41800000000E+01 0. -1.
        -11    1    1    2    0    0 -0.42880517896E+02  0.92758570801E+01  0.18150180359E+02  0.47478515001E+02  0.00000000000E+00 0. -1.
         11    1    1    2    0    0 -0.23803507986E+02 -0.22365040985E+02  0.23798170256E+02  0.40412311964E+02  0.00000000000E+00 0.  1.
</event>
<event>
 7    1  0.2530765E-009  0.1354374E+03  0.7561462E-02  0.1219603E+00
          2   -1    0    0  501    0  0.00000000000E+00  0.00000000000E+00  0.45124682059E+03  0.45124682059E+03  0.00000000000E+00 0. -1.
         -2   -1    0    0    0  501 -0.00000000000E+00 -0.00000000000E+00 -0.41801514543E+02  0.41801514543E+02  0.00000000000E+00 0.  1.
         25    2    1    2    0    0 -0.66626101441E+01  0.81943190053E+02  0.20369322309E+03  0.25277953713E+03  0.12508992161E+03 0.  0.
          5    1    3    3  502    0 -0.34495954860E+02  0.10645619082E+03  0.16032454899E+03  0.19556156288E+03  0.41800000000E+01 0. -1.
         -5    1    3    3    0  502  0.27833344716E+02 -0.24513000763E+02  0.43368674096E+02  0.57217974251E+02  0.41800000000E+01 0. -1.
        -11    1    1    2    0    0  0.46781468591E+02 -0.59191628176E+02  0.15005839782E+03  0.16795736783E+03  0.00000000000E+00 0. -1.
         11    1    1    2    0    0 -0.40118858447E+02 -0.22751561877E+02  0.55693685132E+02  0.72311430179E+02  0.00000000000E+00 0.  1.
</event>
<event>
 7    1  0.2530765E-009  0.1010377E+03  0.7561462E-02  0.1278129E+00
         -2   -1    0    0    0  501 -0.00000000000E+00  0.00000000000E+00  0.16220968655E+02  0.16220968655E+02  0.00000000000E+00 0. -1.
          2   -1    0    0  501    0  0.00000000000E+00 -0.00000000000E+00 -0.82863067969E+03  0.82863067969E+03  0.00000000000E+00 0.  1.
         25    2    1    2    0    0 -0.65472477346E+01 -0.15328451562E+02 -0.60530814305E+03  0.61832277783E+03  0.12508909491E+03 0.  0.
          5    1    3    3  502    0 -0.65085154229E+01 -0.63033670829E+02 -0.19156077035E+03  0.20181329384E+03  0.41800000000E+01 0.  1.
         -5    1    3    3    0  502 -0.38732311685E-01  0.47705219267E+02 -0.41374737269E+03  0.41650948399E+03  0.41800000000E+01 0.  1.
        -11    1    1    2    0    0  0.65848274716E+01 -0.37388532154E+02 -0.10438437025E+03  0.11107366493E+03  0.00000000000E+00 0.  1.
         11    1    1    2    0    0 -0.37579736983E-01  0.52716983716E+02 -0.10271719773E+03  0.11545520558E+03  0.00000000000E+00 0. -1.
</event>
<event>
 7    1  0.2530765E-009  0.4080737E+03  0.7561462E-02  0.1041019E+00
         -2   -1    0    0    0  501 -0.00000000000E+00  0.00000000000E+00  0.26008041896E+03  0.26008041896E+03  0.00000000000E+00 0.  1.
          2   -1    0    0  501    0  0.00000000000E+00 -0.00000000000E+00 -0.67399881132E+03  0.67399881132E+03  0.00000000000E+00 0. -1.
         25    2    1    2    0    0  0.39821808352E+03  0.49061048524E+01 -0.28618486516E+03  0.50611353798E+03  0.12508966534E+03 0.  0.
          5    1    3    3  502    0  0.27642951662E+03 -0.49174658147E+02 -0.16349482456E+03  0.32492992279E+03  0.41800000000E+01 0. -1.
         -5    1    3    3    0  502  0.12178856690E+03  0.54080762999E+02 -0.12269004060E+03  0.18118361519E+03  0.41800000000E+01 0. -1.
        -11    1    1    2    0    0 -0.25925522206E+03  0.23051102566E+02 -0.45906150114E+02  0.26429528583E+03  0.00000000000E+00 0. -1.
         11    1    1    2    0    0 -0.13896286146E+03 -0.27957207418E+02 -0.81827377095E+02  0.16367040647E+03  0.00000000000E+00 0.  1.
</event>
<event>
 7    1  0.2530765E-009  0.9169459E+02  0.7561462E-02  0.1298799E+00
         -3   -1    0    0    0  501 -0.00000000000E+00  0.00000000000E+00  0.21894626310E+03  0.21894626310E+03  0.00000000000E+00 0.  1.
          3   -1    0    0  501    0  0.00000000000E+00 -0.00000000000E+00 -0.56695783217E+02  0.56695783217E+02  0.00000000000E+00 0. -1.
         25    2    1    2    0    0  0.20089284792E+02  0.21180599475E+02  0.83642038597E+02  0.15328279113E+03  0.12508967295E+03 0.  0.
          5    1    3    3  502    0  0.53446464573E+02 -0.10807574152E+02  0.91127472332E+02  0.10627801677E+03  0.41800000000E+01 0. -1.
         -5    1    3    3    0  502 -0.33357179781E+02  0.31988173627E+02 -0.74854337355E+01  0.47004774365E+02  0.41800000000E+01 0. -1.
        -11    1    1    2    0    0  0.73713696795E+01  0.26372614368E+02  0.57207788975E+02  0.63423836205E+02  0.00000000000E+00 0.  1.
         11    1    1    2    0    0 -0.27460654472E+02 -0.47553213844E+02  0.21400652310E+02  0.58935418978E+02  0.00000000000E+00 0. -1.
</event>
<event>
 7    1  0.2530765E-009  0.9268018E+02  0.7561462E-02  0.1296488E+00
         -2   -1    0    0    0  501 -0.00000000000E+00  0.00000000000E+00  0.55283581847E+02  0.55283581847E+02  0.00000000000E+00 0.  1.
          2   -1    0    0  501    0  0.00000000000E+00 -0.00000000000E+00 -0.22347980273E+03  0.22347980273E+03  0.00000000000E+00 0. -1.
         25    2    1    2    0    0 -0.24128277321E+02 -0.16193100213E+02 -0.10293854367E+03  0.16458769834E+03  0.12509347069E+03 0.  0.
          5    1    3    3  502    0 -0.46004220970E+02  0.44102871542E+02 -0.56735325422E+02  0.85427285899E+02  0.41800000000E+01 0.  1.
         -5    1    3    3    0  502  0.21875943649E+02 -0.60295971755E+02 -0.46203218251E+02  0.79160412437E+02  0.41800000000E+01 0.  1.
        -11    1    1    2    0    0 -0.15373735810E+02  0.46988153520E+01 -0.70855492309E+02  0.72656255125E+02  0.00000000000E+00 0. -1.
         11    1    1    2    0    0  0.39502013131E+02  0.11494284861E+02  0.55978151029E+01  0.41519431111E+02  0.00000000000E+00 0.  1.
</event>
<event>
 7    1  0.2530765E-009  0.1075482E+03  0.7561462E-02  0.1265179E+00
          2   -1    0    0  501    0  0.00000000000E+00  0.00000000000E+00  0.51710018909E+03  0.51710018909E+03  0.00000000000E+00 0.  1.
         -2   -1    0    0    0  501 -0.00000000000E+00 -0.00000000000E+00 -0.28023125389E+02  0.28023125389E+02  0.00000000000E+00 0. -1.
         25    2    1    2    0    0 -0.30970077558E+02 -0.52913551153E+00  0.36609305363E+03  0.38811245580E+03  0.12509088195E+03 0.  0.
          5    1    3    3  502    0 -0.13430272026E+02  0.56703416676E+02  0.10446715951E+03  0.11969339784E+03  0.41800000000E+01 0. -1.
         -5    1    3    3    0  502 -0.17539805533E+02 -0.57232552188E+02  0.26162589411E+03  0.26841905797E+03  0.41800000000E+01 0. -1.
        -11    1    1    2    0    0 -0.27570912734E+02  0.20993822483E+02  0.33991764459E+02  0.48542104018E+02  0.00000000000E+00 0.  1.
         11    1    1    2    0    0  0.58540990292E+02 -0.20464686971E+02  0.88992245619E+02  0.10846875466E+03  0.00000000000E+00 0. -1.
</event>
<event>
 7    1  0.2530765E-009  0.9357814E+02  0.7561462E-02  0.1294411E+00
          3   -1    0    0  501    0  0.00000000000E+00  0.00000000000E+00  0.17784979908E+03  0.17784979908E+03  0.00000000000E+00 0. -1.
         -3   -1    0    0    0  501 -0.00000000000E+00 -0.00000000000E+00 -0.82058491636E+02  0.82058491636E+02  0.00000000000E+00 0.  1.
         25    2    1    2    0    0 -0.16695810719E+02 -0.46168179879E+02  0.31865857660E+02  0.13810319341E+03  0.12508720245E+03 0.  0.
          5    1    3    3  502    0 -0.33111609692E+02 -0.83667380819E+02  0.77541878747E+01  0.90411333024E+02  0.41800000000E+01 0. -1.
         -5    1    3    3    0  502  0.16415798974E+02  0.37499200940E+02  0.24111669786E+02  0.47691860385E+02  0.41800000000E+01 0. -1.
        -11    1    1    2    0    0  0.47837297482E+01  0.43449315207E+02  0.86058451508E+02  0.96523490085E+02  0.00000000000E+00 0. -1.
         11    1    1    2    0    0  0.11912080971E+02  0.27188646721E+01 -0.22133001727E+02  0.25281607219E+02  0.00000000000E+00 0.  1.
</event>
<event>
 7    1  0.2530765E-009  0.1623089E+03  0.7561462E-02  0.1186114E+00
          1   -1    0    0  501    0  0.00000000000E+00  0.00000000000E+00  0.17482671451E+03  0.17482671451E+03  0.00000000000E+00 0. -1.
         -1   -1    0    0    0  501 -0.00000000000E+00 -0.00000000000E+00 -0.38180231376E+03  0.38180231376E+03  0.00000000000E+00 0.  1.
         25    2    1    2    0    0 -0.36431822945E+02 -0.13179943723E+03 -0.30984754867E+03  0.36104542897E+03  0.12509967620E+03 0.  0.
          5    1    3    3  502    0  0.59370970655E+01 -0.11416128630E+03 -0.12041577852E+03  0.16608877303E+03  0.41800000000E+01 0. -1.
         -5    1    3    3    0  502 -0.42368920010E+02 -0.17638150931E+02 -0.18943177015E+03  0.19495665594E+03  0.41800000000E+01 0. -1.
        -11    1    1    2    0    0 -0.15705191626E+02  0.10376339919E+03  0.50148128059E+02  0.11631135285E+03  0.00000000000E+00 0.  1.
         11    1    1    2    0    0  0.52137014570E+02  0.28036038045E+02  0.52723821357E+02  0.79272246443E+02  0.00000000000E+00 0. -1.
</event>
<event>
 7    1  0.2530765E-009  0.9291343E+02  0.7561462E-02  0.1295946E+00
         -1   -1    0    0    0  501 -0.00000000000E+00  0.00000000000E+00  0.32279094915E+02  0.32279094915E+02  0.00000000000E+00 0.  1.
          1   -1    0    0  501    0  0.00000000000E+00 -0.00000000000E+00 -0.48749218804E+03  0.48749218804E+03  0.00000000000E+00 0. -1.
         25    2    1    2    0    0 -0.87492468159E+01 -0.59545945967E+02 -0.23230712924E+03  0.27061614631E+03  0.12507688574E+03 0.  0.
          5    1    3    3  502    0 -0.24999357419E+02 -0.22436354822E+02  0.91724713967E+00  0.33862540238E+02  0.41800000000E+01 0.  1.
         -5    1    3    3    0  502  0.16250110604E+02 -0.37109591145E+02 -0.23322437638E+03  0.23675360607E+03  0.41800000000E+01 0.  1.
        -11    1    1    2    0    0  0.50633669706E+02  0.42208815649E+02 -0.12784759189E+03  0.14384143832E+03  0.00000000000E+00 0.  1.
         11    1    1    2    0    0 -0.41884422890E+02  0.17337130318E+02 -0.95058371992E+02  0.10531369832E+03  0.00000000000E+00 0. -1.
</event>
<event>
 7    1  0.2530765E-009  0.9659965E+02  0.7561462E-02  0.1287613E+00
         -1   -1    0    0    0  501 -0.00000000000E+00  0.00000000000E+00  0.20241666904E+02  0.20241666904E+02  0.00000000000E+00 0.  1.
          1   -1    0    0  501    0  0.00000000000E+00 -0.00000000000E+00 -0.76809958261E+03  0.76809958261E+03  0.00000000000E+00 0. -1.
         25    2    1    2    0    0  0.60149504587E+02 -0.11917981417E+02 -0.45256724603E+03  0.47352361445E+03  0.12508996796E+03 0.  0.
          5    1    3    3  502    0 -0.69759844768E+01  0.15924959642E+02 -0.33342971120E+03  0.33390883997E+03  0.41800000000E+01 0.  1.
         -5    1    3    3    0  502  0.67125489064E+02 -0.27842941059E+02 -0.11913753483E+03  0.13961477448E+03  0.41800000000E+01 0.  1.
        -11    1    1    2    0    0  0.19481474422E+02 -0.69625952274E+01 -0.11467135207E+03  0.11652263541E+03  0.00000000000E+00 0. -1.
         11    1    1    2    0    0 -0.79630979009E+02  0.18880576644E+02 -0.18061931761E+03  0.19829499965E+03  0.00000000000E+00 0.  1.
</event>
<event>
 7    1  0.2530765E-009  0.1058430E+03  0.7561462E-02  0.1268468E+00
          3   -1    0    0  501    0  0.00000000000E+00  0.00000000000E+00  0.12596180813E+03  0.12596180813E+03  0.00000000000E+00 0. -1.
         -3   -1    0    0    0  501 -0.00000000000E+00 -0.00000000000E+00 -0.19414137644E+03  0.19414137644E+03  0.00000000000E+00 0.  1.
         25    2    1    2    0    0  0.24174916646E+02  0.25489372406E+02  0.76467675546E+02  0.15076599257E+03  0.12509574098E+03 0.  0.
          5    1    3    3  502    0  0.65821556731E+02  0.44599972582E+02  0.29208171607E+02  0.84806984225E+02  0.41800000000E+01 0.  1.
         -5    1    3    3    0  502 -0.41646640084E+02 -0.19110600176E+02  0.47259503939E+02  0.65959008346E+02  0.41800000000E+01 0.  1.
        -11    1    1    2    0    0  0.20275305580E+02 -0.35139661054E+02 -0.86255751626E+02  0.95320189277E+02  0.00000000000E+00 0.  1.
         11    1    1    2    0    0 -0.44450222226E+02  0.96502886477E+01 -0.58391492233E+02  0.74017002723E+02  0.00000000000E+00 0. -1.
</event>
<event>
 7    1  0.2530765E-009  0.1153391E+03  0.7561462E-02  0.1250990E+00
         -2   -1    0    0    0  501 -0.00000000000E+00  0.00000000000E+00  0.99718962090E+02  0.99718962090E+02  0.00000000000E+00 0. -1.
          2   -1    0    0  501    0  0.00000000000E+00 -0.00000000000E+00 -0.15404997726E+03  0.15404997726E+03  0.00000000000E+00 0.  1.
         25    2    1    2    0    0 -0.20902710292E+02 -0.48369850983E+02 -0.61407169338E+02  0.14897875027E+03  0.12508901553E+03 0.  0.
          5    1    3    3  502    0  0.34027922808E+02  0.19035585354E+02  0.49406518896E+01  0.39523859648E+02  0.41800000000E+01 0. -1.
         -5    1    3    3    0  502 -0.54930633099E+02 -0.67405436336E+02 -0.66347821228E+02  0.10945489063E+03  0.41800000000E+01 0. -1.
        -11    1    1    2    0    0  0.40276064436E+02  0.66585348058E+02  0.29044185146E+01  0.77873009377E+02  0.00000000000E+00 0.  1.
         11    1    1    2    0    0 -0.19373354145E+02 -0.18215497076E+02  0.41717356536E+01  0.26917179698E+02  0.00000000000E+00 0. -1.
</event>
<event>
 7    1  0.2530765E-009  0.1343584E+03  0.7561462E-02  0.1221128E+00
          1   -1    0    0  501    0  0.00000000000E+00  0.00000000000E+00  0.86580669053E+03  0.86580669053E+03  0.00000000000E+00 0. -1.
         -1   -1    0    0    0  501 -0.00000000000E+00 -0.00000000000E+00 -0.25804701001E+02  0.25804701001E+02  0.00000000000E+00 0.  1.
         25    2    1    2    0    0 -0.96574955943E+02 -0.36914436913E+02  0.42671489295E+03  0.45653310541E+03  0.12508988252E+03 0.  0.
          5    1    3    3  502    0 -0.33169407252E+02  0.26760064632E+02  0.28824536272E+03  0.29140894318E+03  0.41800000000E+01 0.  1.
         -5    1    3    3    0  502 -0.63405548691E+02 -0.63674501545E+02  0.13846953023E+03  0.16512416223E+03  0.41800000000E+01 0.  1.
        -11    1    1    2    0    0  0.20466706108E+02  0.54161493534E+02  0.17159922161E+03  0.18110396544E+03  0.00000000000E+00 0. -1.
         11    1    1    2    0    0  0.76108249835E+02 -0.17247056621E+02  0.24168787497E+03  0.25397432068E+03  0.00000000000E+00 0.  1.
</event>
<event>
 7    1  0.2530765E-009  0.1939640E+03  0.7561462E-02  0.1154934E+00
         -1   -1    0    0    0  501 -0.00000000000E+00  0.00000000000E+00  0.19803108083E+03  0.19803108083E+03  0.00000000000E+00 0.  1.
          1   -1    0    0  501    0  0.00000000000E+00 -0.00000000000E+00 -0.32257983479E+03  0.32257983479E+03  0.00000000000E+00 0. -1.
         25    2    1    2    0    0  0.41117374241E+02  0.17248705075E+03 -0.21232187047E+03  0.30360176613E+03  0.12510409495E+03 0.  0.
          5    1    3    3  502    0  0.48032940005E+02  0.35668502253E+02 -0.13139678697E+03  0.14443681458E+03  0.41800000000E+01 0.  1.
         -5    1    3    3    0  502 -0.69155657641E+01  0.13681854850E+03 -0.80925083503E+02  0.15916495155E+03  0.41800000000E+01 0.  1.
        -11    1    1    2    0    0  0.14833502710E+02 -0.73810126841E+01  0.28339755037E+02  0.32827638759E+02  0.00000000000E+00 0. -1.
         11    1    1    2    0    0 -0.55950876951E+02 -0.16510603807E+03  0.59433361478E+02  0.18418151073E+03  0.00000000000E+00 0.  1.
</event>
<event>
 7    1  0.2530765E-009  0.1862333E+03  0.7561462E-02  0.1161903E+00
         -2   -1    0    0    0  501 -0.00000000000E+00  0.00000000000E+00  0.81501835229E+03  0.81501835229E+03  0.00000000000E+00 0.  1.
          2   -1    0    0  501    0  0.00000000000E+00 -0.00000000000E+00 -0.49275595919E+02  0.49275595919E+02  0.00000000000E+00 0. -1.
         25    2    1    2    0    0  0.73318912014E+02  0.14950058972E+03  0.35234622216E+03  0.40929461450E+03  0.12509249381E+03 0.  0.
          5    1    3    3  502    0  0.47620495225E+02  0.16734423835E+03  0.31894534760E+03  0.36333925309E+03  0.41800000000E+01 0.  1.
         -5    1    3    3    0  502  0.25698416789E+02 -0.17843648633E+02  0.33400874554E+02  0.45955361416E+02  0.41800000000E+01 0.  1.
        -11    1    1    2    0    0 -0.41475468920E+01 -0.15738094074E+02  0.13897210394E+01  0.16334658701E+02  0.00000000000E+00 0. -1.
         11    1    1    2    0    0 -0.69171365122E+02 -0.13376249565E+03  0.41200681317E+03  0.43866467500E+03  0.00000000000E+00 0.  1.
</event>
<event>
 7    1  0.2530765E-009  0.8594682E+02  0.7561462E-02  0.1312975E+00
         -2   -1    0    0    0  501 -0.00000000000E+00  0.00000000000E+00  0.47593437867E+02  0.47593437867E+02  0.00000000000E+00 0.  1.
          2   -1    0    0  501    0  0.00000000000E+00 -0.00000000000E+00 -0.28437806089E+03  0.28437806089E+03  0.00000000000E+00 0. -1.
         25    2    1    2    0    0  0.61900330018E+01  0.34740695897E+02 -0.77538154158E+02  0.15134421322E+03  0.12509065939E+03 0.  0.
          5    1    3    3  502    0  0.32283207283E+02 -0.24034196958E+02  0.10910926565E+02  0.41909054086E+02  0.41800000000E+01 0.  1.
         -5    1    3    3    0  502 -0.26093174281E+02  0.58774892856E+02 -0.88449080723E+02  0.10943515914E+03  0.41800000000E+01 0.  1.
        -11    1    1    2    0    0  0.44263428545E+01  0.15251321703E+02 -0.29044876485E+01  0.16144081679E+02  0.00000000000E+00 0.  1.
         11    1    1    2    0    0 -0.10616375856E+02 -0.49992017601E+02 -0.15634198121E+03  0.16448320385E+03  0.00000000000E+00 0. -1.
</event>
<event>
 7    1  0.2530765E-009  0.1053164E+03  0.7561462E-02  0.1269497E+00
         -2   -1    0    0    0  501 -0.00000000000E+00  0.00000000000E+00  0.26049389261E+03  0.26049389261E+03  0.00000000000E+00 0.  1.
          2   -1    0    0  501    0  0.00000000000E+00 -0.00000000000E+00 -0.58292475598E+02  0.58292475598E+02  0.00000000000E+00 0. -1.
         25    2    1    2    0    0 -0.54086066790E+02 -0.16017076757E+02  0.14401964698E+03  0.19892627072E+03  0.12509257810E+03 0.  0.
          5    1    3    3  502    0 -0.62853630974E+02 -0.48570662624E+02  0.39080515925E+02  0.88625319854E+02  0.41800000000E+01 0.  1.
         -5    1    3    3    0  502  0.87675641840E+01  0.32553585866E+02  0.10493913106E+03  0.11030095086E+03  0.41800000000E+01 0.  1.
        -11    1    1    2    0    0  0.39288599179E+02 -0.29580427172E+02  0.68998919154E+01  0.49660892115E+02  0.00000000000E+00 0. -1.
         11    1    1    2    0    0  0.14797467611E+02  0.45597503930E+02  0.51281878113E+02  0.70199205373E+02  0.00000000000E+00 0.  1.
</event>
<event>
 7    1  0.2530765E-009  0.9634927E+02  0.7561462E-02  0.1288166E+00
          4   -1    0    0  501    0  0.00000000000E+00  0.00000000000E+00  0.27306923439E+03  0.27306923439E+03  0.00000000000E+00 0. -1.
         -4   -1    0    0    0  501 -0.00000000000E+00 -0.00000000000E+00 -0.51246364239E+02  0.51246364239E+02  0.00000000000E+00 0.  1.
         25    2    1    2    0    0  0.53858201418E+01 -0.16891286224E+01  0.63034907465E+02  0.14018156350E+03  0.12508241672E+03 0.  0.
          5    1    3    3  502    0 -0.31986008741E+02 -0.44805522173E+02  0.20976167046E+00  0.55210107520E+02  0.41800000000E+01 0. -1.
         -5    1    3    3    0  502  0.37371828883E+02  0.43116393551E+02  0.62825145794E+02  0.84971455977E+02  0.41800000000E+01 0. -1.
        -11    1    1    2    0    0  0.11031052008E+02  0.38458646264E+02  0.32390246055E+02  0.51476981462E+02  0.00000000000E+00 0.  1.
         11    1    1    2    0    0 -0.16416872150E+02 -0.36769517642E+02  0.12639771663E+03  0.13265705367E+03  0.00000000000E+00 0. -1.
</event>
<event>
 7    1  0.2530765E-009  0.1169254E+03  0.7561462E-02  0.1248257E+00
          2   -1    0    0  501    0  0.00000000000E+00  0.00000000000E+00  0.56443498048E+02  0.56443498048E+02  0.00000000000E+00 0. -1.
         -2   -1    0    0    0  501 -0.00000000000E+00 -0.00000000000E+00 -0.26584585524E+03  0.26584585524E+03  0.00000000000E+00 0.  1.
         25    2    1    2    0    0 -0.42317402117E+02  0.28395251459E+02 -0.85050758999E+02  0.15961928207E+03  0.12509049034E+03 0.  0.
          5    1    3    3  502    0  0.36347844805E+02 -0.14517472452E+02 -0.55446557783E+01  0.39750955159E+02  0.41800000000E+01 0. -1.
         -5    1    3    3    0  502 -0.78665246922E+02  0.42912723911E+02 -0.79506103220E+02  0.11986832691E+03  0.41800000000E+01 0. -1.
        -11    1    1    2    0    0  0.68676494685E+02 -0.35739042556E+02 -0.94791178073E+02  0.12238916425E+03  0.00000000000E+00 0.  1.
         11    1    1    2    0    0 -0.26359092568E+02  0.73437910966E+01 -0.29560420118E+02  0.40280906969E+02  0.00000000000E+00 0. -1.
</event>
<event>
 7    1  0.2530765E-009  0.5819753E+02  0.7561462E-02  0.1405555E+00
         -1   -1    0    0    0  501 -0.00000000000E+00  0.00000000000E+00  0.15687814445E+03  0.15687814445E+03  0.00000000000E+00 0.  1.
          1   -1    0    0  501    0  0.00000000000E+00 -0.00000000000E+00 -0.80762202240E+02  0.80762202240E+02  0.00000000000E+00 0. -1.
         25    2    1    2    0    0  0.12488385402E+02  0.18087470444E+02  0.70876460124E+02  0.14544471780E+03  0.12509027532E+03 0.  0.
          5    1    3    3  502    0  0.11308723811E+02  0.11730619862E+02 -0.35240176506E+02  0.39049162818E+02  0.41800000000E+01 0. -1.
         -5    1    3    3    0  502  0.11796615908E+01  0.63568505826E+01  0.10611663663E+03  0.10639555498E+03  0.41800000000E+01 0. -1.
        -11    1    1    2    0    0 -0.34971049587E+02  0.25194564515E+02  0.52710648405E+01  0.43422626762E+02  0.00000000000E+00 0. -1.
         11    1    1    2    0    0  0.22482664185E+02 -0.43282034960E+02 -0.31582752871E-01  0.48773002128E+02  0.00000000000E+00 0.  1.
</event>
<event>
 7    1  0.2530765E-009  0.1370359E+03  0.7561462E-02  0.1217374E+00
         -1   -1    0    0    0  501 -0.00000000000E+00  0.00000000000E+00  0.22652450061E+02  0.22652450061E+02  0.00000000000E+00 0.  1.
          1   -1    0    0  501    0  0.00000000000E+00 -0.00000000000E+00 -0.96175359353E+03  0.96175359353E+03  0.00000000000E+00 0. -1.
         25    2    1    2    0    0  0.31322032972E+02 -0.82018222892E+02 -0.65354244664E+03  0.67117289731E+03  0.12508904784E+03 0.  0.
          5    1    3    3  502    0 -0.20953294607E+02  0.20890340551E+02 -0.66926253721E+02  0.73294220239E+02  0.41800000000E+01 0. -1.
         -5    1    3    3    0  502  0.52275327578E+02 -0.10290856344E+03 -0.58661619292E+03  0.59787867707E+03  0.41800000000E+01 0. -1.
        -11    1    1    2    0    0 -0.90382392300E+01  0.99782839778E+02 -0.22550461520E+03  0.24676028116E+03  0.00000000000E+00 0. -1.
         11    1    1    2    0    0 -0.22283793742E+02 -0.17764616886E+02 -0.60054081634E+02  0.66472865122E+02  0.00000000000E+00 0.  1.
</event>
<event>
 7    1  0.2530765E-009  0.1134308E+03  0.7561462E-02  0.1254345E+00
         -1   -1    0    0    0  501 -0.00000000000E+00  0.00000000000E+00  0.12371164730E+02  0.12371164730E+02  0.00000000000E+00 0.  1.
          1   -1    0    0  501    0  0.00000000000E+00 -0.00000000000E+00 -0.14127766948E+04  0.14127766948E+04  0.00000000000E+00 0. -1.
         25    2    1    2    0    0 -0.54524891971E+02 -0.23634910611E+02 -0.99539400357E+03  0.10049815622E+04  0.12508854966E+03 0.  0.
          5    1    3    3  502    0  0.30280037743E+02 -0.86522398646E+01 -0.89070609942E+02  0.94566314805E+02  0.41800000000E+01 0. -1.
         -5    1    3    3    0  502 -0.84804929713E+02 -0.14982670746E+02 -0.90632339363E+03  0.91041524744E+03  0.41800000000E+01 0. -1.
        -11    1    1    2    0    0  0.80309816122E+02  0.20608708322E+02 -0.34419041508E+03  0.35403591238E+03  0.00000000000E+00 0. -1.
         11    1    1    2    0    0 -0.25784924151E+02  0.30262022889E+01 -0.60821111450E+02  0.66130384936E+02  0.00000000000E+00 0.  1.
</event>
<event>
 7    1  0.2530765E-009  0.1167316E+03  0.7561462E-02  0.1248588E+00
          1   -1    0    0  501    0  0.00000000000E+00  0.00000000000E+00  0.44229214121E+03  0.44229214121E+03  0.00000000000E+00 0. -1.
         -1   -1    0    0    0  501 -0.00000000000E+00 -0.00000000000E+00 -0.31830163787E+02  0.31830163787E+02  0.00000000000E+00 0.  1.
         25    2    1    2    0    0  0.41518126899E+02 -0.13423026422E+02  0.24784401092E+03  0.28103113863E+03  0.12509162496E+03 0.  0.
          5    1    3    3  502    0  0.84820343495E+02 -0.21508508349E+02  0.15134786076E+03  0.17487353705E+03  0.41800000000E+01 0. -1.
         -5    1    3    3    0  502 -0.43302216596E+02  0.80854819274E+01  0.96496150154E+02  0.10615760159E+03  0.41800000000E+01 0. -1.
        -11    1    1    2    0    0 -0.69451243473E+02  0.21199398063E+02  0.95447018936E+02  0.11992924215E+03  0.00000000000E+00 0.  1.
         11    1    1    2    0    0  0.27933116574E+02 -0.77763716410E+01  0.67170947575E+02  0.73161924220E+02  0.00000000000E+00 0. -1.
</event>
<event>
 7    1  0.2530765E-009  0.7317729E+02  0.7561462E-02  0.1349610E+00
         -2   -1    0    0    0  501 -0.00000000000E+00  0.00000000000E+00  0.15455254281E+02  0.15455254281E+02  0.00000000000E+00 0.  1.
          2   -1    0    0  501    0  0.00000000000E+00 -0.00000000000E+00 -0.13997486147E+04  0.13997486147E+04  0.00000000000E+00 0. -1.
         25    2    1    2    0    0  0.30292979136E+02  0.36497188000E+02 -0.11601100466E+04  0.11677984816E+04  0.12509302154E+03 0.  0.
          5    1    3    3  502    0  0.26743516410E+02  0.44503716660E+02 -0.17373338178E+03  0.18137407976E+03  0.41800000000E+01 0. -1.
         -5    1    3    3    0  502  0.35494627261E+01 -0.80065286604E+01 -0.98637666482E+03  0.98642440181E+03  0.41800000000E+01 0. -1.
        -11    1    1    2    0    0 -0.32858863790E+02  0.12750970148E+02 -0.27701450223E+02  0.44829259572E+02  0.00000000000E+00 0.  1.
         11    1    1    2    0    0  0.25658846540E+01 -0.49248158148E+02 -0.19648186362E+03  0.20257612786E+03  0.00000000000E+00 0. -1.
</event>
<event>
 7    1  0.2530765E-009  0.5535882E+02  0.7561462E-02  0.1418410E+00
         -2   -1    0    0    0  501 -0.00000000000E+00  0.00000000000E+00  0.47638290420E+02  0.47638290420E+02  0.00000000000E+00 0. -1.
          2   -1    0    0  501    0  0.00000000000E+00 -0.00000000000E+00 -0.43993293612E+03  0.43993293612E+03  0.00000000000E+00 0.  1.
         25    2    1    2    0    0  0.24300843788E+02  0.44693417253E+01 -0.36865093873E+03  0.39007876797E+03  0.12508966613E+03 0.  0.
          5    1    3    3  502    0  0.40904284557E+02 -0.11952843020E+02 -0.36322739026E+03  0.36574258760E+03  0.41800000000E+01 0.  1.
         -5    1    3    3    0  502 -0.16603440769E+02  0.16422184745E+02 -0.54235484744E+01  0.24336180374E+02  0.41800000000E+01 0.  1.
        -11    1    1    2    0    0  0.27340732645E+01  0.12140378913E+02  0.31501476127E+02  0.33870443678E+02  0.00000000000E+00 0. -1.
         11    1    1    2    0    0 -0.27034917052E+02 -0.16609720638E+02 -0.55145183099E+02  0.63622014891E+02  0.00000000000E+00 0.  1.
</event>
<event>
 7    1  0.2530765E-009  0.1929271E+03  0.7561462E-02  0.1155847E+00
         -1   -1    0    0    0  501 -0.00000000000E+00  0.00000000000E+00  0.55472924851E+02  0.55472924851E+02  0.00000000000E+00 0.  1.
          1   -1    0    0  501    0  0.00000000000E+00 -0.00000000000E+00 -0.86993704426E+03  0.86993704426E+03  0.00000000000E+00 0. -1.
         25    2    1    2    0    0  0.13204270888E+03 -0.12919425207E+03 -0.32382065123E+03  0.39323387400E+03  0.12508650514E+03 0.  0.
          5    1    3    3  502    0  0.35867305826E+02 -0.73253955970E+02 -0.45546558459E+02  0.93512389981E+02  0.41800000000E+01 0. -1.
         -5    1    3    3    0  502  0.96175403051E+02 -0.55940296104E+02 -0.27827409277E+03  0.29972148402E+03  0.41800000000E+01 0. -1.
        -11    1    1    2    0    0 -0.13008268728E+03  0.10127942865E+03 -0.46796907596E+03  0.49615933354E+03  0.00000000000E+00 0.  1.
         11    1    1    2    0    0 -0.19600215999E+01  0.27914823426E+02 -0.22674392221E+02  0.36016761573E+02  0.00000000000E+00 0. -1.
</event>
<event>
 7    1  0.2530765E-009  0.8535664E+02  0.7561462E-02  0.1314503E+00
          2   -1    0    0  501    0  0.00000000000E+00  0.00000000000E+00  0.61793552392E+03  0.61793552392E+03  0.00000000000E+00 0.  1.
         -2   -1    0    0    0  501 -0.00000000000E+00 -0.00000000000E+00 -0.32465140818E+02  0.32465140818E+02  0.00000000000E+00 0. -1.
         25    2    1    2    0    0  0.38929280845E+02  0.13515483556E+02  0.50190307130E+03  0.51889283408E+03  0.12507966694E+03 0.  0.
          5    1    3    3  502    0  0.62677176731E+02  0.36967751274E+02  0.45706575998E+03  0.46284081979E+03  0.41800000000E+01 0.  1.
         -5    1    3    3    0  502 -0.23747895886E+02 -0.23452267717E+02  0.44837311320E+02  0.56052014295E+02  0.41800000000E+01 0.  1.
        -11    1    1    2    0    0 -0.26107996133E+01 -0.25737438436E+02  0.89110087959E+02  0.92789222369E+02  0.00000000000E+00 0.  1.
         11    1    1    2    0    0 -0.36318481231E+02  0.12221954880E+02 -0.55427761563E+01  0.38718608285E+02  0.00000000000E+00 0. -1.
</event>
<event>
 7    1  0.2530765E-009  0.1014644E+03  0.7561462E-02  0.1277246E+00
          2   -1    0    0  501    0  0.00000000000E+00  0.00000000000E+00  0.10368043341E+03  0.10368043341E+03  0.00000000000E+00 0.  1.
         -2   -1    0    0    0  501 -0.00000000000E+00 -0.00000000000E+00 -0.17961112982E+03  0.17961112982E+03  0.00000000000E+00 0. -1.
         25    2    1    2    0    0  0.26958468300E+02 -0.90444566501E+02 -0.47950005155E+02  0.16386231184E+03  0.12507867773E+03 0.  0.
          5    1    3    3  502    0  0.41831691497E+02 -0.50442290351E+02  0.32069474357E+02  0.73076936546E+02  0.41800000000E+01 0. -1.
         -5    1    3    3    0  502 -0.14873223197E+02 -0.40002276150E+02 -0.80019479513E+02  0.90785375292E+02  0.41800000000E+01 0. -1.
        -11    1    1    2    0    0 -0.72970796656E+01  0.26130708038E+02  0.22574805090E+02  0.35294236060E+02  0.00000000000E+00 0.  1.
         11    1    1    2    0    0 -0.19661388635E+02  0.64313858463E+02 -0.50555496345E+02  0.84135015327E+02  0.00000000000E+00 0. -1.
</event>
<event>
 7    1  0.2530765E-009  0.1014416E+03  0.7561462E-02  0.1277293E+00
          1   -1    0    0  501    0  0.00000000000E+00  0.00000000000E+00  0.80953180357E+03  0.80953180357E+03  0.00000000000E+00 0. -1.
         -1   -1    0    0    0  501 -0.00000000000E+00 -0.00000000000E+00 -0.14805840826E+02  0.14805840826E+02  0.00000000000E+00 0.  1.
         25    2    1    2    0    0 -0.32442429966E+01  0.12045863535E+02  0.51852994494E+03  0.53355090482E+03  0.12509051241E+03 0.  0.
          5    1    3    3  502    0 -0.33191987102E+02 -0.41122506123E+02  0.13260096754E+03  0.14280496319E+03  0.41800000000E+01 0.  1.
         -5    1    3    3    0  502  0.29947744105E+02  0.53168369658E+02  0.38592897740E+03  0.39074594164E+03  0.41800000000E+01 0.  1.
        -11    1    1    2    0    0  0.45226272067E+02 -0.75656070974E+00  0.17282418973E+03  0.17864542711E+03  0.00000000000E+00 0. -1.
         11    1    1    2    0    0 -0.41982029070E+02 -0.11289302826E+02  0.10337182807E+03  0.11214131246E+03  0.00000000000E+00 0.  1.
</event>
<event>
 7    1  0.2530765E-009  0.1034309E+03  0.7561462E-02  0.1273242E+00
          4   -1    0    0  501    0  0.00000000000E+00  0.00000000000E+00  0.44132017770E+02  0.44132017770E+02  0.00000000000E+00 0. -1.
         -4   -1    0    0    0  501 -0.00000000000E+00 -0.00000000000E+00 -0.61157987608E+03  0.61157987608E+03  0.00000000000E+00 0.  1.
         25    2    1    2    0    0 -0.38840036767E+02 -0.21259145662E+02 -0.53346024688E+03  0.54971879188E+03  0.12510162035E+03 0.  0.
          5    1    3    3  502    0  0.37849111569E+02  0.95721183129E+01 -0.84270545320E+02  0.92968693140E+02  0.41800000000E+01 0. -1.
         -5    1    3    3    0  502 -0.76689148336E+02 -0.30831263975E+02 -0.44918970156E+03  0.45675009874E+03  0.41800000000E+01 0. -1.
        -11    1    1    2    0    0 -0.50530877708E+01 -0.22379657983E+02  0.14696162313E+02  0.27246283677E+02  0.00000000000E+00 0. -1.
         11    1    1    2    0    0  0.43893124538E+02  0.43638803645E+02 -0.48683773737E+02  0.78746818288E+02  0.00000000000E+00 0.  1.
</event>
<event>
 7    1  0.2530765E-009  0.1406415E+03  0.7561462E-02  0.1212468E+00
          2   -1    0    0  501    0  0.00000000000E+00  0.00000000000E+00  0.15990729241E+04  0.15990729241E+04  0.00000000000E+00 0. -1.
         -2   -1    0    0    0  501 -0.00000000000E+00 -0.00000000000E+00 -0.23186715574E+02  0.23186715574E+02  0.00000000000E+00 0.  1.
         25    2    1    2    0    0  0.23703710222E+02  0.10871318759E+03  0.13125104904E+04  0.13231451249E+04  0.12509520745E+03 0.  0.
          5    1    3    3  502    0  0.40802428356E+02 -0.84843767771E+01  0.19990936180E+03  0.20424996486E+03  0.41800000000E+01 0.  1.
         -5    1    3    3    0  502 -0.17098718134E+02  0.11719756437E+03  0.11126011286E+04  0.11188951600E+04  0.41800000000E+01 0.  1.
        -11    1    1    2    0    0  0.70906608935E+01 -0.74575592648E+02  0.78097463885E+02  0.10821742168E+03  0.00000000000E+00 0.  1.
         11    1    1    2    0    0 -0.30794371115E+02 -0.34137594945E+02  0.18527825426E+03  0.19089709318E+03  0.00000000000E+00 0. -1.
</event>
<event>
 7    1  0.2530765E-009  0.1339624E+03  0.7561462E-02  0.1221692E+00
         -1   -1    0    0    0  501 -0.00000000000E+00  0.00000000000E+00  0.11404460771E+03  0.11404460771E+03  0.00000000000E+00 0.  1.
          1   -1    0    0  501    0  0.00000000000E+00 -0.00000000000E+00 -0.19322243266E+03  0.19322243266E+03  0.00000000000E+00 0. -1.
         25    2    1    2    0    0 -0.76645714733E+02  0.43748651780E+02 -0.98104834563E+02  0.18183277199E+03  0.12510031290E+03 0.  0.
          5    1    3    3  502    0 -0.10103212883E+03  0.93196775938E+01 -0.95430402677E+02  0.13935128848E+03  0.41800000000E+01 0.  1.
         -5    1    3    3    0  502  0.24386414092E+02  0.34428974186E+02 -0.26744318867E+01  0.42481483516E+02  0.41800000000E+01 0.  1.
        -11    1    1    2    0    0 -0.19644115744E+02 -0.57988010782E+01  0.23450807904E+01  0.20615935129E+02  0.00000000000E+00 0.  1.
         11    1    1    2    0    0  0.96289830478E+02 -0.37949850702E+02  0.16581928823E+02  0.10481833325E+03  0.00000000000E+00 0. -1.
</event>
<event>
 7    1  0.4327176E-009  0.9946403E+02  0.7561462E-02  0.1281427E+00
          1   -1    0    0  501    0  0.00000000000E+00  0.00000000000E+00  0.85238017292E+03  0.85238017292E+03  0.00000000000E+00 0. -1.
         -1   -1    0    0    0  501 -0.00000000000E+00 -0.00000000000E+00 -0.21063564171E+02  0.21063564171E+02  0.00000000000E+00 0.  1.
         25    2    1    2    0    0 -0.50798020723E+01 -0.60922165458E+02  0.29954230408E+03  0.33031893523E+03  0.12509073669E+03 0.  0.
          5    1    3    3  502    0 -0.30569996202E+02 -0.80342703105E+01  0.79689698312E+01  0.32864130102E+02  0.41800000000E+01 0. -1.
         -5    1    3    3    0  502  0.25490194129E+02 -0.52887895148E+02  0.29157333424E+03  0.29745480513E+03  0.41800000000E+01 0. -1.
        -11    1    1    2    0    0  0.39861401728E+02  0.21826216569E+01  0.14611747328E+03  0.15147280674E+03  0.00000000000E+00 0. -1.
         11    1    1    2    0    0 -0.34781599656E+02  0.58739543801E+02  0.38565683140E+03  0.39165199512E+03  0.00000000000E+00 0.  1.
</event>
<event>
 7    1  0.2530765E-009  0.1092293E+03  0.7561462E-02  0.1262004E+00
         -2   -1    0    0    0  501 -0.00000000000E+00  0.00000000000E+00  0.23764367201E+02  0.23764367201E+02  0.00000000000E+00 0.  1.
          2   -1    0    0  501    0  0.00000000000E+00 -0.00000000000E+00 -0.11765514941E+04  0.11765514941E+04  0.00000000000E+00 0. -1.
         25    2    1    2    0    0 -0.44680384274E+02  0.10719387267E+02 -0.10440114453E+04  0.10524824679E+04  0.12509278723E+03 0.  0.
          5    1    3    3  502    0 -0.13911943131E+02  0.63550829176E+02 -0.37072804481E+03  0.37641600080E+03  0.41800000000E+01 0.  1.
         -5    1    3    3    0  502 -0.30768441143E+02 -0.52831441909E+02 -0.67328340047E+03  0.67606646713E+03  0.41800000000E+01 0.  1.
        -11    1    1    2    0    0  0.45859490442E+02  0.27683186339E+02 -0.90782076509E+02  0.10540795551E+03  0.00000000000E+00 0. -1.
         11    1    1    2    0    0 -0.11791061677E+01 -0.38402573605E+02 -0.17993605065E+02  0.42425437819E+02  0.00000000000E+00 0.  1.
</event>
<event>
 7    1  0.2530765E-009  0.1124948E+03  0.7561462E-02  0.1256018E+00
          1   -1    0    0  501    0  0.00000000000E+00  0.00000000000E+00  0.26528369727E+02  0.26528369727E+02  0.00000000000E+00 0. -1.
         -1   -1    0    0    0  501 -0.00000000000E+00 -0.00000000000E+00 -0.54890819092E+03  0.54890819092E+03  0.00000000000E+00 0.  1.
         25    2    1    2    0    0  0.18040489892E+02 -0.39494404362E+02 -0.35940080717E+03  0.38301612097E+03  0.12508853458E+03 0.  0.
          5    1    3    3  502    0  0.51540329974E+02 -0.66131538043E+02 -0.18122252138E+03  0.19972195821E+03  0.41800000000E+01 0.  1.
         -5    1    3    3    0  502 -0.33499840082E+02  0.26637133681E+02 -0.17817828579E+03  0.18329416276E+03  0.41800000000E+01 0.  1.
        -11    1    1    2    0    0 -0.44739737895E+02 -0.61487143942E+01 -0.48223223405E+02  0.66067617720E+02  0.00000000000E+00 0. -1.
         11    1    1    2    0    0  0.26699248003E+02  0.45643118756E+02 -0.11475579062E+03  0.12635282195E+03  0.00000000000E+00 0.  1.
</event>
<event>
 7    1  0.2530765E-009  0.9997090E+02  0.7561462E-02  0.1280357E+00
          2   -1    0    0  501    0  0.00000000000E+00  0.00000000000E+00  0.55956965075E+03  0.55956965075E+03  0.00000000000E+00 0. -1.
         -2   -1    0    0    0  501 -0.00000000000E+00 -0.00000000000E+00 -0.28440791677E+02  0.28440791677E+02  0.00000000000E+00 0.  1.
         25    2    1    2    0    0 -0.41996877504E+02 -0.46259211120E+02  0.33241167420E+03  0.36062142614E+03  0.12508652809E+03 0.  0.
          5    1    3    3  502    0 -0.42906938172E+02  0.52611893303E+01  0.27602652980E+02  0.51459346168E+02  0.41800000000E+01 0. -1.
         -5    1    3    3    0  502  0.91006066822E+00 -0.51520400450E+02  0.30480902122E+03  0.30916207997E+03  0.41800000000E+01 0. -1.
        -11    1    1    2    0    0 -0.18064259965E+02  0.40660536025E+02  0.12158679555E+03  0.12947179435E+03  0.00000000000E+00 0.  1.
         11    1    1    2    0    0  0.60061137469E+02  0.55986750951E+01  0.77130389315E+02  0.97917221942E+02  0.00000000000E+00 0. -1.
</event>
<event>
 7    1  0.2530765E-009  0.1521139E+03  0.7561462E-02  0.1197899E+00
         -1   -1    0    0    0  501 -0.00000000000E+00  0.00000000000E+00  0.12407417310E+03  0.12407417310E+03  0.00000000000E+00 0. -1.
          1   -1    0    0  501    0  0.00000000000E+00 -0.00000000000E+00 -0.21870424255E+03  0.21870424255E+03  0.00000000000E+00 0.  1.
         25    2    1    2    0    0  0.95555306192E+02  0.62070465204E+02  0.64221267681E+00  0.16920806358E+03  0.12508955652E+03 0.  0.
          5    1    3    3  502    0  0.26077810292E+02  0.86813796702E+02 -0.19131184757E+02  0.92737059031E+02  0.41800000000E+01 0. -1.
         -5    1    3    3    0  502  0.69477495900E+02 -0.24743331499E+02  0.19773397434E+02  0.76471004546E+02  0.41800000000E+01 0. -1.
        -11    1    1    2    0    0 -0.56089775594E+02  0.10446897402E+02 -0.16338702498E+02  0.59347736189E+02  0.00000000000E+00 0. -1.
         11    1    1    2    0    0 -0.39465530599E+02 -0.72517362606E+02 -0.78933579635E+02  0.11422261588E+03  0.00000000000E+00 0.  1.
</event>
<event>
 7    1  0.2530765E-009  0.9444132E+02  0.7561462E-02  0.1292439E+00
         -1   -1    0    0    0  501 -0.00000000000E+00  0.00000000000E+00  0.10095160544E+03  0.10095160544E+03  0.00000000000E+00 0.  1.
          1   -1    0    0  501    0  0.00000000000E+00 -0.00000000000E+00 -0.12764117727E+03  0.12764117727E+03  0.00000000000E+00 0. -1.
         25    2    1    2    0    0  0.24984408713E+02 -0.13325534595E+02  0.42721366682E+01  0.12832602831E+03  0.12509007890E+03 0.  0.
          5    1    3    3  502    0  0.72305240170E+02 -0.12092482894E+02 -0.18362543167E+02  0.75689703990E+02  0.41800000000E+01 0.  1.
         -5    1    3    3    0  502 -0.47320831457E+02 -0.12330517008E+01  0.22634679835E+02  0.52636324316E+02  0.41800000000E+01 0.  1.
        -11    1    1    2    0    0 -0.45368945689E+01 -0.24509659051E+02  0.21157298221E+02  0.32694618321E+02  0.00000000000E+00 0.  1.
         11    1    1    2    0    0 -0.20447514144E+02  0.37835193646E+02 -0.52119006718E+02  0.67572136078E+02  0.00000000000E+00 0. -1.
</event>
<event>
 7    1  0.2530765E-009  0.1680590E+03  0.7561462E-02  0.1179887E+00
         -1   -1    0    0    0  501 -0.00000000000E+00  0.00000000000E+00  0.27680320484E+02  0.27680320484E+02  0.00000000000E+00 0.  1.
          1   -1    0    0  501    0  0.00000000000E+00 -0.00000000000E+00 -0.15188541023E+04  0.15188541023E+04  0.00000000000E+00 0. -1.
         25    2    1    2    0    0  0.82227787659E+02  0.11408392377E+03 -0.11710310306E+04  0.11860597839E+04  0.12509031013E+03 0.  0.
          5    1    3    3  502    0  0.79546657474E+02  0.13704739638E+03 -0.10969078874E+04  0.11083023258E+04  0.41800000000E+01 0. -1.
         -5    1    3    3    0  502  0.26811301850E+01 -0.22963472614E+02 -0.74123143208E+02  0.77757458115E+02  0.41800000000E+01 0. -1.
        -11    1    1    2    0    0 -0.36922175459E+02 -0.10010203612E+03 -0.27514417668E+03  0.29510673092E+03  0.00000000000E+00 0. -1.
         11    1    1    2    0    0 -0.45305612199E+02 -0.13981887651E+02 -0.44998574570E+02  0.65367907970E+02  0.00000000000E+00 0.  1.
</event>
<event>
 7    1  0.2530765E-009  0.8716991E+02  0.7561462E-02  0.1309854E+00
         -1   -1    0    0    0  501 -0.00000000000E+00  0.00000000000E+00  0.33365935953E+02  0.33365935953E+02  0.00000000000E+00 0.  1.
          1   -1    0    0  501    0  0.00000000000E+00 -0.00000000000E+00 -0.42056978754E+03  0.42056978754E+03  0.00000000000E+00 0. -1.
         25    2    1    2    0    0  0.10027616516E+01 -0.43257978662E+02 -0.23512589928E+03  0.26982226824E+03  0.12509040602E+03 0.  0.
          5    1    3    3  502    0  0.21201860886E+02  0.10210606667E+02  0.37275757075E+01  0.24189721251E+02  0.41800000000E+01 0. -1.
         -5    1    3    3    0  502 -0.20199099234E+02 -0.53468585329E+02 -0.23885347499E+03  0.24563254699E+03  0.41800000000E+01 0. -1.
        -11    1    1    2    0    0 -0.38994368893E+02  0.51741356885E+01 -0.10675679429E+03  0.11377322011E+03  0.00000000000E+00 0. -1.
         11    1    1    2    0    0  0.37991607241E+02  0.38083842973E+02 -0.45321158006E+02  0.70340235139E+02  0.00000000000E+00 0.  1.
</event>
<event>
 7    1  0.2530765E-009  0.7282124E+02  0.7561462E-02  0.1350754E+00
          2   -1    0    0  501    0  0.00000000000E+00  0.00000000000E+00  0.62695325484E+03  0.62695325484E+03  0.00000000000E+00 0. -1.
         -2   -1    0    0    0  501 -0.00000000000E+00 -0.00000000000E+00 -0.20527135778E+02  0.20527135778E+02  0.00000000000E+00 0.  1.
         25    2    1    2    0    0 -0.86397725811E+01  0.25101532727E+01  0.43087697298E+03  0.44875687351E+03  0.12508724610E+03 0.  0.
          5    1    3    3  502    0 -0.45374290659E+02  0.75586268584E+00  0.39358576452E+03  0.39621537579E+03  0.41800000000E+01 0.  1.
         -5    1    3    3    0  502  0.36734518078E+02  0.17542905868E+01  0.37291208460E+02  0.52541497716E+02  0.41800000000E+01 0.  1.
        -11    1    1    2    0    0 -0.25076109505E+02  0.10135888976E+02  0.92725793504E+01  0.28592450771E+02  0.00000000000E+00 0.  1.
         11    1    1    2    0    0  0.33715882086E+02 -0.12646042249E+02  0.16627656673E+03  0.17013106633E+03  0.00000000000E+00 0. -1.
</event>
<event>
 7    1  0.2530765E-009  0.1144602E+03  0.7561462E-02  0.1252526E+00
         -1   -1    0    0    0  501 -0.00000000000E+00  0.00000000000E+00  0.32386198027E+03  0.32386198027E+03  0.00000000000E+00 0.  1.
          1   -1    0    0  501    0  0.00000000000E+00 -0.00000000000E+00 -0.58286515316E+02  0.58286515316E+02  0.00000000000E+00 0. -1.
         25    2    1    2    0    0  0.25719110964E+02 -0.78738766818E+02  0.14313606343E+03  0.20735259773E+03  0.12508357631E+03 0.  0.
          5    1    3    3  502    0 -0.21593613578E+02  0.39101503379E+01  0.10045492993E+03  0.10290888577E+03  0.41800000000E+01 0.  1.
         -5    1    3    3    0  502  0.47312724542E+02 -0.82648917156E+02  0.42681133497E+02  0.10444371196E+03  0.41800000000E+01 0.  1.
        -11    1    1    2    0    0 -0.52057252498E+02  0.56019565947E+02  0.11672698707E+03  0.13954690544E+03  0.00000000000E+00 0.  1.
         11    1    1    2    0    0  0.26338141534E+02  0.22719200871E+02  0.57124144512E+01  0.35248992419E+02  0.00000000000E+00 0. -1.
</event>
<event>
 7    1  0.2530765E-009  0.1227797E+03  0.7561462E-02  0.1238581E+00
         -1   -1    0    0    0  501 -0.00000000000E+00  0.00000000000E+00  0.17646550943E+03  0.17646550943E+03  0.00000000000E+00 0.  1.
          1   -1    0    0  501    0  0.00000000000E+00 -0.00000000000E+00 -0.10466335819E+03  0.10466335819E+03  0.00000000000E+00 0. -1.
         25    2    1    2    0    0  0.17990024100E+02 -0.55496613148E+02 -0.20030708467E+02  0.13946831887E+03  0.12508664057E+03 0.  0.
          5    1    3    3  502    0 -0.29896206253E+02 -0.78913517681E+02 -0.14323822889E+02  0.85695803417E+02  0.41800000000E+01 0. -1.
         -5    1    3    3    0  502  0.47886230354E+02  0.23416904533E+02 -0.57068855775E+01  0.53772515455E+02  0.41800000000E+01 0. -1.
        -11    1    1    2    0    0  0.33214050831E+02  0.43987495993E+02  0.42096970292E+02  0.69355806419E+02  0.00000000000E+00 0. -1.
         11    1    1    2    0    0 -0.51204074931E+02  0.11509117155E+02  0.49735889419E+02  0.72304742331E+02  0.00000000000E+00 0.  1.
</event>
<event>
 7    1  0.2530765E-009  0.1152897E+03  0.7561462E-02  0.1251076E+00
         -1   -1    0    0    0  501 -0.00000000000E+00  0.00000000000E+00  0.25586325683E+02  0.25586325683E+02  0.00000000000E+00 0.  1.
          1   -1    0    0  501    0  0.00000000000E+00 -0.00000000000E+00 -0.55902173751E+03  0.55902173751E+03  0.00000000000E+00 0. -1.
         25    2    1    2    0    0 -0.45316465515E+02 -0.18852301932E+02 -0.33275951254E+03  0.35886573340E+03  0.12508689017E+03 0.  0.
          5    1    3    3  502    0 -0.56009492531E+02  0.40728103287E+02 -0.13178573462E+03  0.14893217886E+03  0.41800000000E+01 0.  1.
         -5    1    3    3    0  502  0.10693027016E+02 -0.59580405219E+02 -0.20097377792E+03  0.20993355454E+03  0.41800000000E+01 0.  1.
        -11    1    1    2    0    0 -0.16884542670E+02  0.32699301823E+02 -0.49470158449E+02  0.61657349098E+02  0.00000000000E+00 0. -1.
         11    1    1    2    0    0  0.62201008185E+02 -0.13846999891E+02 -0.15120574085E+03  0.16408498070E+03  0.00000000000E+00 0.  1.
</event>
<event>
 7    1  0.2530765E-009  0.1200595E+03  0.7561462E-02  0.1242999E+00
          2   -1    0    0  501    0  0.00000000000E+00  0.00000000000E+00  0.31088411363E+03  0.31088411363E+03  0.00000000000E+00 0.  1.
         -2   -1    0    0    0  501 -0.00000000000E+00 -0.00000000000E+00 -0.55691648080E+02  0.55691648080E+02  0.00000000000E+00 0. -1.
         25    2    1    2    0    0 -0.70332762224E+02 -0.48606586568E+00  0.18882613595E+03  0.23717634692E+03  0.12510146370E+03 0.  0.
          5    1    3    3  502    0 -0.62840989045E+02  0.49066888787E+02  0.16098318848E+03  0.17969309628E+03  0.41800000000E+01 0.  1.
         -5    1    3    3    0  502 -0.74917731786E+01 -0.49552954653E+02  0.27842947476E+02  0.57483250642E+02  0.41800000000E+01 0.  1.
        -11    1    1    2    0    0  0.11864806835E+02 -0.38122618561E+02  0.32982037933E+02  0.51787281386E+02  0.00000000000E+00 0.  1.
         11    1    1    2    0    0  0.58467955389E+02  0.38608684426E+02  0.33384291659E+02  0.77612133395E+02  0.00000000000E+00 0. -1.
</event>
<event>
 7    1  0.2530765E-009  0.9370315E+02  0.7561462E-02  0.1294124E+00
          2   -1    0    0  501    0  0.00000000000E+00  0.00000000000E+00  0.14727470213E+03  0.14727470213E+03  0.00000000000E+00 0. -1.
         -2   -1    0    0    0  501 -0.00000000000E+00 -0.00000000000E+00 -0.94402261130E+02  0.94402261130E+02  0.00000000000E+00 0.  1.
         25    2    1    2    0    0 -0.49084870121E+02  0.18085395705E+02  0.22553167918E+02  0.13745106286E+03  0.12509094006E+03 0.  0.
          5    1    3    3  502    0  0.18996369184E+02 -0.36055004315E+02  0.28901061115E+02  0.50135507496E+02  0.41800000000E+01 0. -1.
         -5    1    3    3    0  502 -0.68081239305E+02  0.54140400021E+02 -0.63478931962E+01  0.87315555359E+02  0.41800000000E+01 0. -1.
        -11    1    1    2    0    0  0.15832162251E+02  0.73834030460E+01 -0.27650974629E+02  0.32707008424E+02  0.00000000000E+00 0.  1.
         11    1    1    2    0    0  0.33252707870E+02 -0.25468798751E+02  0.57970247707E+02  0.71518891978E+02  0.00000000000E+00 0. -1.
</event>
<event>
 7    1  0.2530765E-009  0.1260833E+03  0.7561462E-02  0.1233386E+00
          2   -1    0    0  501    0  0.00000000000E+00  0.00000000000E+00  0.42399052659E+02  0.42399052659E+02  0.00000000000E+00 0. -1.
         -2   -1    0    0    0  501 -0.00000000000E+00 -0.00000000000E+00 -0.41001219419E+03  0.41001219419E+03  0.00000000000E+00 0.  1.
         25    2    1    2    0    0  0.17396643302E+02  0.63693064841E+02 -0.26111954053E+03  0.29696838567E+03  0.12508939976E+03 0.  0.
          5    1    3    3  502    0 -0.47805305974E+02  0.56833621058E+02 -0.11794577749E+03  0.13944205459E+03  0.41800000000E+01 0. -1.
         -5    1    3    3    0  502  0.65201949276E+02  0.68594437836E+01 -0.14317376304E+03  0.15752633108E+03  0.41800000000E+01 0. -1.
        -11    1    1    2    0    0 -0.53225709878E+01 -0.86297476587E+02 -0.90859450686E+02  0.12542337903E+03  0.00000000000E+00 0.  1.
         11    1    1    2    0    0 -0.12074072314E+02  0.22604411746E+02 -0.15634150307E+02  0.30019482148E+02  0.00000000000E+00 0. -1.
</event>
<event>
 7    1  0.2530765E-009  0.1143102E+03  0.7561462E-02  0.1252790E+00
          1   -1    0    0  501    0  0.00000000000E+00  0.00000000000E+00  0.13666555650E+04  0.13666555650E+04  0.00000000000E+00 0. -1.
         -1   -1    0    0    0  501 -0.00000000000E+00 -0.00000000000E+00 -0.11348406407E+02  0.11348406407E+02  0.00000000000E+00 0.  1.
         25    2    1    2    0    0 -0.80652797988E+01  0.62749832919E+02  0.82351111607E+03  0.83535606881E+03  0.12508642266E+03 0.  0.
          5    1    3    3  502    0 -0.20008700196E+02 -0.25090339435E+02  0.76114133978E+02  0.82708566713E+02  0.41800000000E+01 0. -1.
         -5    1    3    3    0  502  0.11943420397E+02  0.87840172355E+02  0.74739698209E+03  0.75264750210E+03  0.41800000000E+01 0. -1.
        -11    1    1    2    0    0  0.39554224688E+02 -0.26274447325E+01  0.17229767692E+03  0.17679912225E+03  0.00000000000E+00 0.  1.
         11    1    1    2    0    0 -0.31488944889E+02 -0.60122388187E+02  0.35949836559E+03  0.36584878034E+03  0.00000000000E+00 0. -1.
</event>
<event>
 7    1  0.2530765E-009  0.1121973E+03  0.7561462E-02  0.1256554E+00
         -2   -1    0    0    0  501 -0.00000000000E+00  0.00000000000E+00  0.45057789679E+02  0.45057789679E+02  0.00000000000E+00 0.  1.
          2   -1    0    0  501    0  0.00000000000E+00 -0.00000000000E+00 -0.30502845190E+03  0.30502845190E+03  0.00000000000E+00 0. -1.
         25    2    1    2    0    0  0.39635312052E+02 -0.90739848526E+01 -0.18342330828E+03  0.22570915220E+03  0.12508883324E+03 0.  0.
          5    1    3    3  502    0  0.20949700762E+02 -0.64409875291E+02 -0.12903904652E+03  0.14579461555E+03  0.41800000000E+01 0.  1.
         -5    1    3    3    0  502  0.18685611290E+02  0.55335890438E+02 -0.54384261764E+02  0.79914536647E+02  0.41800000000E+01 0.  1.
        -11    1    1    2    0    0 -0.13133314737E+02  0.48626616384E+02 -0.41372788549E+02  0.65182355045E+02  0.00000000000E+00 0. -1.
         11    1    1    2    0    0 -0.26501997315E+02 -0.39552631531E+02 -0.35174565386E+02  0.59194734334E+02  0.00000000000E+00 0.  1.
</event>
<event>
 7    1  0.2530765E-009  0.9534152E+02  0.7561462E-02  0.1290409E+00
          2   -1    0    0  501    0  0.00000000000E+00  0.00000000000E+00  0.73646331145E+03  0.73646331145E+03  0.00000000000E+00 0.  1.
         -2   -1    0    0    0  501 -0.00000000000E+00 -0.00000000000E+00 -0.13648260955E+02  0.13648260955E+02  0.00000000000E+00 0. -1.
         25    2    1    2    0    0 -0.24395348958E+02 -0.36931638365E+02  0.56826000279E+03  0.58354619048E+03  0.12509055395E+03 0.  0.
          5    1    3    3  502    0  0.40753823013E+02  0.16614975172E+02  0.13247259132E+03  0.13965454286E+03  0.41800000000E+01 0. -1.
         -5    1    3    3    0  502 -0.65149171972E+02 -0.53546613537E+02  0.43578741147E+03  0.44389164762E+03  0.41800000000E+01 0. -1.
        -11    1    1    2    0    0  0.33849478998E+02  0.12914674300E+02  0.86543514497E+02  0.93820871570E+02  0.00000000000E+00 0. -1.
         11    1    1    2    0    0 -0.94541300396E+01  0.24016964064E+02  0.68011533211E+02  0.72744510359E+02  0.00000000000E+00 0.  1.
</event>
<event>
 7    1  0.2530765E-009  0.9898795E+02  0.7561462E-02  0.1282439E+00
          2   -1    0    0  501    0  0.00000000000E+00  0.00000000000E+00  0.27191019880E+03  0.27191019880E+03  0.00000000000E+00 0. -1.
         -2   -1    0    0    0  501 -0.00000000000E+00 -0.00000000000E+00 -0.76178441922E+02  0.76178441922E+02  0.00000000000E+00 0.  1.
         25    2    1    2    0    0 -0.54241784076E+01  0.78428209751E+02  0.17072426272E+03  0.22577203235E+03  0.12508329590E+03 0.  0.
          5    1    3    3  502    0 -0.14575772965E+02  0.64593126937E+02  0.13611676763E+02  0.67730903946E+02  0.41800000000E+01 0.  1.
         -5    1    3    3    0  502  0.91515945575E+01  0.13835082814E+02  0.15711258596E+03  0.15804112840E+03  0.41800000000E+01 0.  1.
        -11    1    1    2    0    0  0.11052951013E+02 -0.95709410759E+02  0.67917679124E+01  0.96584611328E+02  0.00000000000E+00 0.  1.
         11    1    1    2    0    0 -0.56287726058E+01  0.17281201009E+02  0.18215726236E+02  0.25731997039E+02  0.00000000000E+00 0. -1.
</event>
<event>
 7    1  0.2530765E-009  0.1131683E+03  0.7561462E-02  0.1254813E+00
         -2   -1    0    0    0  501 -0.00000000000E+00  0.00000000000E+00  0.19012343581E+02  0.19012343581E+02  0.00000000000E+00 0. -1.
          2   -1    0    0  501    0  0.00000000000E+00 -0.00000000000E+00 -0.69532627486E+03  0.69532627486E+03  0.00000000000E+00 0.  1.
         25    2    1    2    0    0 -0.24194264474E+02  0.28191533805E+02 -0.34267907048E+03  0.36668443563E+03  0.12509358487E+03 0.  0.
          5    1    3    3  502    0  0.50336724193E+02  0.13395276387E+01 -0.11608658940E+03  0.12660627462E+03  0.41800000000E+01 0.  1.
         -5    1    3    3    0  502 -0.74530988667E+02  0.26852006166E+02 -0.22659248109E+03  0.24007816101E+03  0.41800000000E+01 0.  1.
        -11    1    1    2    0    0 -0.32181574559E+02 -0.23615687240E+02 -0.11143896925E+03  0.11837228684E+03  0.00000000000E+00 0. -1.
         11    1    1    2    0    0  0.56375839034E+02 -0.45758465646E+01 -0.22219589155E+03  0.22928189597E+03  0.00000000000E+00 0.  1.
</event>
<event>
 7    1  0.2530765E-009  0.1780933E+03  0.7561462E-02  0.1169661E+00
          2   -1    0    0  501    0  0.00000000000E+00  0.00000000000E+00  0.36386562338E+03  0.36386562338E+03  0.00000000000E+00 0. -1.
         -2   -1    0    0    0  501 -0.00000000000E+00 -0.00000000000E+00 -0.10026006625E+03  0.10026006625E+03  0.00000000000E+00 0.  1.
         25    2    1    2    0    0  0.12140649403E+03  0.68681472072E+02  0.22072337244E+03  0.28952262549E+03  0.12509141509E+03 0.  0.
          5    1    3    3  502    0 -0.11063200507E+02  0.52047496035E+02  0.54548755925E+02  0.76317595756E+02  0.41800000000E+01 0. -1.
         -5    1    3    3    0  502  0.13246969454E+03  0.16633976037E+02  0.16617461652E+03  0.21320502974E+03  0.41800000000E+01 0. -1.
        -11    1    1    2    0    0  0.36243066348E+01 -0.41023963225E+02  0.11538317963E+02  0.42769544523E+02  0.00000000000E+00 0. -1.
         11    1    1    2    0    0 -0.12503080067E+03 -0.27657508847E+02  0.31343866726E+02  0.13183351961E+03  0.00000000000E+00 0.  1.
</event>
<event>
 7    1  0.2530765E-009  0.1542691E+03  0.7561462E-02  0.1195323E+00
          1   -1    0    0  501    0  0.00000000000E+00  0.00000000000E+00  0.92280394282E+02  0.92280394282E+02  0.00000000000E+00 0. -1.
         -1   -1    0    0    0  501 -0.00000000000E+00 -0.00000000000E+00 -0.37854599602E+03  0.37854599602E+03  0.00000000000E+00 0.  1.
         25    2    1    2    0    0 -0.29873826394E+02 -0.14643136522E+03 -0.18240112093E+03  0.26692824656E+03  0.12508369067E+03 0.  0.
          5    1    3    3  502    0 -0.44512476792E+02 -0.89613569386E+02 -0.31525845606E+02  0.10499192231E+03  0.41800000000E+01 0. -1.
         -5    1    3    3    0  502  0.14638650398E+02 -0.56817795835E+02 -0.15087527533E+03  0.16193632426E+03  0.41800000000E+01 0. -1.
        -11    1    1    2    0    0  0.68671155303E+01  0.22655727036E+02  0.17180707475E+02  0.29250913705E+02  0.00000000000E+00 0. -1.
         11    1    1    2    0    0  0.23006710864E+02  0.12377563819E+03 -0.12104518828E+03  0.17464723003E+03  0.00000000000E+00 0.  1.
</event>
<event>
 7    1  0.2530765E-009  0.1169186E+03  0.7561462E-02  0.1248269E+00
          1   -1    0    0  501    0  0.00000000000E+00  0.00000000000E+00  0.37061872938E+03  0.37061872938E+03  0.00000000000E+00 0. -1.
         -1   -1    0    0    0  501 -0.00000000000E+00 -0.00000000000E+00 -0.44028486235E+02  0.44028486235E+02  0.00000000000E+00 0.  1.
         25    2    1    2    0    0  0.63756807155E+02 -0.14234103011E+02  0.15721383010E+03  0.21125961233E+03  0.12508755047E+03 0.  0.
          5    1    3    3  502    0 -0.18912296257E+02 -0.36968112823E+02  0.99289610173E+02  0.10770429612E+03  0.41800000000E+01 0. -1.
         -5    1    3    3    0  502  0.82669103412E+02  0.22734009812E+02  0.57924219926E+02  0.10355531621E+03  0.41800000000E+01 0. -1.
        -11    1    1    2    0    0  0.85901330796E+01  0.30857142720E+02  0.23555264106E+02  0.39759327337E+02  0.00000000000E+00 0.  1.
         11    1    1    2    0    0 -0.72346940235E+02 -0.16623039709E+02  0.14582114894E+03  0.16362827595E+03  0.00000000000E+00 0. -1.
</event>
<event>
 7    1  0.2530765E-009  0.1491670E+03  0.7561462E-02  0.1201500E+00
         -1   -1    0    0    0  501 -0.00000000000E+00  0.00000000000E+00  0.89705040677E+02  0.89705040677E+02  0.00000000000E+00 0.  1.
          1   -1    0    0  501    0  0.00000000000E+00 -0.00000000000E+00 -0.39062646594E+03  0.39062646594E+03  0.00000000000E+00 0. -1.
         25    2    1    2    0    0  0.14010979894E+02  0.14542526394E+03 -0.21477705389E+03  0.28830594109E+03  0.12508524230E+03 0.  0.
          5    1    3    3  502    0  0.26715722553E+02  0.92084921085E+02 -0.21261448346E+03  0.23327184463E+03  0.41800000000E+01 0.  1.
         -5    1    3    3    0  502 -0.12704742658E+02  0.53340342854E+02 -0.21625704282E+01  0.55034096455E+02  0.41800000000E+01 0.  1.
        -11    1    1    2    0    0 -0.18737321530E+02 -0.12550684983E+03 -0.27408005009E+02  0.12982393967E+03  0.00000000000E+00 0.  1.
         11    1    1    2    0    0  0.47263416353E+01 -0.19918414111E+02 -0.58736366372E+02  0.62201625867E+02  0.00000000000E+00 0. -1.
</event>
<event>
 7    1  0.2530765E-009  0.2449309E+03  0.7561462E-02  0.1116551E+00
         -1   -1    0    0    0  501 -0.00000000000E+00  0.00000000000E+00  0.44388632527E+03  0.44388632527E+03  0.00000000000E+00 0. -1.
          1   -1    0    0  501    0  0.00000000000E+00 -0.00000000000E+00 -0.16993391714E+03  0.16993391714E+03  0.00000000000E+00 0.  1.
         25    2    1    2    0    0  0.10381144238E+03 -0.21757454320E+03  0.22221961519E+03  0.35091876338E+03  0.12508766406E+03 0.  0.
          5    1    3    3  502    0  0.55157169341E+02 -0.52967410758E+02  0.89254101374E+01  0.77103795486E+02  0.41800000000E+01 0. -1.
         -5    1    3    3    0  502  0.48654273038E+02 -0.16460713244E+03  0.21329420505E+03  0.27381496789E+03  0.41800000000E+01 0. -1.
        -11    1    1    2    0    0 -0.86880906553E+02  0.16704791883E+03  0.77615864497E+02  0.20366030917E+03  0.00000000000E+00 0. -1.
         11    1    1    2    0    0 -0.16930535827E+02  0.50526624373E+02 -0.25883071547E+02  0.59241169862E+02  0.00000000000E+00 0.  1.
</event>
<event>
 7    1  0.2530765E-009  0.2403441E+03  0.7561462E-02  0.1119564E+00
         -1   -1    0    0    0  501 -0.00000000000E+00  0.00000000000E+00  0.85399495066E+03  0.85399495066E+03  0.00000000000E+00 0.  1.
          1   -1    0    0  501    0  0.00000000000E+00 -0.00000000000E+00 -0.74925384120E+02  0.74925384120E+02  0.00000000000E+00 0. -1.
         25    2    1    2    0    0  0.65960558830E+02  0.20742441604E+03  0.27705210857E+03  0.37387293043E+03  0.12508962210E+03 0.  0.
          5    1    3    3  502    0  0.35478015458E+02  0.21158684971E+03  0.21126834855E+03  0.30113032402E+03  0.41800000000E+01 0. -1.
         -5    1    3    3    0  502  0.30482543372E+02 -0.41624336632E+01  0.65783760024E+02  0.72742606410E+02  0.41800000000E+01 0. -1.
        -11    1    1    2    0    0 -0.72483893395E+02 -0.81915265577E+02  0.20070690343E+03  0.22857665371E+03  0.00000000000E+00 0.  1.
         11    1    1    2    0    0  0.65233345656E+01 -0.12550915047E+03  0.30131055454E+03  0.32647075064E+03  0.00000000000E+00 0. -1.
</event>
<event>
 7    1  0.2530765E-009  0.1137198E+03  0.7561462E-02  0.1253832E+00
          2   -1    0    0  501    0  0.00000000000E+00  0.00000000000E+00  0.35497096272E+03  0.35497096272E+03  0.00000000000E+00 0. -1.
         -2   -1    0    0    0  501 -0.00000000000E+00 -0.00000000000E+00 -0.60910210210E+02  0.60910210210E+02  0.00000000000E+00 0.  1.
         25    2    1    2    0    0 -0.87626329726E+02  0.51206418541E+01  0.96176600938E+02  0.18056094050E+03  0.12509084712E+03 0.  0.
          5    1    3    3  502    0  0.21698873042E+02  0.16713529585E+02 -0.82147460916E+01  0.28898747652E+02  0.41800000000E+01 0.  1.
         -5    1    3    3    0  502 -0.10932520277E+03 -0.11592887731E+02  0.10439134703E+03  0.15166219285E+03  0.41800000000E+01 0.  1.
        -11    1    1    2    0    0  0.22044499029E+02 -0.94633243479E+01 -0.27950015475E+01  0.24152152675E+02  0.00000000000E+00 0.  1.
         11    1    1    2    0    0  0.65581830697E+02  0.43426824938E+01  0.20067915312E+03  0.21116807975E+03  0.00000000000E+00 0. -1.
</event>
<event>
 7    1  0.2530765E-009  0.1033924E+03  0.7561462E-02  0.1273320E+00
          1   -1    0    0  501    0  0.00000000000E+00  0.00000000000E+00  0.60370784189E+02  0.60370784189E+02  0.00000000000E+00 0. -1.
         -1   -1    0    0    0  501 -0.00000000000E+00 -0.00000000000E+00 -0.28765359873E+03  0.28765359873E+03  0.00000000000E+00 0.  1.
         25    2    1    2    0    0  0.15281422489E+02  0.70292712203E+02 -0.14133527734E+03  0.20198341051E+03  0.12508816985E+03 0.  0.
          5    1    3    3  502    0 -0.20050993225E+00 -0.12093668662E+02  0.17886925803E+02  0.21993443127E+02  0.41800000000E+01 0. -1.
         -5    1    3    3    0  502  0.15481932421E+02  0.82386380865E+02 -0.15922220314E+03  0.17998996738E+03  0.41800000000E+01 0. -1.
        -11    1    1    2    0    0  0.10723794034E+02  0.16372718404E+02 -0.40064120425E+02  0.44589229774E+02  0.00000000000E+00 0.  1.
         11    1    1    2    0    0 -0.26005216523E+02 -0.86665430607E+02 -0.45883416771E+02  0.10145174263E+03  0.00000000000E+00 0. -1.
</event>
<event>
 7    1  0.2530765E-009  0.8344856E+02  0.7561462E-02  0.1319540E+00
         -2   -1    0    0    0  501 -0.00000000000E+00  0.00000000000E+00  0.47996640216E+02  0.47996640216E+02  0.00000000000E+00 0.  1.
          2   -1    0    0  501    0  0.00000000000E+00 -0.00000000000E+00 -0.37059888825E+03  0.37059888825E+03  0.00000000000E+00 0. -1.
         25    2    1    2    0    0  0.46834917588E+02 -0.12084269302E+02 -0.27231395361E+03  0.30354864895E+03  0.12508938356E+03 0.  0.
          5    1    3    3  502    0  0.54856920105E+02 -0.52938157181E+02 -0.23634320020E+03  0.24836930336E+03  0.41800000000E+01 0.  1.
         -5    1    3    3    0  502 -0.80220025165E+01  0.40853887880E+02 -0.35970753406E+02  0.55179345591E+02  0.41800000000E+01 0.  1.
        -11    1    1    2    0    0 -0.18501294555E+02  0.76743423560E+01 -0.74730652184E+02  0.77368364379E+02  0.00000000000E+00 0. -1.
         11    1    1    2    0    0 -0.28333623033E+02  0.44099269458E+01  0.24442357760E+02  0.37678515135E+02  0.00000000000E+00 0.  1.
</event>
<event>
 7    1  0.2530765E-009  0.1357241E+03  0.7561462E-02  0.1219201E+00
         -2   -1    0    0    0  501 -0.00000000000E+00  0.00000000000E+00  0.19609353236E+02  0.19609353236E+02  0.00000000000E+00 0.  1.
          2   -1    0    0  501    0  0.00000000000E+00 -0.00000000000E+00 -0.23408770037E+04  0.23408770037E+04  0.00000000000E+00 0. -1.
         25    2    1    2    0    0  0.52154056977E+02  0.70122333403E+02 -0.21008326080E+04  0.21063670676E+04  0.12508952465E+03 0.  0.
          5    1    3    3  502    0  0.28364570386E+02 -0.33031312002E+02 -0.81730264628E+03  0.81847217695E+03  0.41800000000E+01 0.  1.
         -5    1    3    3    0  502  0.23789486591E+02  0.10315364540E+03 -0.12835299617E+04  0.12878948906E+04  0.41800000000E+01 0.  1.
        -11    1    1    2    0    0 -0.47552150216E+01 -0.74051636374E+02 -0.99153671153E+02  0.12384549819E+03  0.00000000000E+00 0.  1.
         11    1    1    2    0    0 -0.47398841955E+02  0.39293029712E+01 -0.12128137127E+03  0.13027379114E+03  0.00000000000E+00 0. -1.
</event>
<event>
 7    1  0.2530765E-009  0.8799443E+02  0.7561462E-02  0.1307782E+00
          4   -1    0    0  501    0  0.00000000000E+00  0.00000000000E+00  0.14203402773E+03  0.14203402773E+03  0.00000000000E+00 0. -1.
         -4   -1    0    0    0  501 -0.00000000000E+00 -0.00000000000E+00 -0.11034197561E+03  0.11034197561E+03  0.00000000000E+00 0.  1.
         25    2    1    2    0    0 -0.31609969370E+02  0.13693581564E+02  0.66115925804E+02  0.14560721675E+03  0.12507374459E+03 0.  0.
          5    1    3    3  502    0 -0.41811127746E+02 -0.36817939403E+02 -0.67381896311E+01  0.56272610254E+02  0.41800000000E+01 0. -1.
         -5    1    3    3    0  502  0.10201158377E+02  0.50511520966E+02  0.72854115435E+02  0.89334606499E+02  0.41800000000E+01 0. -1.
        -11    1    1    2    0    0  0.11387546419E+02  0.23483788608E+02 -0.54123144706E+02  0.60087264322E+02  0.00000000000E+00 0.  1.
         11    1    1    2    0    0  0.20222422951E+02 -0.37177370172E+02  0.19699271021E+02  0.46681522272E+02  0.00000000000E+00 0. -1.
</event>
<event>
 7    1  0.2530765E-009  0.9506010E+02  0.7561462E-02  0.1291041E+00
          3   -1    0    0  501    0  0.00000000000E+00  0.00000000000E+00  0.43649140200E+02  0.43649140200E+02  0.00000000000E+00 0. -1.
         -3   -1    0    0    0  501 -0.00000000000E+00 -0.00000000000E+00 -0.27130610251E+03  0.27130610251E+03  0.00000000000E+00 0.  1.
         25    2    1    2    0    0 -0.11371083565E+02 -0.77488299147E+01 -0.14069583478E+03  0.18876587888E+03  0.12509153927E+03 0.  0.
          5    1    3    3  502    0  0.51539369940E+02 -0.28522787379E+02 -0.73855058348E+02  0.94561610061E+02  0.41800000000E+01 0. -1.
         -5    1    3    3    0  502 -0.62910453505E+02  0.20773957464E+02 -0.66840776434E+02  0.94204268816E+02  0.41800000000E+01 0. -1.
        -11    1    1    2    0    0  0.31479709482E+02  0.23381332012E+02 -0.40117826260E+01  0.39417676182E+02  0.00000000000E+00 0.  1.
         11    1    1    2    0    0 -0.20108625917E+02 -0.15632502098E+02 -0.82949344901E+02  0.86771687650E+02  0.00000000000E+00 0. -1.
</event>
<event>
 7    1  0.2530765E-009  0.1384678E+03  0.7561462E-02  0.1215406E+00
         -2   -1    0    0    0  501 -0.00000000000E+00  0.00000000000E+00  0.37951906290E+02  0.37951906290E+02  0.00000000000E+00 0.  1.
          2   -1    0    0  501    0  0.00000000000E+00 -0.00000000000E+00 -0.76457091753E+03  0.76457091753E+03  0.00000000000E+00 0. -1.
         25    2    1    2    0    0  0.41091512114E+02 -0.11987997749E+03 -0.49470319294E+03  0.52577462611E+03  0.12509191413E+03 0.  0.
          5    1    3    3  502    0  0.28174867103E+02 -0.93070034790E+02 -0.14413147268E+03  0.17391724564E+03  0.41800000000E+01 0.  1.
         -5    1    3    3    0  502  0.12916645011E+02 -0.26809942701E+02 -0.35057172026E+03  0.35185738047E+03  0.41800000000E+01 0.  1.
        -11    1    1    2    0    0  0.23865983552E+02  0.40199209839E+02 -0.91148234679E+02  0.10243809022E+03  0.00000000000E+00 0. -1.
         11    1    1    2    0    0 -0.64957495666E+02  0.79680767652E+02 -0.14076758362E+03  0.17431010749E+03  0.00000000000E+00 0.  1.
</event>
<event>
 7    1  0.2530765E-009  0.9807399E+02  0.7561462E-02  0.1284399E+00
         -2   -1    0    0    0  501 -0.00000000000E+00  0.00000000000E+00  0.25882287216E+02  0.25882287216E+02  0.00000000000E+00 0.  1.
          2   -1    0    0  501    0  0.00000000000E+00 -0.00000000000E+00 -0.54568232995E+03  0.54568232995E+03  0.00000000000E+00 0. -1.
         25    2    1    2    0    0  0.15106573645E+00  0.68610777979E+01 -0.42366149507E+03  0.44179715977E+03  0.12509424755E+03 0.  0.
          5    1    3    3  502    0 -0.56609800406E+02  0.89561076003E+01 -0.12264990922E+03  0.13544502204E+03  0.41800000000E+01 0. -1.
         -5    1    3    3    0  502  0.56760866143E+02 -0.20950298024E+01 -0.30101158585E+03  0.30635213773E+03  0.41800000000E+01 0. -1.
        -11    1    1    2    0    0 -0.39015707937E+02 -0.15386424924E+02 -0.71722023053E+02  0.83084391606E+02  0.00000000000E+00 0. -1.
         11    1    1    2    0    0  0.38864642201E+02  0.85253471257E+01 -0.24416524613E+02  0.46683065786E+02  0.00000000000E+00 0.  1.
</event>
<event>
 7    1  0.2530765E-009  0.9290646E+02  0.7561462E-02  0.1295962E+00
         -2   -1    0    0    0  501 -0.00000000000E+00  0.00000000000E+00  0.15215260491E+03  0.15215260491E+03  0.00000000000E+00 0. -1.
          2   -1    0    0  501    0  0.00000000000E+00 -0.00000000000E+00 -0.91919056094E+02  0.91919056094E+02  0.00000000000E+00 0.  1.
         25    2    1    2    0    0 -0.16167325307E+02  0.80648751268E+01  0.79282813074E+02  0.14919701916E+03  0.12509021328E+03 0.  0.
          5    1    3    3  502    0  0.49488865382E+02 -0.18018488900E+02  0.49553921860E+02  0.72435331923E+02  0.41800000000E+01 0. -1.
         -5    1    3    3    0  502 -0.65656190689E+02  0.26083364027E+02  0.29728891214E+02  0.76761687238E+02  0.41800000000E+01 0. -1.
        -11    1    1    2    0    0  0.30359951229E+02 -0.25556071883E+02 -0.45340070779E+02  0.60254140662E+02  0.00000000000E+00 0.  1.
         11    1    1    2    0    0 -0.14192625922E+02  0.17491196756E+02  0.26290806522E+02  0.34620501181E+02  0.00000000000E+00 0. -1.
</event>
<event>
 7    1  0.2652660E-009  0.1087599E+03  0.7561462E-02  0.1262884E+00
         -2   -1    0    0    0  501 -0.00000000000E+00  0.00000000000E+00  0.93405279808E+01  0.93405279808E+01  0.00000000000E+00 0.  1.
          2   -1    0    0  501    0  0.00000000000E+00 -0.00000000000E+00 -0.20499544028E+04  0.20499544028E+04  0.00000000000E+00 0. -1.
         25    2    1    2    0    0 -0.30659374255E+01 -0.13451703243E+02 -0.17438150834E+04  0.17483503568E+04  0.12509027377E+03 0.  0.
          5    1    3    3  502    0 -0.32738646407E+02 -0.60640360340E+02 -0.10666288345E+04  0.10688608962E+04  0.41800000000E+01 0. -1.
         -5    1    3    3    0  502  0.29672708982E+02  0.47188657098E+02 -0.67718624889E+03  0.67948946063E+03  0.41800000000E+01 0. -1.
        -11    1    1    2    0    0  0.31040597610E+02  0.42253120074E+02 -0.17647487566E+03  0.18409841551E+03  0.00000000000E+00 0. -1.
         11    1    1    2    0    0 -0.27974660184E+02 -0.28801416832E+02 -0.12032391572E+03  0.12684615847E+03  0.00000000000E+00 0.  1.
</event>
<event>
 7    1  0.2530765E-009  0.9784963E+02  0.7561462E-02  0.1284884E+00
          1   -1    0    0  501    0  0.00000000000E+00  0.00000000000E+00  0.13740318302E+03  0.13740318302E+03  0.00000000000E+00 0. -1.
         -1   -1    0    0    0  501 -0.00000000000E+00 -0.00000000000E+00 -0.11143569642E+03  0.11143569642E+03  0.00000000000E+00 0.  1.
         25    2    1    2    0    0  0.50442276954E+02 -0.19729431931E+02 -0.10689642240E+02  0.13673240160E+03  0.12509119636E+03 0.  0.
          5    1    3    3  502    0  0.90400959563E+02 -0.17908594316E+02  0.75717308168E+01  0.92562707111E+02  0.41800000000E+01 0.  1.
         -5    1    3    3    0  502 -0.39958682609E+02 -0.18208376154E+01 -0.18261373057E+02  0.44169694491E+02  0.41800000000E+01 0.  1.
        -11    1    1    2    0    0 -0.38782462161E+01  0.16058630570E+02  0.58323080146E+02  0.60617671410E+02  0.00000000000E+00 0. -1.
         11    1    1    2    0    0 -0.46564030738E+02  0.36708013614E+01 -0.21665951306E+02  0.51488806426E+02  0.00000000000E+00 0.  1.
</event>
<event>
 7    1  0.2530765E-009  0.1431112E+03  0.7561462E-02  0.1209203E+00
         -2   -1    0    0    0  501 -0.00000000000E+00  0.00000000000E+00  0.15987671192E+03  0.15987671192E+03  0.00000000000E+00 0.  1.
          2   -1    0    0  501    0  0.00000000000E+00 -0.00000000000E+00 -0.19361636519E+03  0.19361636519E+03  0.00000000000E+00 0. -1.
         25    2    1    2    0    0  0.14202889937E+02 -0.11618310317E+03  0.51596142459E+02  0.17892532330E+03  0.12510744924E+03 0.  0.
          5    1    3    3  502    0 -0.41227886296E+02 -0.27004032366E+02 -0.18276976609E+02  0.52730225170E+02  0.41800000000E+01 0. -1.
         -5    1    3    3    0  502  0.55430776233E+02 -0.89179070804E+02  0.69873119068E+02  0.12619509813E+03  0.41800000000E+01 0. -1.
        -11    1    1    2    0    0  0.22863389435E+02  0.28915717681E+02 -0.69179794865E+02  0.78388119783E+02  0.00000000000E+00 0. -1.
         11    1    1    2    0    0 -0.37066279372E+02  0.87267385489E+02 -0.16156000863E+02  0.96179634021E+02  0.00000000000E+00 0.  1.
</event>
<event>
 7    1  0.2530765E-009  0.2058565E+03  0.7561462E-02  0.1144890E+00
          2   -1    0    0  501    0  0.00000000000E+00  0.00000000000E+00  0.14204732488E+04  0.14204732488E+04  0.00000000000E+00 0. -1.
         -2   -1    0    0    0  501 -0.00000000000E+00 -0.00000000000E+00 -0.39706635813E+02  0.39706635813E+02  0.00000000000E+00 0.  1.
         25    2    1    2    0    0  0.17546541536E+03  0.43703247435E+02  0.37938416333E+03  0.43849460460E+03  0.12508832503E+03 0.  0.
          5    1    3    3  502    0  0.82229359556E+02 -0.42378268094E+02  0.17153266915E+03  0.19493207578E+03  0.41800000000E+01 0.  1.
         -5    1    3    3    0  502  0.93236055800E+02  0.86081515529E+02  0.20785149418E+03  0.24356252883E+03  0.41800000000E+01 0.  1.
        -11    1    1    2    0    0 -0.14295427536E+03 -0.70174443143E+01  0.86499995319E+03  0.87676113531E+03  0.00000000000E+00 0. -1.
         11    1    1    2    0    0 -0.32511140000E+02 -0.36685803121E+02  0.13638249643E+03  0.14492414466E+03  0.00000000000E+00 0.  1.
</event>
<event>
 7    1  0.2530765E-009  0.7539029E+02  0.7561462E-02  0.1342667E+00
          1   -1    0    0  501    0  0.00000000000E+00  0.00000000000E+00  0.50346841151E+03  0.50346841151E+03  0.00000000000E+00 0. -1.
         -1   -1    0    0    0  501 -0.00000000000E+00 -0.00000000000E+00 -0.35221219260E+02  0.35221219260E+02  0.00000000000E+00 0.  1.
         25    2    1    2    0    0 -0.94912063152E+01 -0.46765771917E+02  0.13563879654E+03  0.19058325960E+03  0.12508787028E+03 0.  0.
          5    1    3    3  502    0 -0.10755972940E+02 -0.14312104472E+02  0.15260114951E+03  0.15370462101E+03  0.41800000000E+01 0. -1.
         -5    1    3    3    0  502  0.12647666249E+01 -0.32453667445E+02 -0.16962352974E+02  0.36878638582E+02  0.41800000000E+01 0. -1.
        -11    1    1    2    0    0  0.80279308721E+01  0.72967137690E+02  0.27786683390E+03  0.28739977077E+03  0.00000000000E+00 0. -1.
         11    1    1    2    0    0  0.14632754432E+01 -0.26201365772E+02  0.54741561819E+02  0.60706600413E+02  0.00000000000E+00 0.  1.
</event>
<event>
 7    1  0.2530765E-009  0.9528222E+02  0.7561462E-02  0.1290542E+00
          2   -1    0    0  501    0  0.00000000000E+00  0.00000000000E+00  0.79652835063E+02  0.79652835063E+02  0.00000000000E+00 0. -1.
         -2   -1    0    0    0  501 -0.00000000000E+00 -0.00000000000E+00 -0.23981808204E+03  0.23981808204E+03  0.00000000000E+00 0.  1.
         25    2    1    2    0    0  0.35789571453E+02 -0.32004515382E+02 -0.16763330308E+03  0.21460197883E+03  0.12509157680E+03 0.  0.
          5    1    3    3  502    0  0.58324051459E+02  0.62199735145E+01 -0.15856828715E+03  0.16912054026E+03  0.41800000000E+01 0.  1.
         -5    1    3    3    0  502 -0.22534480005E+02 -0.38224488897E+02 -0.90650159321E+01  0.45481438570E+02  0.41800000000E+01 0.  1.
        -11    1    1    2    0    0 -0.50005065448E+02 -0.23008371062E+01  0.32863415379E+02  0.59881587255E+02  0.00000000000E+00 0. -1.
         11    1    1    2    0    0  0.14215493995E+02  0.34305352489E+02 -0.25395359277E+02  0.44987351019E+02  0.00000000000E+00 0.  1.
</event>
<event>
 7    1  0.2530765E-009  0.1168293E+03  0.7561462E-02  0.1248421E+00
          2   -1    0    0  501    0  0.00000000000E+00  0.00000000000E+00  0.68254573350E+03  0.68254573350E+03  0.00000000000E+00 0. -1.
         -2   -1    0    0    0  501 -0.00000000000E+00 -0.00000000000E+00 -0.32853584559E+02  0.32853584559E+02  0.00000000000E+00 0.  1.
         25    2    1    2    0    0 -0.94402760906E+02  0.35490975979E+01  0.27441496543E+03  0.31603089282E+03  0.12508986612E+03 0.  0.
          5    1    3    3  502    0 -0.10378645332E+03 -0.54071666616E+01  0.28190411994E+03  0.30048006686E+03  0.41800000000E+01 0.  1.
         -5    1    3    3    0  502  0.93836924192E+01  0.89562642596E+01 -0.74891545042E+01  0.15550825962E+02  0.41800000000E+01 0.  1.
        -11    1    1    2    0    0 -0.68397518018E+01 -0.12636766693E+02  0.47236170823E+01  0.15125562321E+02  0.00000000000E+00 0.  1.
         11    1    1    2    0    0  0.10124251271E+03  0.90876690954E+01  0.37055356643E+03  0.38424286292E+03  0.00000000000E+00 0. -1.
</event>
<event>
 7    1  0.2530765E-009  0.9044407E+02  0.7561462E-02  0.1301780E+00
         -2   -1    0    0    0  501 -0.00000000000E+00  0.00000000000E+00  0.51756940124E+02  0.51756940124E+02  0.00000000000E+00 0.  1.
          2   -1    0    0  501    0  0.00000000000E+00 -0.00000000000E+00 -0.25755721007E+03  0.25755721007E+03  0.00000000000E+00 0. -1.
         25    2    1    2    0    0 -0.15680137824E+02 -0.29270121846E+02 -0.79524745957E+02  0.15190475809E+03  0.12509301961E+03 0.  0.
          5    1    3    3  502    0  0.34507876601E+02  0.14295778668E+02  0.11333831124E+02  0.39256731437E+02  0.41800000000E+01 0. -1.
         -5    1    3    3    0  502 -0.50188014424E+02 -0.43565900514E+02 -0.90858577081E+02  0.11264802665E+03  0.41800000000E+01 0. -1.
        -11    1    1    2    0    0  0.14753011103E+02 -0.21422737330E+02 -0.57293570730E+01  0.26634761943E+02  0.00000000000E+00 0.  1.
         11    1    1    2    0    0  0.92712672084E+00  0.50692859176E+02 -0.12054616691E+03  0.13077463016E+03  0.00000000000E+00 0. -1.
</event>
<event>
 7    1  0.2530765E-009  0.1412132E+03  0.7561462E-02  0.1211706E+00
          2   -1    0    0  501    0  0.00000000000E+00  0.00000000000E+00  0.58738368390E+02  0.58738368390E+02  0.00000000000E+00 0. -1.
         -2   -1    0    0    0  501 -0.00000000000E+00 -0.00000000000E+00 -0.48353182615E+03  0.48353182615E+03  0.00000000000E+00 0.  1.
         25    2    1    2    0    0  0.12793964456E+03  0.12974575908E+02 -0.25445759875E+03  0.31134055226E+03  0.12508947855E+03 0.  0.
          5    1    3    3  502    0  0.40556000846E+02 -0.75326667372E+00 -0.20678960917E+03  0.21077184697E+03  0.41800000000E+01 0. -1.
         -5    1    3    3    0  502  0.87383643718E+02  0.13727842582E+02 -0.47667989582E+02  0.10056870528E+03  0.41800000000E+01 0. -1.
        -11    1    1    2    0    0 -0.10126106824E+03  0.27216492977E+02 -0.95104584289E+02  0.14156067033E+03  0.00000000000E+00 0. -1.
         11    1    1    2    0    0 -0.26678576323E+02 -0.40191068886E+02 -0.75231274722E+02  0.89368971959E+02  0.00000000000E+00 0.  1.
</event>
<event>
 7    1  0.2530765E-009  0.1020220E+03  0.7561462E-02  0.1276101E+00
          2   -1    0    0  501    0  0.00000000000E+00  0.00000000000E+00  0.52988949169E+03  0.52988949169E+03  0.00000000000E+00 0. -1.
         -2   -1    0    0    0  501 -0.00000000000E+00 -0.00000000000E+00 -0.23532494482E+02  0.23532494482E+02  0.00000000000E+00 0.  1.
         25    2    1    2    0    0  0.66909494995E+00  0.21737994309E+02  0.32935564266E+03  0.35298119382E+03  0.12509035036E+03 0.  0.
          5    1    3    3  502    0  0.52690030644E+02 -0.17609366536E+02  0.20574812117E+03  0.21315743215E+03  0.41800000000E+01 0.  1.
         -5    1    3    3    0  502 -0.52020935694E+02  0.39347360845E+02  0.12360752149E+03  0.13982376166E+03  0.41800000000E+01 0.  1.
        -11    1    1    2    0    0 -0.40650962118E+00  0.30615670181E+02  0.24534284580E+02  0.39235387478E+02  0.00000000000E+00 0.  1.
         11    1    1    2    0    0 -0.26258532878E+00 -0.52353664491E+02  0.15246706997E+03  0.16120540488E+03  0.00000000000E+00 0. -1.
</event>
<event>
 7    1  0.2530765E-009  0.1145678E+03  0.7561462E-02  0.1252337E+00
         -1   -1    0    0    0  501 -0.00000000000E+00  0.00000000000E+00  0.25268491029E+03  0.25268491029E+03  0.00000000000E+00 0.  1.
          1   -1    0    0  501    0  0.00000000000E+00 -0.00000000000E+00 -0.16143962584E+03  0.16143962584E+03  0.00000000000E+00 0. -1.
         25    2    1    2    0    0 -0.88713475942E+02 -0.80853886283E+01  0.19659269187E+03  0.24946225473E+03  0.12508907113E+03 0.  0.
          5    1    3    3  502    0 -0.75203616757E+02 -0.27665291926E+02  0.37541696993E+02  0.88587830789E+02  0.41800000000E+01 0.  1.
         -5    1    3    3    0  502 -0.13509859185E+02  0.19579903298E+02  0.15905099487E+03  0.16087442394E+03  0.41800000000E+01 0.  1.
        -11    1    1    2    0    0  0.10490359209E+03 -0.32914644112E+01 -0.77353089838E+02  0.13038058859E+03  0.00000000000E+00 0.  1.
         11    1    1    2    0    0 -0.16190116152E+02  0.11376853040E+02 -0.27994317579E+02  0.34281692823E+02  0.00000000000E+00 0. -1.
</event>
<event>
 7    1  0.2530765E-009  0.7415077E+02  0.7561462E-02  0.1346521E+00
          4   -1    0    0  501    0  0.00000000000E+00  0.00000000000E+00  0.11505810437E+03  0.11505810437E+03  0.00000000000E+00 0. -1.
         -4   -1    0    0    0  501 -0.00000000000E+00 -0.00000000000E+00 -0.10918361039E+03  0.10918361039E+03  0.00000000000E+00 0.  1.
         25    2    1    2    0    0 -0.78047617378E+01 -0.22689987930E+02 -0.12274802535E+02  0.12795969275E+03  0.12508901763E+03 0.  0.
          5    1    3    3  502    0 -0.33975148798E+02  0.36152351896E+02  0.22518342894E+02  0.54642945109E+02  0.41800000000E+01 0. -1.
         -5    1    3    3    0  502  0.26170387060E+02 -0.58842339826E+02 -0.34793145429E+02  0.73316747636E+02  0.41800000000E+01 0. -1.
        -11    1    1    2    0    0  0.16548961753E+02  0.14854321592E+02  0.54084233882E+02  0.58477545773E+02  0.00000000000E+00 0. -1.
         11    1    1    2    0    0 -0.87442000149E+01  0.78356663383E+01 -0.35934937364E+02  0.37804476246E+02  0.00000000000E+00 0.  1.
</event>
<event>
 7    1  0.3090004E-009  0.8333633E+02  0.7561462E-02  0.1319841E+00
          1   -1    0    0  501    0  0.00000000000E+00  0.00000000000E+00  0.24957282782E+03  0.24957282782E+03  0.00000000000E+00 0. -1.
         -1   -1    0    0    0  501 -0.00000000000E+00 -0.00000000000E+00 -0.80382069774E+02  0.80382069774E+02  0.00000000000E+00 0.  1.
         25    2    1    2    0    0 -0.41050932397E+02 -0.16604010650E+02  0.16102932033E+00  0.13270101108E+03  0.12509460496E+03 0.  0.
          5    1    3    3  502    0 -0.28968663408E+02 -0.54768355442E+02  0.41747458621E+02  0.74826993250E+02  0.41800000000E+01 0. -1.
         -5    1    3    3    0  502 -0.12082268989E+02  0.38164344792E+02 -0.41586429301E+02  0.57874017826E+02  0.41800000000E+01 0. -1.
        -11    1    1    2    0    0 -0.37683640923E+01  0.19069439952E+02 -0.28172399651E+01  0.19641307213E+02  0.00000000000E+00 0.  1.
         11    1    1    2    0    0  0.44819296490E+02 -0.24654293012E+01  0.17184696869E+03  0.17761257930E+03  0.00000000000E+00 0. -1.
</event>
<event>
 7    1  0.2530765E-009  0.1750401E+03  0.7561462E-02  0.1172691E+00
         -1   -1    0    0    0  501 -0.00000000000E+00  0.00000000000E+00  0.16870869298E+03  0.16870869298E+03  0.00000000000E+00 0.  1.
          1   -1    0    0  501    0  0.00000000000E+00 -0.00000000000E+00 -0.20406144852E+03  0.20406144852E+03  0.00000000000E+00 0. -1.
         25    2    1    2    0    0 -0.11682465786E+03  0.77021457869E+02 -0.73106013522E+02  0.20142296978E+03  0.12508564220E+03 0.  0.
          5    1    3    3  502    0 -0.85191330891E+02 -0.18164553195E+02 -0.37087591629E+02  0.94765371864E+02  0.41800000000E+01 0. -1.
         -5    1    3    3    0  502 -0.31633326972E+02  0.95186011064E+02 -0.36018421893E+02  0.10665759792E+03  0.41800000000E+01 0. -1.
        -11    1    1    2    0    0 -0.82168526577E+01 -0.26284132781E+02  0.22467594443E+02  0.35541034083E+02  0.00000000000E+00 0. -1.
         11    1    1    2    0    0  0.12504151052E+03 -0.50737325088E+02  0.15285663536E+02  0.13580613764E+03  0.00000000000E+00 0.  1.
</event>
<event>
 7    1  0.2530765E-009  0.1037540E+03  0.7561462E-02  0.1272594E+00
          1   -1    0    0  501    0  0.00000000000E+00  0.00000000000E+00  0.93702580669E+02  0.93702580669E+02  0.00000000000E+00 0. -1.
         -1   -1    0    0    0  501 -0.00000000000E+00 -0.00000000000E+00 -0.23717671115E+03  0.23717671115E+03  0.00000000000E+00 0.  1.
         25    2    1    2    0    0 -0.94832693803E+02  0.31218488186E+02 -0.10307501495E+03  0.19036673897E+03  0.12508877959E+03 0.  0.
          5    1    3    3  502    0 -0.68979429756E+02  0.37645179198E+02  0.51211790727E+01  0.78860764144E+02  0.41800000000E+01 0.  1.
         -5    1    3    3    0  502 -0.25853264047E+02 -0.64266910125E+01 -0.10819619403E+03  0.11150597482E+03  0.41800000000E+01 0.  1.
        -11    1    1    2    0    0  0.20565538203E+02 -0.15953441224E+02  0.28121538514E+02  0.38318071153E+02  0.00000000000E+00 0. -1.
         11    1    1    2    0    0  0.74267155600E+02 -0.15265046962E+02 -0.68520654045E+02  0.10219448170E+03  0.00000000000E+00 0.  1.
</event>
<event>
 7    1  0.2530765E-009  0.8884870E+02  0.7561462E-02  0.1305664E+00
         -2   -1    0    0    0  501 -0.00000000000E+00  0.00000000000E+00  0.13742814987E+03  0.13742814987E+03  0.00000000000E+00 0.  1.
          2   -1    0    0  501    0  0.00000000000E+00 -0.00000000000E+00 -0.10688545218E+03  0.10688545218E+03  0.00000000000E+00 0. -1.
         25    2    1    2    0    0 -0.51540062260E+02  0.16763961686E+02  0.28019240935E+02  0.13917642914E+03  0.12509033590E+03 0.  0.
          5    1    3    3  502    0 -0.77770142756E+02  0.13330424522E+02  0.58713080358E+02  0.98440812306E+02  0.41800000000E+01 0. -1.
         -5    1    3    3    0  502  0.26230080497E+02  0.34335371647E+01 -0.30693839423E+02  0.40735616834E+02  0.41800000000E+01 0. -1.
        -11    1    1    2    0    0  0.60057340739E+02 -0.97014613342E+01 -0.32102467445E+02  0.68786415408E+02  0.00000000000E+00 0. -1.
         11    1    1    2    0    0 -0.85172784794E+01 -0.70625003522E+01  0.34625924198E+02  0.36350757495E+02  0.00000000000E+00 0.  1.
</event>
<event>
 7    1  0.2530765E-009  0.7554346E+02  0.7561462E-02  0.1342196E+00
          3   -1    0    0  501    0  0.00000000000E+00  0.00000000000E+00  0.28262317936E+02  0.28262317936E+02  0.00000000000E+00 0. -1.
         -3   -1    0    0    0  501 -0.00000000000E+00 -0.00000000000E+00 -0.50048227649E+03  0.50048227649E+03  0.00000000000E+00 0.  1.
         25    2    1    2    0    0 -0.54919874876E+02  0.11528461612E+02 -0.26393439849E+03  0.29741785142E+03  0.12508762350E+03 0.  0.
          5    1    3    3  502    0 -0.15127020860E+02  0.23939518046E+01  0.11078910132E+02  0.19359039621E+02  0.41800000000E+01 0.  1.
         -5    1    3    3    0  502 -0.39792854016E+02  0.91345098072E+01 -0.27501330862E+03  0.27805881180E+03  0.41800000000E+01 0.  1.
        -11    1    1    2    0    0  0.35028658061E+02 -0.43908190857E+02 -0.81590558940E+02  0.99055314941E+02  0.00000000000E+00 0. -1.
         11    1    1    2    0    0  0.19891216815E+02  0.32379729246E+02 -0.12669500112E+03  0.13227142806E+03  0.00000000000E+00 0.  1.
</event>
<event>
 7    1  0.2530765E-009  0.1729676E+03  0.7561462E-02  0.1174788E+00
          1   -1    0    0  501    0  0.00000000000E+00  0.00000000000E+00  0.88788087704E+02  0.88788087704E+02  0.00000000000E+00 0. -1.
         -1   -1    0    0    0  501 -0.00000000000E+00 -0.00000000000E+00 -0.38665772881E+03  0.38665772881E+03  0.00000000000E+00 0.  1.
         25    2    1    2    0    0  0.19928269614E+02  0.14489604353E+03 -0.10965847848E+03  0.22150150418E+03  0.12508371233E+03 0.  0.
          5    1    3    3  502    0 -0.25840347389E+02 -0.90218504634E+00  0.93058789109E+01  0.27795849930E+02  0.41800000000E+01 0. -1.
         -5    1    3    3    0  502  0.45768617002E+02  0.14579822858E+03 -0.11896435740E+03  0.19370565425E+03  0.41800000000E+01 0. -1.
        -11    1    1    2    0    0 -0.98079926609E+00  0.10389526645E+02 -0.28638244637E+02  0.30480375441E+02  0.00000000000E+00 0.  1.
         11    1    1    2    0    0 -0.18947470348E+02 -0.15528557018E+03 -0.15957291799E+03  0.22346393689E+03  0.00000000000E+00 0. -1.
</event>
<event>
 7    1  0.2530765E-009  0.1009216E+03  0.7561462E-02  0.1278370E+00
          1   -1    0    0  501    0  0.00000000000E+00  0.00000000000E+00  0.69439789714E+02  0.69439789714E+02  0.00000000000E+00 0. -1.
         -1   -1    0    0    0  501 -0.00000000000E+00 -0.00000000000E+00 -0.18714571635E+03  0.18714571635E+03  0.00000000000E+00 0.  1.
         25    2    1    2    0    0 -0.62116717992E+01 -0.23088126112E+02 -0.41652050668E+02  0.13399219779E+03  0.12508944523E+03 0.  0.
          5    1    3    3  502    0  0.36293803930E+02  0.29494104792E+02  0.10963685844E+02  0.48216358515E+02  0.41800000000E+01 0. -1.
         -5    1    3    3    0  502 -0.42505475729E+02 -0.52582230904E+02 -0.52615736512E+02  0.85775839271E+02  0.41800000000E+01 0. -1.
        -11    1    1    2    0    0  0.31802367637E+01  0.54999884628E+02 -0.71428270052E+02  0.90205869973E+02  0.00000000000E+00 0.  1.
         11    1    1    2    0    0  0.30314350355E+01 -0.31911758515E+02 -0.46256059163E+01  0.32387438306E+02  0.00000000000E+00 0. -1.
</event>
<event>
 7    1  0.2530765E-009  0.1279028E+03  0.7561462E-02  0.1230601E+00
         -4   -1    0    0    0  501 -0.00000000000E+00  0.00000000000E+00  0.34280699542E+03  0.34280699542E+03  0.00000000000E+00 0. -1.
          4   -1    0    0  501    0  0.00000000000E+00 -0.00000000000E+00 -0.74285439936E+02  0.74285439936E+02  0.00000000000E+00 0.  1.
         25    2    1    2    0    0  0.44888398198E+02 -0.10347108740E+03  0.10519127835E+03  0.19858030084E+03  0.12509075353E+03 0.  0.
          5    1    3    3  502    0  0.24234593226E+02 -0.68426243459E+02  0.13128229431E+03  0.15007324712E+03  0.41800000000E+01 0. -1.
         -5    1    3    3    0  502  0.20653804972E+02 -0.35044843946E+02 -0.26091015953E+02  0.48507053719E+02  0.41800000000E+01 0. -1.
        -11    1    1    2    0    0 -0.71155550585E+02  0.72350136129E+02  0.95225568090E+02  0.13916020766E+03  0.00000000000E+00 0.  1.
         11    1    1    2    0    0  0.26267152388E+02  0.31120951276E+02  0.68104709035E+02  0.79351926855E+02  0.00000000000E+00 0. -1.
</event>
<event>
 7    1  0.2530765E-009  0.1146263E+03  0.7561462E-02  0.1252235E+00
         -2   -1    0    0    0  501 -0.00000000000E+00  0.00000000000E+00  0.14605126693E+02  0.14605126693E+02  0.00000000000E+00 0.  1.
          2   -1    0    0  501    0  0.00000000000E+00 -0.00000000000E+00 -0.93282743326E+03  0.93282743326E+03  0.00000000000E+00 0. -1.
         25    2    1    2    0    0 -0.36955833115E+02  0.24738490603E+02 -0.53658490156E+03  0.55276450696E+03  0.12509003576E+03 0.  0.
          5    1    3    3  502    0 -0.71497259971E+01 -0.49074623896E+02 -0.14980679062E+03  0.15785748069E+03  0.41800000000E+01 0.  1.
         -5    1    3    3    0  502 -0.29806107118E+02  0.73813114499E+02 -0.38677811094E+03  0.39490702627E+03  0.41800000000E+01 0.  1.
        -11    1    1    2    0    0  0.65361223694E+02 -0.57733169017E+01 -0.27372087044E+03  0.28147563956E+03  0.00000000000E+00 0.  1.
         11    1    1    2    0    0 -0.28405390579E+02 -0.18965173701E+02 -0.10791653456E+03  0.11319241343E+03  0.00000000000E+00 0. -1.
</event>
<event>
 7    1  0.2530765E-009  0.1016388E+03  0.7561462E-02  0.1276887E+00
         -2   -1    0    0    0  501 -0.00000000000E+00  0.00000000000E+00  0.10921020838E+03  0.10921020838E+03  0.00000000000E+00 0.  1.
          2   -1    0    0  501    0  0.00000000000E+00 -0.00000000000E+00 -0.12410070733E+03  0.12410070733E+03  0.00000000000E+00 0. -1.
         25    2    1    2    0    0 -0.64155130308E+01  0.37963014341E+02  0.17792236426E+02  0.13208466250E+03  0.12508974828E+03 0.  0.
          5    1    3    3  502    0  0.33962026486E+02 -0.33910531066E+02  0.33999594784E+01  0.48294673461E+02  0.41800000000E+01 0.  1.
         -5    1    3    3    0  502 -0.40377539517E+02  0.71873545407E+02  0.14392276948E+02  0.83789989035E+02  0.41800000000E+01 0.  1.
        -11    1    1    2    0    0  0.28000629163E+02 -0.42118478046E+02  0.11508833803E+02  0.51869593038E+02  0.00000000000E+00 0.  1.
         11    1    1    2    0    0 -0.21585116132E+02  0.41554637046E+01 -0.44191569180E+02  0.49356660175E+02  0.00000000000E+00 0. -1.
</event>
<event>
 7    1  0.2530765E-009  0.1035370E+03  0.7561462E-02  0.1273029E+00
         -2   -1    0    0    0  501 -0.00000000000E+00  0.00000000000E+00  0.19843328392E+02  0.19843328392E+02  0.00000000000E+00 0.  1.
          2   -1    0    0  501    0  0.00000000000E+00 -0.00000000000E+00 -0.96597591759E+03  0.96597591759E+03  0.00000000000E+00 0. -1.
         25    2    1    2    0    0 -0.39254753029E+02 -0.72807028114E+02 -0.48803791882E+03  0.51055934329E+03  0.12509210141E+03 0.  0.
          5    1    3    3  502    0 -0.36938213653E+02 -0.51243010048E+02 -0.48397950115E+03  0.48810235365E+03  0.41800000000E+01 0.  1.
         -5    1    3    3    0  502 -0.23165393762E+01 -0.21564018065E+02 -0.40584176758E+01  0.22456989643E+02  0.41800000000E+01 0.  1.
        -11    1    1    2    0    0  0.67231586649E+02  0.62705922715E+02 -0.28023242682E+03  0.29492767254E+03  0.00000000000E+00 0.  1.
         11    1    1    2    0    0 -0.27976833620E+02  0.10101105399E+02 -0.17786224356E+03  0.18033223015E+03  0.00000000000E+00 0. -1.
</event>
<event>
 7    1  0.2530765E-009  0.1810409E+03  0.7561462E-02  0.1166799E+00
         -1   -1    0    0    0  501 -0.00000000000E+00  0.00000000000E+00  0.34891735458E+02  0.34891735458E+02  0.00000000000E+00 0.  1.
          1   -1    0    0  501    0  0.00000000000E+00 -0.00000000000E+00 -0.17556268449E+04  0.17556268449E+04  0.00000000000E+00 0. -1.
         25    2    1    2    0    0  0.15231663330E+03  0.66919476807E+01 -0.14687840354E+04  0.14819646976E+04  0.12509070030E+03 0.  0.
          5    1    3    3  502    0  0.12390260512E+03 -0.49957369333E+02 -0.98182247476E+03  0.99087861953E+03  0.41800000000E+01 0. -1.
         -5    1    3    3    0  502  0.28414028184E+02  0.56649317014E+02 -0.48696156069E+03  0.49108607810E+03  0.41800000000E+01 0. -1.
        -11    1    1    2    0    0 -0.54926004830E+02  0.27837140161E+02 -0.15531724256E+03  0.16707847921E+03  0.00000000000E+00 0. -1.
         11    1    1    2    0    0 -0.97390628474E+02 -0.34529087841E+02 -0.96633831437E+02  0.14147540352E+03  0.00000000000E+00 0.  1.
</event>
<event>
 7    1  0.2530765E-009  0.1346879E+03  0.7561462E-02  0.1220661E+00
         -1   -1    0    0    0  501 -0.00000000000E+00  0.00000000000E+00  0.15329297950E+03  0.15329297950E+03  0.00000000000E+00 0.  1.
          1   -1    0    0  501    0  0.00000000000E+00 -0.00000000000E+00 -0.12507003800E+03  0.12507003800E+03  0.00000000000E+00 0. -1.
         25    2    1    2    0    0 -0.82196047196E+02  0.20203664675E+02  0.38473510750E+02  0.15586032904E+03  0.12509137819E+03 0.  0.
          5    1    3    3  502    0 -0.12693330313E+02  0.65859010421E+02  0.10448171216E+02  0.68008577179E+02  0.41800000000E+01 0.  1.
         -5    1    3    3    0  502 -0.69502716883E+02 -0.45655345746E+02  0.28025339534E+02  0.87851751863E+02  0.41800000000E+01 0.  1.
        -11    1    1    2    0    0  0.70895864622E+02  0.22782297922E+02 -0.19774483693E+02  0.77047303162E+02  0.00000000000E+00 0. -1.
         11    1    1    2    0    0  0.11300182574E+02 -0.42985962597E+02  0.95239144359E+01  0.45455385300E+02  0.00000000000E+00 0.  1.
</event>
<event>
 7    1  0.2530765E-009  0.1897219E+03  0.7561462E-02  0.1158712E+00
          1   -1    0    0  501    0  0.00000000000E+00  0.00000000000E+00  0.56149198754E+03  0.56149198754E+03  0.00000000000E+00 0. -1.
         -1   -1    0    0    0  501 -0.00000000000E+00 -0.00000000000E+00 -0.67393691172E+02  0.67393691172E+02  0.00000000000E+00 0.  1.
         25    2    1    2    0    0  0.12018815074E+03  0.10299384681E+03  0.26951002328E+03  0.33665407508E+03  0.12508952618E+03 0.  0.
          5    1    3    3  502    0  0.63009753620E+02  0.12053874289E+03  0.14733942707E+03  0.20056469469E+03  0.41800000000E+01 0.  1.
         -5    1    3    3    0  502  0.57178397116E+02 -0.17544896078E+02  0.12217059621E+03  0.13608938038E+03  0.41800000000E+01 0.  1.
        -11    1    1    2    0    0 -0.13467334648E+03 -0.81255027758E+02  0.20980346084E+03  0.26221514443E+03  0.00000000000E+00 0. -1.
         11    1    1    2    0    0  0.14485195749E+02 -0.21738819053E+02  0.14784812254E+02  0.30016459204E+02  0.00000000000E+00 0.  1.
</event>
<event>
 7    1  0.2530765E-009  0.1252901E+03  0.7561462E-02  0.1234617E+00
         -1   -1    0    0    0  501 -0.00000000000E+00  0.00000000000E+00  0.18854381062E+02  0.18854381062E+02  0.00000000000E+00 0.  1.
          1   -1    0    0  501    0  0.00000000000E+00 -0.00000000000E+00 -0.12124170364E+04  0.12124170364E+04  0.00000000000E+00 0. -1.
         25    2    1    2    0    0  0.70335858902E+02 -0.79178909576E+02 -0.59698546666E+03  0.61907646437E+03  0.12509032166E+03 0.  0.
          5    1    3    3  502    0  0.33676655710E+02 -0.10795698222E+02 -0.29349146430E+02  0.46146603733E+02  0.41800000000E+01 0. -1.
         -5    1    3    3    0  502  0.36659203192E+02 -0.68383211353E+02 -0.56763632023E+03  0.57292986064E+03  0.41800000000E+01 0. -1.
        -11    1    1    2    0    0 -0.52694317086E+02 -0.34201307439E+01 -0.21661314085E+03  0.22295659025E+03  0.00000000000E+00 0.  1.
         11    1    1    2    0    0 -0.17641541815E+02  0.82599040320E+02 -0.37996404782E+03  0.38923836282E+03  0.00000000000E+00 0. -1.
</event>
<event>
 7    1  0.2530765E-009  0.1099103E+03  0.7561462E-02  0.1260736E+00
          2   -1    0    0  501    0  0.00000000000E+00  0.00000000000E+00  0.10271976572E+04  0.10271976572E+04  0.00000000000E+00 0. -1.
         -2   -1    0    0    0  501 -0.00000000000E+00 -0.00000000000E+00 -0.25139401943E+02  0.25139401943E+02  0.00000000000E+00 0.  1.
         25    2    1    2    0    0  0.10121073718E+03 -0.91915547287E+01  0.69178294083E+03  0.71030987787E+03  0.12509351452E+03 0.  0.
          5    1    3    3  502    0  0.10589384710E+03 -0.17214130793E+02  0.69184184673E+03  0.70012316519E+03  0.41800000000E+01 0. -1.
         -5    1    3    3    0  502 -0.46831099144E+01  0.80225760638E+01 -0.58905904209E-01  0.10186712673E+02  0.41800000000E+01 0. -1.
        -11    1    1    2    0    0 -0.45458604510E+02 -0.15781588056E+01  0.26643480295E+03  0.27028962157E+03  0.00000000000E+00 0. -1.
         11    1    1    2    0    0 -0.55752132674E+02  0.10769713534E+02  0.43840511525E+02  0.71737559744E+02  0.00000000000E+00 0.  1.
</event>
<event>
 7    1  0.2530765E-009  0.1108544E+03  0.7561462E-02  0.1258996E+00
          1   -1    0    0  501    0  0.00000000000E+00  0.00000000000E+00  0.13094232915E+03  0.13094232915E+03  0.00000000000E+00 0. -1.
         -1   -1    0    0    0  501 -0.00000000000E+00 -0.00000000000E+00 -0.15342172930E+03  0.15342172930E+03  0.00000000000E+00 0.  1.
         25    2    1    2    0    0 -0.82168030030E+02  0.18708963153E+02 -0.24976466184E+02  0.15287502475E+03  0.12508132901E+03 0.  0.
          5    1    3    3  502    0 -0.75363470474E+02  0.30247916857E+02  0.36994922193E+02  0.89334684329E+02  0.41800000000E+01 0. -1.
         -5    1    3    3    0  502 -0.68045595559E+01 -0.11538953704E+02 -0.61971388377E+02  0.63540340420E+02  0.41800000000E+01 0. -1.
        -11    1    1    2    0    0 -0.39488292490E+01 -0.37922084734E+02  0.17563179790E+02  0.41977887600E+02  0.00000000000E+00 0. -1.
         11    1    1    2    0    0  0.86116859279E+02  0.19213121580E+02 -0.15066113749E+02  0.89511146101E+02  0.00000000000E+00 0.  1.
</event>
<event>
 7    1  0.2530765E-009  0.1304922E+03  0.7561462E-02  0.1226727E+00
         -2   -1    0    0    0  501 -0.00000000000E+00  0.00000000000E+00  0.51731598092E+03  0.51731598092E+03  0.00000000000E+00 0.  1.
          2   -1    0    0  501    0  0.00000000000E+00 -0.00000000000E+00 -0.41815833603E+02  0.41815833603E+02  0.00000000000E+00 0. -1.
         25    2    1    2    0    0 -0.31860903639E+02 -0.72651168473E+02  0.37498108338E+03  0.40318098074E+03  0.12510308099E+03 0.  0.
          5    1    3    3  502    0  0.47944718141E+02 -0.18780686607E+02  0.12395753581E+03  0.13429204470E+03  0.41800000000E+01 0. -1.
         -5    1    3    3    0  502 -0.79805621780E+02 -0.53870481867E+02  0.25102354758E+03  0.26888893604E+03  0.41800000000E+01 0. -1.
        -11    1    1    2    0    0  0.54144237261E+02  0.23586054771E+02  0.77285787941E+02  0.97267638122E+02  0.00000000000E+00 0. -1.
         11    1    1    2    0    0 -0.22283333622E+02  0.49065113703E+02  0.23233275994E+02  0.58683195664E+02  0.00000000000E+00 0.  1.
</event>
<event>
 7    1  0.2530765E-009  0.1234787E+03  0.7561462E-02  0.1237466E+00
         -2   -1    0    0    0  501 -0.00000000000E+00  0.00000000000E+00  0.45974531776E+02  0.45974531776E+02  0.00000000000E+00 0.  1.
          2   -1    0    0  501    0  0.00000000000E+00 -0.00000000000E+00 -0.34094234933E+03  0.34094234933E+03  0.00000000000E+00 0. -1.
         25    2    1    2    0    0  0.34149227880E+02  0.47591289586E+02 -0.14690954273E+03  0.20164731326E+03  0.12509246417E+03 0.  0.
          5    1    3    3  502    0 -0.44504210082E+02  0.27925660452E-02 -0.35077409873E+02  0.56820082773E+02  0.41800000000E+01 0.  1.
         -5    1    3    3    0  502  0.78653437963E+02  0.47588497020E+02 -0.11183213286E+03  0.14482723049E+03  0.41800000000E+01 0.  1.
        -11    1    1    2    0    0  0.31902056027E+02 -0.24632877830E+02 -0.41805175836E+02  0.58070582705E+02  0.00000000000E+00 0.  1.
         11    1    1    2    0    0 -0.66051283908E+02 -0.22958411756E+02 -0.10625309899E+03  0.12719898514E+03  0.00000000000E+00 0. -1.
</event>
<event>
 7    1  0.2530765E-009  0.1823237E+03  0.7561462E-02  0.1165573E+00
         -1   -1    0    0    0  501 -0.00000000000E+00  0.00000000000E+00  0.68292001235E+03  0.68292001235E+03  0.00000000000E+00 0.  1.
          1   -1    0    0  501    0  0.00000000000E+00 -0.00000000000E+00 -0.57952573702E+02  0.57952573702E+02  0.00000000000E+00 0. -1.
         25    2    1    2    0    0  0.82729655861E+02  0.13806856123E+03  0.26239887728E+03  0.33227660389E+03  0.12508975634E+03 0.  0.
          5    1    3    3  502    0  0.97543838727E+02  0.10508036701E+03  0.25854803396E+03  0.29567083432E+03  0.41800000000E+01 0.  1.
         -5    1    3    3    0  502 -0.14814182866E+02  0.32988194215E+02  0.38508433157E+01  0.36605769570E+02  0.41800000000E+01 0.  1.
        -11    1    1    2    0    0  0.13982641046E+02 -0.56762556503E+02  0.80166393285E+02  0.99217703479E+02  0.00000000000E+00 0. -1.
         11    1    1    2    0    0 -0.96712296907E+02 -0.81306004726E+02  0.28240216808E+03  0.30937827867E+03  0.00000000000E+00 0.  1.
</event>
<event>
 7    1  0.2530765E-009  0.1996186E+03  0.7561462E-02  0.1150061E+00
         -1   -1    0    0    0  501 -0.00000000000E+00  0.00000000000E+00  0.49074719385E+02  0.49074719385E+02  0.00000000000E+00 0.  1.
          1   -1    0    0  501    0  0.00000000000E+00 -0.00000000000E+00 -0.10639759610E+04  0.10639759610E+04  0.00000000000E+00 0. -1.
         25    2    1    2    0    0 -0.15538893687E+03  0.92912982114E+02 -0.31348364500E+03  0.38301350151E+03  0.12509517461E+03 0.  0.
          5    1    3    3  502    0 -0.89361433916E+02  0.10082642552E+03 -0.12783860307E+03  0.18577301954E+03  0.41800000000E+01 0.  1.
         -5    1    3    3    0  502 -0.66027502950E+02 -0.79134434082E+01 -0.18564504194E+03  0.19724048197E+03  0.41800000000E+01 0.  1.
        -11    1    1    2    0    0  0.47327568211E+01 -0.36712745140E+02 -0.79935622360E+02  0.88090455583E+02  0.00000000000E+00 0.  1.
         11    1    1    2    0    0  0.15065618004E+03 -0.56200236974E+02 -0.62148197424E+03  0.64194672328E+03  0.00000000000E+00 0. -1.
</event>
<event>
 7    1  0.2530765E-009  0.9015182E+02  0.7561462E-02  0.1302484E+00
         -2   -1    0    0    0  501 -0.00000000000E+00  0.00000000000E+00  0.51840758626E+02  0.51840758626E+02  0.00000000000E+00 0.  1.
          2   -1    0    0  501    0  0.00000000000E+00 -0.00000000000E+00 -0.32772152465E+03  0.32772152465E+03  0.00000000000E+00 0. -1.
         25    2    1    2    0    0  0.37863505713E+01 -0.62453644692E+02 -0.21778957303E+03  0.25883504409E+03  0.12509391568E+03 0.  0.
          5    1    3    3  502    0  0.32290416581E+02  0.76924384449E+01 -0.61455330359E+01  0.34015946092E+02  0.41800000000E+01 0. -1.
         -5    1    3    3    0  502 -0.28504066010E+02 -0.70146083137E+02 -0.21164403999E+03  0.22481909799E+03  0.41800000000E+01 0.  1.
        -11    1    1    2    0    0 -0.14078792443E+02  0.92958803494E+01  0.19706949442E+02  0.25942043952E+02  0.00000000000E+00 0.  1.
         11    1    1    2    0    0  0.10292441871E+02  0.53157764342E+02 -0.77798142438E+02  0.94785195239E+02  0.00000000000E+00 0. -1.
</event>
<event>
 7    1  0.2530765E-009  0.1253517E+03  0.7561462E-02  0.1234521E+00
          2   -1    0    0  501    0  0.00000000000E+00  0.00000000000E+00  0.32561142970E+03  0.32561142970E+03  0.00000000000E+00 0. -1.
         -2   -1    0    0    0  501 -0.00000000000E+00 -0.00000000000E+00 -0.12700333309E+03  0.12700333309E+03  0.00000000000E+00 0.  1.
         25    2    1    2    0    0  0.67249940047E+02  0.15704292813E+02  0.27923779092E+03  0.31367069576E+03  0.12508549977E+03 0.  0.
          5    1    3    3  502    0  0.68832942579E+02  0.62178316349E+02  0.15175924654E+03  0.17791137771E+03  0.41800000000E+01 0.  1.
         -5    1    3    3    0  502 -0.15830025327E+01 -0.46474023536E+02  0.12747854438E+03  0.13575931805E+03  0.41800000000E+01 0.  1.
        -11    1    1    2    0    0  0.14312907505E+02  0.17925418147E+02 -0.68605492034E+01  0.23942578649E+02  0.00000000000E+00 0. -1.
         11    1    1    2    0    0 -0.81562847552E+02 -0.33629710961E+02 -0.73769145111E+02  0.11500148838E+03  0.00000000000E+00 0.  1.
</event>
<event>
 7    1  0.2530765E-009  0.1342843E+03  0.7561462E-02  0.1221234E+00
          2   -1    0    0  501    0  0.00000000000E+00  0.00000000000E+00  0.19155477019E+03  0.19155477019E+03  0.00000000000E+00 0. -1.
         -2   -1    0    0    0  501 -0.00000000000E+00 -0.00000000000E+00 -0.16422795289E+03  0.16422795289E+03  0.00000000000E+00 0.  1.
         25    2    1    2    0    0  0.11900532222E+03 -0.16985451285E+02  0.86487613574E+02  0.19384646105E+03  0.12508225649E+03 0.  0.
          5    1    3    3  502    0  0.10856050801E+03 -0.21288830021E+02  0.43102338717E+01  0.11079101363E+03  0.41800000000E+01 0.  1.
         -5    1    3    3    0  502  0.10444814201E+02  0.43033787359E+01  0.82177379702E+02  0.83055447425E+02  0.41800000000E+01 0.  1.
        -11    1    1    2    0    0 -0.10211120530E+02 -0.26694669153E+02 -0.29356579689E+02  0.40971711152E+02  0.00000000000E+00 0.  1.
         11    1    1    2    0    0 -0.10879420169E+03  0.43680120438E+02 -0.29804216585E+02  0.12096455087E+03  0.00000000000E+00 0. -1.
</event>
<event>
 7    1  0.2530765E-009  0.1317660E+03  0.7561462E-02  0.1224859E+00
          2   -1    0    0  501    0  0.00000000000E+00  0.00000000000E+00  0.55201303541E+03  0.55201303541E+03  0.00000000000E+00 0. -1.
         -2   -1    0    0    0  501 -0.00000000000E+00 -0.00000000000E+00 -0.38873942594E+02  0.38873942594E+02  0.00000000000E+00 0.  1.
         25    2    1    2    0    0 -0.61148162966E+02  0.63625006253E+02  0.19238440712E+03  0.24585819473E+03  0.12508897857E+03 0.  0.
          5    1    3    3  502    0 -0.94581571901E+02  0.48807104500E+02  0.98744645986E+02  0.14524388009E+03  0.41800000000E+01 0. -1.
         -5    1    3    3    0  502  0.33433408935E+02  0.14817901753E+02  0.93639761131E+02  0.10061431464E+03  0.41800000000E+01 0. -1.
        -11    1    1    2    0    0  0.74959135286E+02 -0.24726428278E+02  0.15168324683E+03  0.17099144887E+03  0.00000000000E+00 0.  1.
         11    1    1    2    0    0 -0.13810972320E+02 -0.38898577975E+02  0.16907143887E+03  0.17403733440E+03  0.00000000000E+00 0. -1.
</event>
<event>
 7    1  0.2530765E-009  0.9839275E+02  0.7561462E-02  0.1283713E+00
          2   -1    0    0  501    0  0.00000000000E+00  0.00000000000E+00  0.27392167627E+03  0.27392167627E+03  0.00000000000E+00 0. -1.
         -2   -1    0    0    0  501 -0.00000000000E+00 -0.00000000000E+00 -0.50204945578E+02  0.50204945578E+02  0.00000000000E+00 0.  1.
         25    2    1    2    0    0 -0.23693541587E+02  0.91705750278E+01  0.17548862392E+03  0.21700353480E+03  0.12509513832E+03 0.  0.
          5    1    3    3  502    0  0.13937530250E+02  0.49641347973E+02  0.26669877113E+02  0.58200282846E+02  0.41800000000E+01 0. -1.
         -5    1    3    3    0  502 -0.37631071838E+02 -0.40470772946E+02  0.14881874680E+03  0.15880325195E+03  0.41800000000E+01 0. -1.
        -11    1    1    2    0    0  0.54349510452E+02 -0.18788611799E+02  0.12080956366E+02  0.58760792425E+02  0.00000000000E+00 0.  1.
         11    1    1    2    0    0 -0.30655968865E+02  0.96180367712E+01  0.36147150405E+02  0.48362294619E+02  0.00000000000E+00 0. -1.
</event>
<event>
 7    1  0.2530765E-009  0.7317776E+02  0.7561462E-02  0.1349609E+00
          4   -1    0    0  501    0  0.00000000000E+00  0.00000000000E+00  0.36805831804E+03  0.36805831804E+03  0.00000000000E+00 0. -1.
         -4   -1    0    0    0  501 -0.00000000000E+00 -0.00000000000E+00 -0.36956969364E+02  0.36956969364E+02  0.00000000000E+00 0.  1.
         25    2    1    2    0    0 -0.30205144266E+02  0.69444692271E+01  0.23966508174E+03  0.27211437284E+03  0.12508518742E+03 0.  0.
          5    1    3    3  502    0 -0.37675771513E+02 -0.43703726682E+01  0.67292857195E+01  0.38746865714E+02  0.41800000000E+01 0.  1.
         -5    1    3    3    0  502  0.74706272473E+01  0.11314841895E+02  0.23293579602E+03  0.23336750713E+03  0.41800000000E+01 0.  1.
        -11    1    1    2    0    0  0.24218153237E+02  0.39958984281E+02  0.30613588532E+02  0.55860819666E+02  0.00000000000E+00 0. -1.
         11    1    1    2    0    0  0.59869910290E+01 -0.46903453508E+02  0.60822678408E+02  0.77040094894E+02  0.00000000000E+00 0.  1.
</event>
<event>
 7    1  0.2530765E-009  0.1048937E+03  0.7561462E-02  0.1270329E+00
          2   -1    0    0  501    0  0.00000000000E+00  0.00000000000E+00  0.28959632990E+03  0.28959632990E+03  0.00000000000E+00 0. -1.
         -2   -1    0    0    0  501 -0.00000000000E+00 -0.00000000000E+00 -0.61563990366E+02  0.61563990366E+02  0.00000000000E+00 0.  1.
         25    2    1    2    0    0 -0.26957191155E+02 -0.31225521363E+02  0.21152830708E+03  0.24918515867E+03  0.12508914927E+03 0.  0.
          5    1    3    3  502    0 -0.62714442463E+02 -0.43592969110E+02  0.73784344175E+02  0.10627817318E+03  0.41800000000E+01 0.  1.
         -5    1    3    3    0  502  0.35757251307E+02  0.12367447748E+02  0.13774396290E+03  0.14290698549E+03  0.41800000000E+01 0.  1.
        -11    1    1    2    0    0 -0.13801580228E+02 -0.23344356523E+02 -0.99785358948E+01  0.28896604937E+02  0.00000000000E+00 0.  1.
         11    1    1    2    0    0  0.40758771383E+02  0.54569877886E+02  0.26482568351E+02  0.73078556661E+02  0.00000000000E+00 0. -1.
</event>
<event>
 7    1  0.2530765E-009  0.9920168E+02  0.7561462E-02  0.1281984E+00
         -1   -1    0    0    0  501 -0.00000000000E+00  0.00000000000E+00  0.47784374243E+02  0.47784374243E+02  0.00000000000E+00 0.  1.
          1   -1    0    0  501    0  0.00000000000E+00 -0.00000000000E+00 -0.38628784830E+03  0.38628784830E+03  0.00000000000E+00 0. -1.
         25    2    1    2    0    0  0.17895543236E+02  0.16817767432E+02 -0.31209177930E+03  0.33712383627E+03  0.12509242385E+03 0.  0.
          5    1    3    3  502    0 -0.43098217660E+02  0.21802574634E+02 -0.22764770692E+03  0.23275257139E+03  0.41800000000E+01 0.  1.
         -5    1    3    3    0  502  0.60993760896E+02 -0.49848072029E+01 -0.84444072382E+02  0.10437126487E+03  0.41800000000E+01 0.  1.
        -11    1    1    2    0    0 -0.16105184047E+02 -0.51446780506E+02 -0.30653892200E+02  0.62014589288E+02  0.00000000000E+00 0.  1.
         11    1    1    2    0    0 -0.17903591890E+01  0.34629013074E+02  0.42421974442E+01  0.34933796983E+02  0.00000000000E+00 0. -1.
</event>
<event>
 7    1  0.2530765E-009  0.1175511E+03  0.7561462E-02  0.1247192E+00
         -2   -1    0    0    0  501 -0.00000000000E+00  0.00000000000E+00  0.69858396628E+02  0.69858396628E+02  0.00000000000E+00 0. -1.
          2   -1    0    0  501    0  0.00000000000E+00 -0.00000000000E+00 -0.26224884866E+03  0.26224884866E+03  0.00000000000E+00 0.  1.
         25    2    1    2    0    0 -0.64738596892E+02  0.43971064475E+02 -0.11770505849E+03  0.18875008558E+03  0.12509026170E+03 0.  0.
          5    1    3    3  502    0 -0.85935135792E+02  0.10044691450E+02 -0.28990727466E+02  0.91343735795E+02  0.41800000000E+01 0.  1.
         -5    1    3    3    0  502  0.21196538901E+02  0.33926373025E+02 -0.88714331027E+02  0.97406349780E+02  0.41800000000E+01 0.  1.
        -11    1    1    2    0    0 -0.94137044438E+00 -0.42554043248E+02 -0.63905860430E+02  0.76783408184E+02  0.00000000000E+00 0.  1.
         11    1    1    2    0    0  0.65679967336E+02 -0.14170212268E+01 -0.10779533107E+02  0.66573751527E+02  0.00000000000E+00 0. -1.
</event>
<event>
 7    1  0.2530765E-009  0.7229946E+02  0.7561462E-02  0.1352444E+00
          1   -1    0    0  501    0  0.00000000000E+00  0.00000000000E+00  0.38874084458E+02  0.38874084458E+02  0.00000000000E+00 0. -1.
         -1   -1    0    0    0  501 -0.00000000000E+00 -0.00000000000E+00 -0.31185247906E+03  0.31185247906E+03  0.00000000000E+00 0.  1.
         25    2    1    2    0    0  0.22737693884E+02  0.77139300628E+01 -0.16275105036E+03  0.20666937532E+03  0.12509124214E+03 0.  0.
          5    1    3    3  502    0 -0.46050658536E+00 -0.18716069081E+02 -0.16953021875E+03  0.17061204758E+03  0.41800000000E+01 0. -1.
         -5    1    3    3    0  502  0.23198200470E+02  0.26429999144E+02  0.67791683914E+01  0.36057327741E+02  0.41800000000E+01 0. -1.
        -11    1    1    2    0    0  0.32494759388E+02 -0.11913953556E+02 -0.60088914506E+02  0.69343560072E+02  0.00000000000E+00 0.  1.
         11    1    1    2    0    0 -0.55232453272E+02  0.42000234931E+01 -0.50138429740E+02  0.74713628131E+02  0.00000000000E+00 0. -1.
</event>
<event>
 7    1  0.2530765E-009  0.1293117E+03  0.7561462E-02  0.1228481E+00
          3   -1    0    0  501    0  0.00000000000E+00  0.00000000000E+00  0.70743056646E+03  0.70743056646E+03  0.00000000000E+00 0. -1.
         -3   -1    0    0    0  501 -0.00000000000E+00 -0.00000000000E+00 -0.27582821559E+02  0.27582821559E+02  0.00000000000E+00 0.  1.
         25    2    1    2    0    0  0.27811903051E+02 -0.10160729592E+03  0.44635223375E+03  0.47537001028E+03  0.12509510608E+03 0.  0.
          5    1    3    3  502    0 -0.36591867071E+02 -0.11414205527E+02  0.21947285910E+03  0.22283414708E+03  0.41800000000E+01 0.  1.
         -5    1    3    3    0  502  0.64403770122E+02 -0.90193090392E+02  0.22687937465E+03  0.25253586320E+03  0.41800000000E+01 0.  1.
        -11    1    1    2    0    0  0.51842630068E+01  0.28266422641E+02  0.33819768921E+02  0.44380671488E+02  0.00000000000E+00 0.  1.
         11    1    1    2    0    0 -0.32996166058E+02  0.73340873278E+02  0.19967574223E+03  0.21526270626E+03  0.00000000000E+00 0. -1.
</event>
<event>
 7    1  0.2593429E-009  0.9883980E+02  0.7561462E-02  0.1282755E+00
         -2   -1    0    0    0  501 -0.00000000000E+00  0.00000000000E+00  0.43769809747E+02  0.43769809747E+02  0.00000000000E+00 0. -1.
          2   -1    0    0  501    0  0.00000000000E+00 -0.00000000000E+00 -0.38140424535E+03  0.38140424535E+03  0.00000000000E+00 0.  1.
         25    2    1    2    0    0 -0.50165576320E+02 -0.44297904693E+02 -0.15590829454E+03  0.21079336513E+03  0.12509019573E+03 0.  0.
          5    1    3    3  502    0 -0.61402974777E+02 -0.75411979355E+02 -0.73736781358E+02  0.12211419765E+03  0.41800000000E+01 0. -1.
         -5    1    3    3    0  502  0.11237398458E+02  0.31114074663E+02 -0.82171513183E+02  0.88679167481E+02  0.41800000000E+01 0. -1.
        -11    1    1    2    0    0  0.31516974644E+02  0.25801659159E+02 -0.18358520201E+03  0.18804938634E+03  0.00000000000E+00 0.  1.
         11    1    1    2    0    0  0.18648601676E+02  0.18496245533E+02  0.18590609479E+01  0.26331303631E+02  0.00000000000E+00 0. -1.
</event>
<event>
 7    1  0.2530765E-009  0.1408238E+03  0.7561462E-02  0.1212225E+00
         -2   -1    0    0    0  501 -0.00000000000E+00  0.00000000000E+00  0.12117199965E+02  0.12117199965E+02  0.00000000000E+00 0.  1.
          2   -1    0    0  501    0  0.00000000000E+00 -0.00000000000E+00 -0.21976984857E+04  0.21976984857E+04  0.00000000000E+00 0. -1.
         25    2    1    2    0    0 -0.90599473857E+02 -0.28877812226E+02 -0.17107389423E+04  0.17179402035E+04  0.12509445033E+03 0.  0.
          5    1    3    3  502    0 -0.12006806070E+03 -0.13600894721E+02 -0.14564357760E+04  0.14614458477E+04  0.41800000000E+01 0. -1.
         -5    1    3    3    0  502  0.29468586848E+02 -0.15276917504E+02 -0.25430316624E+03  0.25649435584E+03  0.41800000000E+01 0. -1.
        -11    1    1    2    0    0  0.48764100167E+02  0.58399103360E+02 -0.25247269738E+03  0.26368704114E+03  0.00000000000E+00 0.  1.
         11    1    1    2    0    0  0.41835373689E+02 -0.29521291134E+02 -0.22236964613E+03  0.22818844108E+03  0.00000000000E+00 0. -1.
</event>
<event>
 7    1  0.2530765E-009  0.1045596E+03  0.7561462E-02  0.1270990E+00
         -1   -1    0    0    0  501 -0.00000000000E+00  0.00000000000E+00  0.27538199883E+03  0.27538199883E+03  0.00000000000E+00 0.  1.
          1   -1    0    0  501    0  0.00000000000E+00 -0.00000000000E+00 -0.17603024941E+03  0.17603024941E+03  0.00000000000E+00 0. -1.
         25    2    1    2    0    0 -0.22679824769E+02  0.36391353521E+02  0.24290816538E+03  0.27656702170E+03  0.12508491365E+03 0.  0.
          5    1    3    3  502    0 -0.55968700338E+02  0.49956794755E+02  0.22288235539E+03  0.23520670379E+03  0.41800000000E+01 0.  1.
         -5    1    3    3    0  502  0.33288875569E+02 -0.13565441234E+02  0.20025809984E+02  0.41360317915E+02  0.41800000000E+01 0.  1.
        -11    1    1    2    0    0 -0.28833175506E+02  0.78571838482E+01 -0.61163246217E+02  0.68073710311E+02  0.00000000000E+00 0. -1.
         11    1    1    2    0    0  0.51513000275E+02 -0.44248537370E+02 -0.82393169746E+02  0.10677151623E+03  0.00000000000E+00 0.  1.
</event>
<event>
 7    1  0.2622813E-009  0.1223114E+03  0.7561462E-02  0.1239332E+00
         -2   -1    0    0    0  501 -0.00000000000E+00  0.00000000000E+00  0.14850228149E+03  0.14850228149E+03  0.00000000000E+00 0.  1.
          2   -1    0    0  501    0  0.00000000000E+00 -0.00000000000E+00 -0.15275633263E+03  0.15275633263E+03  0.00000000000E+00 0. -1.
         25    2    1    2    0    0  0.39865636858E+02  0.92585897460E+02  0.23092698469E+02  0.16230396007E+03  0.12509150779E+03 0.  0.
          5    1    3    3  502    0 -0.18415339866E+02  0.64506786509E+02 -0.34533702211E+02  0.75566521930E+02  0.41800000000E+01 0. -1.
         -5    1    3    3    0  502  0.58280976724E+02  0.28079110950E+02  0.57626400680E+02  0.86737438140E+02  0.41800000000E+01 0. -1.
        -11    1    1    2    0    0 -0.25585455934E+02 -0.80121030850E+01 -0.44054694612E+02  0.51571556778E+02  0.00000000000E+00 0.  1.
         11    1    1    2    0    0 -0.14280180924E+02 -0.84573794375E+02  0.16707945004E+02  0.87383097269E+02  0.00000000000E+00 0. -1.
</event>
<event>
 7    1  0.2535773E-009  0.1221666E+03  0.7561462E-02  0.1239565E+00
         -1   -1    0    0    0  501 -0.00000000000E+00  0.00000000000E+00  0.14256188498E+03  0.14256188498E+03  0.00000000000E+00 0.  1.
          1   -1    0    0  501    0  0.00000000000E+00 -0.00000000000E+00 -0.14667281412E+03  0.14667281412E+03  0.00000000000E+00 0. -1.
         25    2    1    2    0    0  0.16851778996E+02 -0.86753033557E+02 -0.39086181894E+02  0.15806588271E+03  0.12508805849E+03 0.  0.
          5    1    3    3  502    0  0.29924549747E+02  0.80159072660E+01 -0.52771331703E+02  0.61335302205E+02  0.41800000000E+01 0. -1.
         -5    1    3    3    0  502 -0.13072770752E+02 -0.94768940823E+02  0.13685149809E+02  0.96730580506E+02  0.41800000000E+01 0. -1.
        -11    1    1    2    0    0 -0.41817457124E+02  0.20616148444E+02  0.38389433874E+02  0.60394320346E+02  0.00000000000E+00 0.  1.
         11    1    1    2    0    0  0.24965678128E+02  0.66136885113E+02 -0.34141811156E+01  0.70774496038E+02  0.00000000000E+00 0. -1.
</event>
<event>
 7    1  0.2530765E-009  0.2085276E+03  0.7561462E-02  0.1142737E+00
          1   -1    0    0  501    0  0.00000000000E+00  0.00000000000E+00  0.39008125343E+03  0.39008125343E+03  0.00000000000E+00 0. -1.
         -1   -1    0    0    0  501 -0.00000000000E+00 -0.00000000000E+00 -0.12400841374E+03  0.12400841374E+03  0.00000000000E+00 0.  1.
         25    2    1    2    0    0 -0.56368055057E+02  0.18236189491E+03  0.12090422094E+03  0.25826131930E+03  0.12509140682E+03 0.  0.
          5    1    3    3  502    0  0.37828480698E+02  0.65242356533E+02  0.58196240942E+02  0.95351108529E+02  0.41800000000E+01 0. -1.
         -5    1    3    3    0  502 -0.94196535755E+02  0.11711953838E+03  0.62707979993E+02  0.16291021077E+03  0.41800000000E+01 0. -1.
        -11    1    1    2    0    0  0.23639283449E+02 -0.94325563205E+02  0.19897341063E+02  0.99257401625E+02  0.00000000000E+00 0.  1.
         11    1    1    2    0    0  0.32728771607E+02 -0.88036331706E+02  0.12527127769E+03  0.15657094624E+03  0.00000000000E+00 0. -1.
</event>
<event>
 7    1  0.2530765E-009  0.9870349E+02  0.7561462E-02  0.1283046E+00
          1   -1    0    0  501    0  0.00000000000E+00  0.00000000000E+00  0.29221808515E+03  0.29221808515E+03  0.00000000000E+00 0. -1.
         -1   -1    0    0    0  501 -0.00000000000E+00 -0.00000000000E+00 -0.51503725429E+02  0.51503725429E+02  0.00000000000E+00 0.  1.
         25    2    1    2    0    0  0.18992468106E+01 -0.33109576422E+02  0.20314356591E+03  0.24086162607E+03  0.12508862199E+03 0.  0.
          5    1    3    3  502    0 -0.41192927551E+02 -0.48927401852E+02  0.17614285934E+03  0.18744206366E+03  0.41800000000E+01 0. -1.
         -5    1    3    3    0  502  0.43092174362E+02  0.15817825430E+02  0.27000706570E+02  0.53419562408E+02  0.41800000000E+01 0. -1.
        -11    1    1    2    0    0  0.31144945815E+02  0.42661918628E+02  0.12487943328E+01  0.52835654989E+02  0.00000000000E+00 0.  1.
         11    1    1    2    0    0 -0.33044192626E+02 -0.95523422056E+01  0.36321999481E+02  0.50024529525E+02  0.00000000000E+00 0. -1.
</event>
<event>
 7    1  0.2530765E-009  0.8906002E+02  0.7561462E-02  0.1305144E+00
         -2   -1    0    0    0  501 -0.00000000000E+00  0.00000000000E+00  0.26015460812E+02  0.26015460812E+02  0.00000000000E+00 0.  1.
          2   -1    0    0  501    0  0.00000000000E+00 -0.00000000000E+00 -0.71846315185E+03  0.71846315185E+03  0.00000000000E+00 0. -1.
         25    2    1    2    0    0  0.23487554315E+01 -0.44900455000E+02 -0.55907861293E+03  0.57466318186E+03  0.12508920673E+03 0.  0.
          5    1    3    3  502    0 -0.10984944902E+02  0.33810467832E+02 -0.65409606386E+02  0.74563434451E+02  0.41800000000E+01 0. -1.
         -5    1    3    3    0  502  0.13333700334E+02 -0.78710922831E+02 -0.49366900654E+03  0.50009974741E+03  0.41800000000E+01 0. -1.
        -11    1    1    2    0    0  0.20269020516E+02  0.25580121971E+02  0.54076152996E+00  0.32641511235E+02  0.00000000000E+00 0.  1.
         11    1    1    2    0    0 -0.22617775947E+02  0.19320333029E+02 -0.13390983964E+03  0.13717391957E+03  0.00000000000E+00 0. -1.
</event>
<event>
 7    1  0.2530765E-009  0.1055641E+03  0.7561462E-02  0.1269012E+00
          2   -1    0    0  501    0  0.00000000000E+00  0.00000000000E+00  0.14980991318E+03  0.14980991318E+03  0.00000000000E+00 0. -1.
         -2   -1    0    0    0  501 -0.00000000000E+00 -0.00000000000E+00 -0.12436411645E+03  0.12436411645E+03  0.00000000000E+00 0.  1.
         25    2    1    2    0    0 -0.21856876375E+02 -0.41713456484E+02  0.83278644662E+02  0.15748216373E+03  0.12509022240E+03 0.  0.
          5    1    3    3  502    0 -0.61800858902E+02 -0.62641879284E+02  0.50141453688E+02  0.10136562030E+03  0.41800000000E+01 0. -1.
         -5    1    3    3    0  502  0.39943982527E+02  0.20928422800E+02  0.33137190974E+02  0.56116543432E+02  0.41800000000E+01 0. -1.
        -11    1    1    2    0    0  0.33649211590E+02  0.52105960611E+02 -0.57542704567E+01  0.62292954660E+02  0.00000000000E+00 0. -1.
         11    1    1    2    0    0 -0.11792335215E+02 -0.10392504128E+02 -0.52078577474E+02  0.54398911236E+02  0.00000000000E+00 0.  1.
</event>
<event>
 7    1  0.2530765E-009  0.8242609E+02  0.7561462E-02  0.1322304E+00
         -1   -1    0    0    0  501 -0.00000000000E+00  0.00000000000E+00  0.61435063001E+02  0.61435063001E+02  0.00000000000E+00 0.  1.
          1   -1    0    0  501    0  0.00000000000E+00 -0.00000000000E+00 -0.21271621444E+03  0.21271621444E+03  0.00000000000E+00 0. -1.
         25    2    1    2    0    0 -0.32076302592E+02 -0.11705300015E+02 -0.96733749117E+02  0.16177293755E+03  0.12508861606E+03 0.  0.
          5    1    3    3  502    0  0.11658807658E+02 -0.52792159251E+02 -0.83546950586E+01  0.54865409904E+02  0.41800000000E+01 0.  1.
         -5    1    3    3    0  502 -0.43735110250E+02  0.41086859236E+02 -0.88379054058E+02  0.10690752764E+03  0.41800000000E+01 0.  1.
        -11    1    1    2    0    0 -0.67191346743E+01  0.94732590098E+01 -0.69705912724E+02  0.70666849906E+02  0.00000000000E+00 0. -1.
         11    1    1    2    0    0  0.38795437267E+02  0.22320410049E+01  0.15158510398E+02  0.41711489991E+02  0.00000000000E+00 0.  1.
</event>
<event>
 7    1  0.2530765E-009  0.8353054E+02  0.7561462E-02  0.1319321E+00
          4   -1    0    0  501    0  0.00000000000E+00  0.00000000000E+00  0.10331459988E+02  0.10331459988E+02  0.00000000000E+00 0. -1.
         -4   -1    0    0    0  501 -0.00000000000E+00 -0.00000000000E+00 -0.13795994116E+04  0.13795994116E+04  0.00000000000E+00 0.  1.
         25    2    1    2    0    0  0.34612193132E+01 -0.17635420126E+02 -0.10487736374E+04  0.10563601331E+04  0.12509036826E+03 0.  0.
          5    1    3    3  502    0 -0.33867841385E+02 -0.27037282942E+02 -0.13671663144E+03  0.14348154955E+03  0.41800000000E+01 0.  1.
         -5    1    3    3    0  502  0.37329060698E+02  0.94018628157E+01 -0.91205700597E+03  0.91287858357E+03  0.41800000000E+01 0.  1.
        -11    1    1    2    0    0  0.36039013027E+02  0.25984085940E+02 -0.10021507786E+03  0.10962228337E+03  0.00000000000E+00 0. -1.
         11    1    1    2    0    0 -0.39500232340E+02 -0.83486658134E+01 -0.22027923635E+03  0.22394845510E+03  0.00000000000E+00 0.  1.
</event>
<event>
 7    1  0.2530765E-009  0.1101975E+03  0.7561462E-02  0.1260205E+00
         -2   -1    0    0    0  501 -0.00000000000E+00  0.00000000000E+00  0.57097252636E+02  0.57097252636E+02  0.00000000000E+00 0.  1.
          2   -1    0    0  501    0  0.00000000000E+00 -0.00000000000E+00 -0.30444789182E+03  0.30444789182E+03  0.00000000000E+00 0. -1.
         25    2    1    2    0    0  0.30173650071E+02  0.66857858522E+02 -0.11679858959E+03  0.18620009358E+03  0.12509253342E+03 0.  0.
          5    1    3    3  502    0 -0.14044899452E+02 -0.20940554115E+02 -0.75109511768E+02  0.79339001540E+02  0.41800000000E+01 0.  1.
         -5    1    3    3    0  502  0.44218549523E+02  0.87798412637E+02 -0.41689077817E+02  0.10686109204E+03  0.41800000000E+01 0.  1.
        -11    1    1    2    0    0 -0.15058428027E+02 -0.76857823839E+02 -0.50319522552E+02  0.93091007567E+02  0.00000000000E+00 0.  1.
         11    1    1    2    0    0 -0.15115222044E+02  0.99999653170E+01 -0.80232527045E+02  0.82254043304E+02  0.00000000000E+00 0. -1.
</event>
<event>
 7    1  0.2530765E-009  0.8108736E+02  0.7561462E-02  0.1325994E+00
         -1   -1    0    0    0  501 -0.00000000000E+00  0.00000000000E+00  0.77517495943E+03  0.77517495943E+03  0.00000000000E+00 0.  1.
          1   -1    0    0  501    0  0.00000000000E+00 -0.00000000000E+00 -0.19948180600E+02  0.19948180600E+02  0.00000000000E+00 0. -1.
         25    2    1    2    0    0 -0.46177488335E+02 -0.46204196851E+01  0.53559907784E+03  0.55196486111E+03  0.12508048212E+03 0.  0.
          5    1    3    3  502    0 -0.37592991113E+02 -0.38819574410E+02  0.49529240019E+03  0.49824916099E+03  0.41800000000E+01 0.  1.
         -5    1    3    3    0  502 -0.85844972217E+01  0.34199154725E+02  0.40306677654E+02  0.53715700125E+02  0.41800000000E+01 0.  1.
        -11    1    1    2    0    0  0.37071083172E+02  0.28597274569E+02  0.21094826519E+03  0.21608155846E+03  0.00000000000E+00 0.  1.
         11    1    1    2    0    0  0.91064051624E+01 -0.23976854884E+02  0.86794357995E+01  0.27076720460E+02  0.00000000000E+00 0. -1.
</event>
<event>
 7    1  0.2530765E-009  0.1776718E+03  0.7561462E-02  0.1170075E+00
          2   -1    0    0  501    0  0.00000000000E+00  0.00000000000E+00  0.50601973070E+03  0.50601973070E+03  0.00000000000E+00 0.  1.
         -2   -1    0    0    0  501 -0.00000000000E+00 -0.00000000000E+00 -0.11674870857E+03  0.11674870857E+03  0.00000000000E+00 0. -1.
         25    2    1    2    0    0  0.16149273127E+02 -0.16034246911E+03  0.38704607713E+03  0.43752027014E+03  0.12509522190E+03 0.  0.
          5    1    3    3  502    0 -0.23477838022E+02  0.47557273163E+01  0.15076210137E+02  0.28611017678E+02  0.41800000000E+01 0.  1.
         -5    1    3    3    0  502  0.39627111149E+02 -0.16509819642E+03  0.37196986699E+03  0.40890925246E+03  0.41800000000E+01 0.  1.
        -11    1    1    2    0    0 -0.53558121978E+01  0.69686367723E+02  0.46333372275E+02  0.83854969781E+02  0.00000000000E+00 0.  1.
         11    1    1    2    0    0 -0.10793460929E+02  0.90656101386E+02 -0.44108427278E+02  0.10139319935E+03  0.00000000000E+00 0. -1.
</event>
<event>
 7    1  0.2530765E-009  0.1984973E+03  0.7561462E-02  0.1151013E+00
         -1   -1    0    0    0  501 -0.00000000000E+00  0.00000000000E+00  0.12185029416E+03  0.12185029416E+03  0.00000000000E+00 0.  1.
          1   -1    0    0  501    0  0.00000000000E+00 -0.00000000000E+00 -0.41367723244E+03  0.41367723244E+03  0.00000000000E+00 0. -1.
         25    2    1    2    0    0 -0.38075166117E+02 -0.17368604569E+03 -0.24814743266E+03  0.32991159686E+03  0.12509177696E+03 0.  0.
          5    1    3    3  502    0 -0.74802082563E+02 -0.10013201666E+03 -0.19589235613E+03  0.23240709951E+03  0.41800000000E+01 0.  1.
         -5    1    3    3    0  502  0.36726916446E+02 -0.73554029033E+02 -0.52255076533E+02  0.97504497343E+02  0.41800000000E+01 0.  1.
        -11    1    1    2    0    0 -0.17188123015E+02  0.70500272896E+02  0.15878813331E+02  0.74282277590E+02  0.00000000000E+00 0.  1.
         11    1    1    2    0    0  0.55263289132E+02  0.10318577279E+03 -0.59558318954E+02  0.13133365216E+03  0.00000000000E+00 0. -1.
</event>
<event>
 7    1  0.2530765E-009  0.1115808E+03  0.7561462E-02  0.1257670E+00
         -1   -1    0    0    0  501 -0.00000000000E+00  0.00000000000E+00  0.78016526517E+02  0.78016526517E+02  0.00000000000E+00 0.  1.
          1   -1    0    0  501    0  0.00000000000E+00 -0.00000000000E+00 -0.28072400388E+03  0.28072400388E+03  0.00000000000E+00 0. -1.
         25    2    1    2    0    0  0.41627960727E+02  0.22831286081E+02 -0.21761370544E+03  0.25545543333E+03  0.12509036288E+03 0.  0.
          5    1    3    3  502    0  0.37771415800E+02 -0.41671048944E+02 -0.48551298812E+02  0.74416780285E+02  0.41800000000E+01 0.  1.
         -5    1    3    3    0  502  0.38565449270E+01  0.64502335025E+02 -0.16906240663E+03  0.18103865305E+03  0.41800000000E+01 0.  1.
        -11    1    1    2    0    0 -0.20298723731E+02 -0.57683587975E+02  0.12030200332E+02  0.62323031271E+02  0.00000000000E+00 0.  1.
         11    1    1    2    0    0 -0.21329236996E+02  0.34852301894E+02  0.28760277478E+01  0.40962065789E+02  0.00000000000E+00 0. -1.
</event>
<event>
 7    1  0.2530765E-009  0.1184191E+03  0.7561462E-02  0.1245728E+00
         -1   -1    0    0    0  501 -0.00000000000E+00  0.00000000000E+00  0.22245473935E+03  0.22245473935E+03  0.00000000000E+00 0.  1.
          1   -1    0    0  501    0  0.00000000000E+00 -0.00000000000E+00 -0.83468767098E+02  0.83468767098E+02  0.00000000000E+00 0. -1.
         25    2    1    2    0    0 -0.44823928667E+02 -0.61099667722E+02  0.43389160906E+02  0.15255355052E+03  0.12509041735E+03 0.  0.
          5    1    3    3  502    0 -0.84080890617E+02 -0.60591381186E+02  0.44942740712E+02  0.11304085095E+03  0.41800000000E+01 0. -1.
         -5    1    3    3    0  502  0.39256961949E+02 -0.50828653680E+00 -0.15535798063E+01  0.39512699565E+02  0.41800000000E+01 0. -1.
        -11    1    1    2    0    0 -0.69015875060E+01  0.35041757094E+02  0.87980030375E+02  0.94952843007E+02  0.00000000000E+00 0.  1.
         11    1    1    2    0    0  0.51725516173E+02  0.26057910628E+02  0.76167809672E+01  0.58417112921E+02  0.00000000000E+00 0. -1.
</event>
<event>
 7    1  0.3121258E-009  0.1337428E+03  0.7561462E-02  0.1222005E+00
          4   -1    0    0  501    0  0.00000000000E+00  0.00000000000E+00  0.11841857712E+03  0.11841857712E+03  0.00000000000E+00 0. -1.
         -4   -1    0    0    0  501 -0.00000000000E+00 -0.00000000000E+00 -0.20423258227E+03  0.20423258227E+03  0.00000000000E+00 0.  1.
         25    2    1    2    0    0 -0.86207535749E+02 -0.68536573237E+02 -0.60338783965E+02  0.17724906165E+03  0.12508980740E+03 0.  0.
          5    1    3    3  502    0 -0.51243883705E+02 -0.97317526416E+02 -0.11737611703E+02  0.11068821298E+03  0.41800000000E+01 0. -1.
         -5    1    3    3    0  502 -0.34963652044E+02  0.28780953178E+02 -0.48601172262E+02  0.66560848668E+02  0.41800000000E+01 0. -1.
        -11    1    1    2    0    0  0.49782799146E+02  0.26767494461E+02  0.32498921572E+02  0.65199737376E+02  0.00000000000E+00 0. -1.
         11    1    1    2    0    0  0.36424736603E+02  0.41769078777E+02 -0.57974142762E+02  0.80202360361E+02  0.00000000000E+00 0.  1.
</event>
<event>
 7    1  0.2530765E-009  0.1599391E+03  0.7561462E-02  0.1188766E+00
         -2   -1    0    0    0  501 -0.00000000000E+00  0.00000000000E+00  0.77522623495E+02  0.77522623495E+02  0.00000000000E+00 0. -1.
          2   -1    0    0  501    0  0.00000000000E+00 -0.00000000000E+00 -0.78647443128E+03  0.78647443128E+03  0.00000000000E+00 0.  1.
         25    2    1    2    0    0 -0.10038444298E+03  0.11864514894E+03 -0.89807887308E+02  0.21878360801E+03  0.12508837977E+03 0.  0.
          5    1    3    3  502    0 -0.77738975846E+02  0.55213662650E+02  0.12465122961E+02  0.96253564086E+02  0.41800000000E+01 0. -1.
         -5    1    3    3    0  502 -0.22645467131E+02  0.63431486289E+02 -0.10227301027E+03  0.12253004392E+03  0.41800000000E+01 0. -1.
        -11    1    1    2    0    0  0.32324126807E+02 -0.54862816964E+02 -0.10596054385E+03  0.12362206402E+03  0.00000000000E+00 0. -1.
         11    1    1    2    0    0  0.68060316170E+02 -0.63782331974E+02 -0.51318337663E+03  0.52159138275E+03  0.00000000000E+00 0.  1.
</event>
<event>
 7    1  0.2530765E-009  0.8665656E+02  0.7561462E-02  0.1311156E+00
          2   -1    0    0  501    0  0.00000000000E+00  0.00000000000E+00  0.19935630018E+03  0.19935630018E+03  0.00000000000E+00 0. -1.
         -2   -1    0    0    0  501 -0.00000000000E+00 -0.00000000000E+00 -0.80191881867E+02  0.80191881867E+02  0.00000000000E+00 0.  1.
         25    2    1    2    0    0  0.52297178193E+01 -0.38603401305E+02  0.91380704834E+01  0.13133527980E+03  0.12509148192E+03 0.  0.
          5    1    3    3  502    0  0.34196590911E+02 -0.22410203254E+02  0.58630353822E+02  0.71600382884E+02  0.41800000000E+01 0.  1.
         -5    1    3    3    0  502 -0.28966873092E+02 -0.16193198051E+02 -0.49492283339E+02  0.59734896919E+02  0.41800000000E+01 0.  1.
        -11    1    1    2    0    0 -0.27032488672E+02 -0.21685895094E+02  0.31430861875E+02  0.46786029625E+02  0.00000000000E+00 0. -1.
         11    1    1    2    0    0  0.21802770853E+02  0.60289296399E+02  0.78595485958E+02  0.10142687262E+03  0.00000000000E+00 0.  1.
</event>
<event>
 7    1  0.2530765E-009  0.8406894E+02  0.7561462E-02  0.1317885E+00
          2   -1    0    0  501    0  0.00000000000E+00  0.00000000000E+00  0.14292696207E+03  0.14292696207E+03  0.00000000000E+00 0. -1.
         -2   -1    0    0    0  501 -0.00000000000E+00 -0.00000000000E+00 -0.90841859183E+02  0.90841859183E+02  0.00000000000E+00 0.  1.
         25    2    1    2    0    0  0.14157303655E+02 -0.33372072796E+02  0.43210902561E+02  0.13721958754E+03  0.12509160090E+03 0.  0.
          5    1    3    3  502    0  0.58128325878E+02 -0.42622474603E+02  0.54782521256E+02  0.90632083976E+02  0.41800000000E+01 0.  1.
         -5    1    3    3    0  502 -0.43971022223E+02  0.92504018063E+01 -0.11571618695E+02  0.46587503562E+02  0.41800000000E+01 0.  1.
        -11    1    1    2    0    0 -0.13805119829E+02 -0.32521348251E+01 -0.35960379417E+02  0.38656262135E+02  0.00000000000E+00 0.  1.
         11    1    1    2    0    0 -0.35218382626E+00  0.36624207622E+02  0.44834579739E+02  0.57892971575E+02  0.00000000000E+00 0. -1.
</event>
<event>
 7    1  0.2530765E-009  0.1132334E+03  0.7561462E-02  0.1254697E+00
         -2   -1    0    0    0  501 -0.00000000000E+00  0.00000000000E+00  0.70984527106E+02  0.70984527106E+02  0.00000000000E+00 0.  1.
          2   -1    0    0  501    0  0.00000000000E+00 -0.00000000000E+00 -0.22098874161E+03  0.22098874161E+03  0.00000000000E+00 0. -1.
         25    2    1    2    0    0 -0.36887253096E+02  0.97605631869E+01 -0.24248995079E+02  0.13301259170E+03  0.12509355600E+03 0.  0.
          5    1    3    3  502    0  0.39288436757E+02 -0.23658922696E+02 -0.18152739124E+02  0.49500709325E+02  0.41800000000E+01 0. -1.
         -5    1    3    3    0  502 -0.76175689853E+02  0.33419485883E+02 -0.60962559554E+01  0.83511882376E+02  0.41800000000E+01 0. -1.
        -11    1    1    2    0    0 -0.17410839499E+02 -0.33585767898E+02 -0.45382142236E+02  0.59081976705E+02  0.00000000000E+00 0. -1.
         11    1    1    2    0    0  0.54298092595E+02  0.23825204711E+02 -0.80373077191E+02  0.99878700313E+02  0.00000000000E+00 0.  1.
</event>
<event>
 7    1  0.2530765E-009  0.1469772E+03  0.7561462E-02  0.1204237E+00
          2   -1    0    0  501    0  0.00000000000E+00  0.00000000000E+00  0.95002219509E+03  0.95002219509E+03  0.00000000000E+00 0. -1.
         -2   -1    0    0    0  501 -0.00000000000E+00 -0.00000000000E+00 -0.25534081520E+02  0.25534081520E+02  0.00000000000E+00 0.  1.
         25    2    1    2    0    0 -0.83009046515E+02 -0.68769862633E+02  0.59049476776E+03  0.61314812584E+03  0.12508700035E+03 0.  0.
          5    1    3    3  502    0 -0.46467893021E+02 -0.96530413837E+02  0.50258362593E+03  0.51389216702E+03  0.41800000000E+01 0.  1.
         -5    1    3    3    0  502 -0.36541153494E+02  0.27760551204E+02  0.87911141837E+02  0.99255958818E+02  0.41800000000E+01 0.  1.
        -11    1    1    2    0    0  0.44249736694E+02  0.87167703299E+02  0.23011680209E+03  0.25001997980E+03  0.00000000000E+00 0.  1.
         11    1    1    2    0    0  0.38759309821E+02 -0.18397840666E+02  0.10387654372E+03  0.11238817097E+03  0.00000000000E+00 0. -1.
</event>
<event>
 7    1  0.2530765E-009  0.8687648E+02  0.7561462E-02  0.1310597E+00
          1   -1    0    0  501    0  0.00000000000E+00  0.00000000000E+00  0.83411973308E+03  0.83411973308E+03  0.00000000000E+00 0. -1.
         -1   -1    0    0    0  501 -0.00000000000E+00 -0.00000000000E+00 -0.14980898899E+02  0.14980898899E+02  0.00000000000E+00 0.  1.
         25    2    1    2    0    0  0.25533052293E+02  0.13777556270E+02  0.47159300042E+03  0.48876245083E+03  0.12508803891E+03 0.  0.
          5    1    3    3  502    0 -0.18964819795E+02  0.26072115041E+02  0.28446901842E+02  0.43198590219E+02  0.41800000000E+01 0.  1.
         -5    1    3    3    0  502  0.44497872088E+02 -0.12294558771E+02  0.44314609857E+03  0.44556386061E+03  0.41800000000E+01 0.  1.
        -11    1    1    2    0    0  0.61596880143E+01  0.35647468841E+02  0.11952697685E+03  0.12488147175E+03  0.00000000000E+00 0. -1.
         11    1    1    2    0    0 -0.31692740307E+02 -0.49425025111E+02  0.22801885691E+03  0.23545670940E+03  0.00000000000E+00 0.  1.
</event>
<event>
 7    1  0.2530765E-009  0.1072520E+03  0.7561462E-02  0.1265745E+00
          2   -1    0    0  501    0  0.00000000000E+00  0.00000000000E+00  0.26597239940E+03  0.26597239940E+03  0.00000000000E+00 0. -1.
         -2   -1    0    0    0  501 -0.00000000000E+00 -0.00000000000E+00 -0.44643075154E+02  0.44643075154E+02  0.00000000000E+00 0.  1.
         25    2    1    2    0    0 -0.16254067811E+02 -0.46667357067E+01  0.14930875569E+03  0.19551363486E+03  0.12508598542E+03 0.  0.
          5    1    3    3  502    0 -0.21323393985E+02  0.58577191762E+02  0.69049164145E+02  0.93119460881E+02  0.41800000000E+01 0.  1.
         -5    1    3    3    0  502  0.50693261739E+01 -0.63243927468E+02  0.80259591548E+02  0.10239417398E+03  0.41800000000E+01 0.  1.
        -11    1    1    2    0    0  0.12904560823E+02  0.45590425245E+02  0.28613226689E+02  0.55350982878E+02  0.00000000000E+00 0.  1.
         11    1    1    2    0    0  0.33495069879E+01 -0.40923689538E+02  0.43407341868E+02  0.59750856818E+02  0.00000000000E+00 0. -1.
</event>
<event>
 7    1  0.2530765E-009  0.2627526E+03  0.7561462E-02  0.1105501E+00
          1   -1    0    0  501    0  0.00000000000E+00  0.00000000000E+00  0.75485217167E+02  0.75485217167E+02  0.00000000000E+00 0. -1.
         -1   -1    0    0    0  501 -0.00000000000E+00 -0.00000000000E+00 -0.16905510768E+04  0.16905510768E+04  0.00000000000E+00 0.  1.
         25    2    1    2    0    0  0.47500469727E+02 -0.24624453498E+03 -0.13830245389E+04  0.14111332266E+04  0.12508973706E+03 0.  0.
          5    1    3    3  502    0  0.67613252053E+02 -0.70829011422E+02 -0.63647806024E+03  0.64397988655E+03  0.41800000000E+01 0.  1.
         -5    1    3    3    0  502 -0.20112782325E+02 -0.17541552356E+03 -0.74654647869E+03  0.76715334006E+03  0.41800000000E+01 0.  1.
        -11    1    1    2    0    0 -0.36258460129E+02  0.17095953076E+03 -0.96977503610E+02  0.19986613844E+03  0.00000000000E+00 0.  1.
         11    1    1    2    0    0 -0.11242009598E+02  0.75285004224E+02 -0.13506381706E+03  0.15503692889E+03  0.00000000000E+00 0. -1.
</event>
<event>
 7    1  0.2530765E-009  0.8145667E+02  0.7561462E-02  0.1324968E+00
          1   -1    0    0  501    0  0.00000000000E+00  0.00000000000E+00  0.10900252303E+03  0.10900252303E+03  0.00000000000E+00 0. -1.
         -1   -1    0    0    0  501 -0.00000000000E+00 -0.00000000000E+00 -0.12217327806E+03  0.12217327806E+03  0.00000000000E+00 0.  1.
         25    2    1    2    0    0 -0.98429836629E+00  0.10312367899E+02 -0.51214270678E+02  0.13556351671E+03  0.12508897540E+03 0.  0.
          5    1    3    3  502    0  0.59849412263E+02  0.15934173716E+02 -0.13122698168E+02  0.63447046010E+02  0.41800000000E+01 0.  1.
         -5    1    3    3    0  502 -0.60833710629E+02 -0.56218058166E+01 -0.38091572511E+02  0.72116470698E+02  0.41800000000E+01 0.  1.
        -11    1    1    2    0    0  0.19473911776E+02 -0.29280429986E+01 -0.23655960074E+02  0.30780044228E+02  0.00000000000E+00 0.  1.
         11    1    1    2    0    0 -0.18489613410E+02 -0.73843249007E+01  0.61699475728E+02  0.64832240154E+02  0.00000000000E+00 0. -1.
</event>
<event>
 7    1  0.2530765E-009  0.1122112E+03  0.7561462E-02  0.1256529E+00
         -3   -1    0    0    0  501 -0.00000000000E+00  0.00000000000E+00  0.28216390801E+02  0.28216390801E+02  0.00000000000E+00 0.  1.
          3   -1    0    0  501    0  0.00000000000E+00 -0.00000000000E+00 -0.52660178211E+03  0.52660178211E+03  0.00000000000E+00 0. -1.
         25    2    1    2    0    0 -0.38022359938E+02 -0.39995263078E+02 -0.26414581729E+03  0.29743211331E+03  0.12509008080E+03 0.  0.
          5    1    3    3  502    0 -0.58288435072E+02  0.22280959709E+02 -0.18105176356E+03  0.19154946181E+03  0.41800000000E+01 0.  1.
         -5    1    3    3    0  502  0.20266075134E+02 -0.62276222786E+02 -0.83094053725E+02  0.10588265151E+03  0.41800000000E+01 0.  1.
        -11    1    1    2    0    0  0.23526225816E+02  0.64015303802E+02 -0.10550153930E+03  0.12562649886E+03  0.00000000000E+00 0.  1.
         11    1    1    2    0    0  0.14496134122E+02 -0.24020040724E+02 -0.12873803472E+03  0.13175956074E+03  0.00000000000E+00 0. -1.
</event>
<event>
 7    1  0.2530765E-009  0.1909385E+03  0.7561462E-02  0.1157618E+00
          1   -1    0    0  501    0  0.00000000000E+00  0.00000000000E+00  0.14201529684E+03  0.14201529684E+03  0.00000000000E+00 0. -1.
         -1   -1    0    0    0  501 -0.00000000000E+00 -0.00000000000E+00 -0.27896096848E+03  0.27896096848E+03  0.00000000000E+00 0.  1.
         25    2    1    2    0    0  0.14460273478E+03  0.78970230894E+02 -0.96172967295E+02  0.22812403401E+03  0.12508032211E+03 0.  0.
          5    1    3    3  502    0  0.15536334321E+03  0.97105566408E+02 -0.75199707858E+02  0.19809020143E+03  0.41800000000E+01 0.  1.
         -5    1    3    3    0  502 -0.10760608425E+02 -0.18135335514E+02 -0.20973259437E+02  0.30033832578E+02  0.41800000000E+01 0.  1.
        -11    1    1    2    0    0 -0.33860168578E+02 -0.53771839532E+02  0.16504970262E+02  0.65653147572E+02  0.00000000000E+00 0. -1.
         11    1    1    2    0    0 -0.11074256621E+03 -0.25198391362E+02 -0.57277674604E+02  0.12719908374E+03  0.00000000000E+00 0.  1.
</event>
<event>
 7    1  0.2530765E-009  0.3801199E+03  0.7561462E-02  0.1050889E+00
          2   -1    0    0  501    0  0.00000000000E+00  0.00000000000E+00  0.81427832605E+03  0.81427832605E+03  0.00000000000E+00 0. -1.
         -2   -1    0    0    0  501 -0.00000000000E+00 -0.00000000000E+00 -0.19471373375E+03  0.19471373375E+03  0.00000000000E+00 0.  1.
         25    2    1    2    0    0  0.35948265221E+03  0.79740151381E+02  0.44654499997E+03  0.59214540448E+03  0.12508986395E+03 0.  0.
          5    1    3    3  502    0  0.19126739979E+03  0.93229505062E+02  0.30464866941E+03  0.37162244686E+03  0.41800000000E+01 0. -1.
         -5    1    3    3    0  502  0.16821525242E+03 -0.13489353681E+02  0.14189633056E+03  0.22052295762E+03  0.41800000000E+01 0. -1.
        -11    1    1    2    0    0 -0.14052736429E+03 -0.75701027904E+02  0.84853659650E+02  0.18077259000E+03  0.00000000000E+00 0.  1.
         11    1    1    2    0    0 -0.21895528792E+03 -0.40391234773E+01  0.88165932678E+02  0.23607406531E+03  0.00000000000E+00 0. -1.
</event>
<event>
 7    1  0.2530765E-009  0.1100753E+03  0.7561462E-02  0.1260431E+00
         -1   -1    0    0    0  501 -0.00000000000E+00  0.00000000000E+00  0.58253089321E+03  0.58253089321E+03  0.00000000000E+00 0.  1.
          1   -1    0    0  501    0  0.00000000000E+00 -0.00000000000E+00 -0.21939574285E+02  0.21939574285E+02  0.00000000000E+00 0. -1.
         25    2    1    2    0    0 -0.51436353491E+01  0.29599117801E+02  0.28987913713E+03  0.31714476077E+03  0.12509324675E+03 0.  0.
          5    1    3    3  502    0 -0.54217730573E+02  0.51336798077E+02  0.16506229660E+03  0.18121275701E+03  0.41800000000E+01 0.  1.
         -5    1    3    3    0  502  0.49074095224E+02 -0.21737680275E+02  0.12481684053E+03  0.13593200376E+03  0.41800000000E+01 0.  1.
        -11    1    1    2    0    0 -0.28350677498E+02 -0.46156927348E+02  0.20171325666E+03  0.20885990704E+03  0.00000000000E+00 0.  1.
         11    1    1    2    0    0  0.33494312847E+02  0.16557809547E+02  0.68998925137E+02  0.78465799685E+02  0.00000000000E+00 0. -1.
</event>
<event>
 7    1  0.2530765E-009  0.4000213E+03  0.7561462E-02  0.1043772E+00
         -1   -1    0    0    0  501 -0.00000000000E+00  0.00000000000E+00  0.21698255382E+03  0.21698255382E+03  0.00000000000E+00 0.  1.
          1   -1    0    0  501    0  0.00000000000E+00 -0.00000000000E+00 -0.12328775515E+04  0.12328775515E+04  0.00000000000E+00 0. -1.
         25    2    1    2    0    0 -0.33433867269E+03 -0.20688863729E+03 -0.66256478224E+02  0.41787886859E+03  0.12509025387E+03 0.  0.
          5    1    3    3  502    0 -0.88698850916E+02 -0.56198163237E+01 -0.44654212864E+02  0.99551693184E+02  0.41800000000E+01 0.  1.
         -5    1    3    3    0  502 -0.24563982177E+03 -0.20126882096E+03 -0.21602265360E+02  0.31832717541E+03  0.41800000000E+01 0.  1.
        -11    1    1    2    0    0  0.29257161261E+03  0.18686872328E+03 -0.74138154110E+03  0.81863585172E+03  0.00000000000E+00 0.  1.
         11    1    1    2    0    0  0.41767060077E+02  0.20019914006E+02 -0.20825697832E+03  0.21334538496E+03  0.00000000000E+00 0. -1.
</event>
<event>
 7    1  0.2530765E-009  0.1310022E+03  0.7561462E-02  0.1225976E+00
         -2   -1    0    0    0  501 -0.00000000000E+00  0.00000000000E+00  0.59281182705E+02  0.59281182705E+02  0.00000000000E+00 0.  1.
          2   -1    0    0  501    0  0.00000000000E+00 -0.00000000000E+00 -0.42801800279E+03  0.42801800279E+03  0.00000000000E+00 0. -1.
         25    2    1    2    0    0 -0.17807175058E+02 -0.10889277824E+03 -0.14150681678E+03  0.21872694300E+03  0.12507023532E+03 0.  0.
          5    1    3    3  502    0  0.16918997737E+02 -0.29633884558E+02  0.16801014257E+02  0.38264423143E+02  0.41800000000E+01 0.  1.
         -5    1    3    3    0  502 -0.34726172795E+02 -0.79258893677E+02 -0.15830783104E+03  0.18046251985E+03  0.41800000000E+01 0.  1.
        -11    1    1    2    0    0  0.28634783926E+02 -0.28041143330E+01 -0.67358434514E+02  0.73245973322E+02  0.00000000000E+00 0. -1.
         11    1    1    2    0    0 -0.10827608868E+02  0.11169689257E+03 -0.15987156879E+03  0.19532626918E+03  0.00000000000E+00 0.  1.
</event>
<event>
 7    1  0.2530765E-009  0.1105827E+03  0.7561462E-02  0.1259495E+00
         -2   -1    0    0    0  501 -0.00000000000E+00  0.00000000000E+00  0.37597274689E+02  0.37597274689E+02  0.00000000000E+00 0.  1.
          2   -1    0    0  501    0  0.00000000000E+00 -0.00000000000E+00 -0.89149427590E+03  0.89149427590E+03  0.00000000000E+00 0. -1.
         25    2    1    2    0    0 -0.57919928941E+02  0.75411544473E+01 -0.79268592001E+03  0.80461775060E+03  0.12508864707E+03 0.  0.
          5    1    3    3  502    0 -0.81294138820E+02 -0.35158271312E+02 -0.47660551811E+03  0.48478359434E+03  0.41800000000E+01 0. -1.
         -5    1    3    3    0  502  0.23374209879E+02  0.42699425759E+02 -0.31608040189E+03  0.31983415626E+03  0.41800000000E+01 0. -1.
        -11    1    1    2    0    0  0.47433708277E+02 -0.31869753665E+02  0.68137752854E+00  0.57149822003E+02  0.00000000000E+00 0.  1.
         11    1    1    2    0    0  0.10486220664E+02  0.24328599218E+02 -0.61892458728E+02  0.67323977980E+02  0.00000000000E+00 0. -1.
</event>
<event>
 7    1  0.2530765E-009  0.1803743E+03  0.7561462E-02  0.1167441E+00
         -2   -1    0    0    0  501 -0.00000000000E+00  0.00000000000E+00  0.25586269489E+03  0.25586269489E+03  0.00000000000E+00 0.  1.
          2   -1    0    0  501    0  0.00000000000E+00 -0.00000000000E+00 -0.14323973633E+03  0.14323973633E+03  0.00000000000E+00 0. -1.
         25    2    1    2    0    0  0.14133887645E+01 -0.15725574484E+03  0.69775659901E+02  0.21271397490E+03  0.12508887022E+03 0.  0.
          5    1    3    3  502    0  0.43980179109E+02 -0.13519249240E+03  0.20260326891E+02  0.14366356324E+03  0.41800000000E+01 0. -1.
         -5    1    3    3    0  502 -0.42566790344E+02 -0.22063252435E+02  0.49515333011E+02  0.69050411667E+02  0.41800000000E+01 0. -1.
        -11    1    1    2    0    0 -0.28987867288E+02  0.12325210321E+03  0.59049347677E+02  0.13970756192E+03  0.00000000000E+00 0.  1.
         11    1    1    2    0    0  0.27574478524E+02  0.34003641626E+02 -0.16202049025E+02  0.46680894403E+02  0.00000000000E+00 0. -1.
</event>
<event>
 7    1  0.2530765E-009  0.2195195E+03  0.7561462E-02  0.1134242E+00
          1   -1    0    0  501    0  0.00000000000E+00  0.00000000000E+00  0.43068251766E+03  0.43068251766E+03  0.00000000000E+00 0. -1.
         -1   -1    0    0    0  501 -0.00000000000E+00 -0.00000000000E+00 -0.12156696228E+03  0.12156696228E+03  0.00000000000E+00 0.  1.
         25    2    1    2    0    0  0.11093057152E+03 -0.16722794789E+03  0.15465187172E+03  0.28255072909E+03  0.12508770854E+03 0.  0.
          5    1    3    3  502    0  0.30691692454E+02 -0.13515616332E+03  0.13564607063E+03  0.19397550708E+03  0.41800000000E+01 0. -1.
         -5    1    3    3    0  502  0.80238879062E+02 -0.32071784574E+02  0.19005801089E+02  0.88575222009E+02  0.41800000000E+01 0. -1.
        -11    1    1    2    0    0 -0.12936626987E+02  0.84899032274E+02  0.29452341699E+02  0.90788999501E+02  0.00000000000E+00 0. -1.
         11    1    1    2    0    0 -0.97993944529E+02  0.82328915621E+02  0.12501134196E+03  0.17890975135E+03  0.00000000000E+00 0.  1.
</event>
<event>
 7    1  0.2530765E-009  0.9340573E+02  0.7561462E-02  0.1294808E+00
         -1   -1    0    0    0  501 -0.00000000000E+00  0.00000000000E+00  0.73570056946E+02  0.73570056946E+02  0.00000000000E+00 0.  1.
          1   -1    0    0  501    0  0.00000000000E+00 -0.00000000000E+00 -0.20977166810E+03  0.20977166810E+03  0.00000000000E+00 0. -1.
         25    2    1    2    0    0 -0.22821984724E+01 -0.32336526336E+02 -0.16816111027E+02  0.13031208469E+03  0.12509036119E+03 0.  0.
          5    1    3    3  502    0 -0.25715644782E+02 -0.67783221663E+02  0.18460009767E+02  0.74927324030E+02  0.41800000000E+01 0. -1.
         -5    1    3    3    0  502  0.23433446309E+02  0.35446695327E+02 -0.35276120795E+02  0.55384760665E+02  0.41800000000E+01 0. -1.
        -11    1    1    2    0    0  0.30795821440E+02  0.35855782667E+01 -0.10590845175E+03  0.11035324708E+03  0.00000000000E+00 0. -1.
         11    1    1    2    0    0 -0.28513622968E+02  0.28750948070E+02 -0.13477048379E+02  0.42676393272E+02  0.00000000000E+00 0.  1.
</event>
<event>
 7    1  0.2530765E-009  0.1114988E+03  0.7561462E-02  0.1257819E+00
          1   -1    0    0  501    0  0.00000000000E+00  0.00000000000E+00  0.44244664388E+03  0.44244664388E+03  0.00000000000E+00 0. -1.
         -1   -1    0    0    0  501 -0.00000000000E+00 -0.00000000000E+00 -0.38450067663E+02  0.38450067663E+02  0.00000000000E+00 0.  1.
         25    2    1    2    0    0 -0.62741963156E+02  0.35805873418E+02  0.24829271290E+03  0.28725517203E+03  0.12509055946E+03 0.  0.
          5    1    3    3  502    0 -0.60148288289E+02 -0.16491852557E+02  0.21763667050E+03  0.22643540035E+03  0.41800000000E+01 0.  1.
         -5    1    3    3    0  502 -0.25936748670E+01  0.52297725975E+02  0.30656042399E+02  0.60819771679E+02  0.41800000000E+01 0.  1.
        -11    1    1    2    0    0  0.43187505399E+02  0.20899507420E+02  0.10367371681E+03  0.11423742640E+03  0.00000000000E+00 0. -1.
         11    1    1    2    0    0  0.19554457757E+02 -0.56705380838E+02  0.52030146506E+02  0.79404113115E+02  0.00000000000E+00 0.  1.
</event>
<event>
 7    1  0.2530765E-009  0.9031649E+02  0.7561462E-02  0.1302087E+00
         -2   -1    0    0    0  501 -0.00000000000E+00  0.00000000000E+00  0.14738644600E+02  0.14738644600E+02  0.00000000000E+00 0.  1.
          2   -1    0    0  501    0  0.00000000000E+00 -0.00000000000E+00 -0.12051135659E+04  0.12051135659E+04  0.00000000000E+00 0. -1.
         25    2    1    2    0    0  0.37646568209E+02  0.22518249445E+02 -0.94853529872E+03  0.95775253166E+03  0.12508542408E+03 0.  0.
          5    1    3    3  502    0  0.34560724253E+02  0.47546878256E+02 -0.90746904737E+03  0.90938038995E+03  0.41800000000E+01 0.  1.
         -5    1    3    3    0  502  0.30858439557E+01 -0.25028628811E+02 -0.41066251349E+02  0.48372141703E+02  0.41800000000E+01 0.  1.
        -11    1    1    2    0    0 -0.44975161362E+02 -0.50261951140E+02 -0.12780447045E+03  0.14450955518E+03  0.00000000000E+00 0.  1.
         11    1    1    2    0    0  0.73285931531E+01  0.27743701695E+02 -0.11403515210E+03  0.11759012363E+03  0.00000000000E+00 0. -1.
</event>
<event>
 7    1  0.2530765E-009  0.7033234E+02  0.7561462E-02  0.1358967E+00
          1   -1    0    0  501    0  0.00000000000E+00  0.00000000000E+00  0.40445813429E+02  0.40445813429E+02  0.00000000000E+00 0. -1.
         -1   -1    0    0    0  501 -0.00000000000E+00 -0.00000000000E+00 -0.44173896689E+03  0.44173896689E+03  0.00000000000E+00 0.  1.
         25    2    1    2    0    0  0.93420026426E+00 -0.29060246151E+02 -0.34459010684E+03  0.36774213838E+03  0.12508624213E+03 0.  0.
          5    1    3    3  502    0 -0.35359667223E+02 -0.53122718923E+02 -0.29393651198E+03  0.30081302300E+03  0.41800000000E+01 0.  1.
         -5    1    3    3    0  502  0.36293867487E+02  0.24062472772E+02 -0.50653594865E+02  0.66929115382E+02  0.41800000000E+01 0.  1.
        -11    1    1    2    0    0 -0.72942073565E+01  0.73930704019E+01  0.26377236237E+02  0.28348219387E+02  0.00000000000E+00 0. -1.
         11    1    1    2    0    0  0.63600070922E+01  0.21667175749E+02 -0.83080282854E+02  0.86094422550E+02  0.00000000000E+00 0.  1.
</event>
<event>
 7    1  0.2530765E-009  0.1029006E+03  0.7561462E-02  0.1274312E+00
          1   -1    0    0  501    0  0.00000000000E+00  0.00000000000E+00  0.85103459257E+03  0.85103459257E+03  0.00000000000E+00 0. -1.
         -1   -1    0    0    0  501 -0.00000000000E+00 -0.00000000000E+00 -0.16661578918E+02  0.16661578918E+02  0.00000000000E+00 0.  1.
         25    2    1    2    0    0 -0.43204744036E+02  0.31751854697E+02  0.53406372213E+03  0.55113150712E+03  0.12508816354E+03 0.  0.
          5    1    3    3  502    0 -0.61869369576E+02 -0.72285585628E+01  0.12453340238E+03  0.13930582063E+03  0.41800000000E+01 0. -1.
         -5    1    3    3    0  502  0.18664625540E+02  0.38980413259E+02  0.40953031975E+03  0.41182568650E+03  0.41800000000E+01 0. -1.
        -11    1    1    2    0    0  0.25006837899E+02 -0.60761254743E+02  0.18807054545E+03  0.19921797631E+03  0.00000000000E+00 0.  1.
         11    1    1    2    0    0  0.18197906136E+02  0.29009400046E+02  0.11223874607E+03  0.11734668806E+03  0.00000000000E+00 0. -1.
</event>
<event>
 7    1  0.2955047E-009  0.1143743E+03  0.7561462E-02  0.1252677E+00
          1   -1    0    0  501    0  0.00000000000E+00  0.00000000000E+00  0.85295603026E+02  0.85295603026E+02  0.00000000000E+00 0. -1.
         -1   -1    0    0    0  501 -0.00000000000E+00 -0.00000000000E+00 -0.26449346549E+03  0.26449346549E+03  0.00000000000E+00 0.  1.
         25    2    1    2    0    0 -0.77836765180E+02 -0.48067718583E+01 -0.17422723249E+02  0.14843368713E+03  0.12508933256E+03 0.  0.
          5    1    3    3  502    0  0.20627381402E+02 -0.12600475763E+02 -0.40097837669E+02  0.47006061723E+02  0.41800000000E+01 0. -1.
         -5    1    3    3    0  502 -0.98464146581E+02  0.77937039045E+01  0.22675114420E+02  0.10142762541E+03  0.41800000000E+01 0. -1.
        -11    1    1    2    0    0  0.50019018216E+02  0.37438459325E+02 -0.13990217711E+03  0.15321931856E+03  0.00000000000E+00 0.  1.
         11    1    1    2    0    0  0.27817746964E+02 -0.32631687467E+02 -0.21872962112E+02  0.48136062829E+02  0.00000000000E+00 0. -1.
</event>
<event>
 7    1  0.2530765E-009  0.2520986E+03  0.7561462E-02  0.1111986E+00
         -2   -1    0    0    0  501 -0.00000000000E+00  0.00000000000E+00  0.12465599524E+03  0.12465599524E+03  0.00000000000E+00 0.  1.
          2   -1    0    0  501    0  0.00000000000E+00 -0.00000000000E+00 -0.53163815781E+03  0.53163815781E+03  0.00000000000E+00 0. -1.
         25    2    1    2    0    0 -0.21883112254E+03 -0.65208556605E+02 -0.14764919115E+03  0.29930927330E+03  0.12508613587E+03 0.  0.
          5    1    3    3  502    0 -0.23434035667E+03 -0.62735364787E+02 -0.14551163454E+03  0.28291736770E+03  0.41800000000E+01 0. -1.
         -5    1    3    3    0  502  0.15509234126E+02 -0.24731918184E+01 -0.21375566048E+01  0.16391905599E+02  0.41800000000E+01 0. -1.
        -11    1    1    2    0    0  0.10345230848E+03 -0.15367253517E+02 -0.11205988120E+03  0.15328388560E+03  0.00000000000E+00 0. -1.
         11    1    1    2    0    0  0.11537881406E+03  0.80575810123E+02 -0.14727309023E+03  0.20370099415E+03  0.00000000000E+00 0.  1.
</event>
<event>
 7    1  0.2530765E-009  0.2369135E+03  0.7561462E-02  0.1121866E+00
         -1   -1    0    0    0  501 -0.00000000000E+00  0.00000000000E+00  0.10665205622E+03  0.10665205622E+03  0.00000000000E+00 0.  1.
          1   -1    0    0  501    0  0.00000000000E+00 -0.00000000000E+00 -0.84148570291E+03  0.84148570291E+03  0.00000000000E+00 0. -1.
         25    2    1    2    0    0  0.21083930585E+03 -0.63258549216E+02 -0.10382146721E+03  0.27364478636E+03  0.12509082744E+03 0.  0.
          5    1    3    3  502    0 -0.49532437070E+01 -0.34897247280E+02 -0.14969055558E+02  0.38521390360E+02  0.41800000000E+01 0. -1.
         -5    1    3    3    0  502  0.21579254955E+03 -0.28361301935E+02 -0.88852411654E+02  0.23512339600E+03  0.41800000000E+01 0. -1.
        -11    1    1    2    0    0 -0.66324054113E+02  0.12619842373E+02 -0.32924929380E+03  0.33610004171E+03  0.00000000000E+00 0. -1.
         11    1    1    2    0    0 -0.14451525173E+03  0.50638706843E+02 -0.30176288568E+03  0.33839293106E+03  0.00000000000E+00 0.  1.
</event>
<event>
 7    1  0.2530765E-009  0.1193173E+03  0.7561462E-02  0.1244228E+00
          1   -1    0    0  501    0  0.00000000000E+00  0.00000000000E+00  0.16662987718E+03  0.16662987718E+03  0.00000000000E+00 0. -1.
         -1   -1    0    0    0  501 -0.00000000000E+00 -0.00000000000E+00 -0.10820381789E+03  0.10820381789E+03  0.00000000000E+00 0.  1.
         25    2    1    2    0    0 -0.46319652093E+02  0.57594302703E+02  0.62591230979E+02  0.15820226450E+03  0.12509068880E+03 0.  0.
          5    1    3    3  502    0  0.21876896424E+02  0.71775949526E+02  0.38016848104E+02  0.84220773372E+02  0.41800000000E+01 0. -1.
         -5    1    3    3    0  502 -0.68196548517E+02 -0.14181646823E+02  0.24574382875E+02  0.73981491131E+02  0.41800000000E+01 0. -1.
        -11    1    1    2    0    0  0.60849709549E+00 -0.46707888810E+02 -0.36761757643E+02  0.59442610734E+02  0.00000000000E+00 0.  1.
         11    1    1    2    0    0  0.45711154997E+02 -0.10886413892E+02  0.32596585953E+02  0.57188819838E+02  0.00000000000E+00 0. -1.
</event>
<event>
 7    1  0.2530765E-009  0.1099954E+03  0.7561462E-02  0.1260578E+00
         -2   -1    0    0    0  501 -0.00000000000E+00  0.00000000000E+00  0.10158334931E+03  0.10158334931E+03  0.00000000000E+00 0.  1.
          2   -1    0    0  501    0  0.00000000000E+00 -0.00000000000E+00 -0.14600222151E+03  0.14600222151E+03  0.00000000000E+00 0. -1.
         25    2    1    2    0    0 -0.24801004520E+02  0.50126079118E+02 -0.26570092371E+02  0.13957553741E+03  0.12509055601E+03 0.  0.
          5    1    3    3  502    0  0.27062385167E+01  0.88437577354E+02 -0.88459285128E+01  0.89018265915E+02  0.41800000000E+01 0.  1.
         -5    1    3    3    0  502 -0.27507243037E+02 -0.38311498236E+02 -0.17724163858E+02  0.50557271495E+02  0.41800000000E+01 0.  1.
        -11    1    1    2    0    0 -0.21184326966E+02 -0.12121070205E+02  0.24707126704E+02  0.34729499879E+02  0.00000000000E+00 0.  1.
         11    1    1    2    0    0  0.45985331486E+02 -0.38005008913E+02 -0.42555906528E+02  0.73280533532E+02  0.00000000000E+00 0. -1.
</event>
<event>
 7    1  0.2659792E-009  0.1736097E+03  0.7561462E-02  0.1174135E+00
         -2   -1    0    0    0  501 -0.00000000000E+00  0.00000000000E+00  0.24007141043E+02  0.24007141043E+02  0.00000000000E+00 0.  1.
          2   -1    0    0  501    0  0.00000000000E+00 -0.00000000000E+00 -0.15784638958E+04  0.15784638958E+04  0.00000000000E+00 0. -1.
         25    2    1    2    0    0 -0.39753681784E+02  0.14759771159E+03 -0.10273862862E+04  0.10462004672E+04  0.12508955519E+03 0.  0.
          5    1    3    3  502    0 -0.26315183554E+02 -0.11984958581E+02 -0.76037002007E+02  0.81456897755E+02  0.41800000000E+01 0. -1.
         -5    1    3    3    0  502 -0.13438498230E+02  0.15958267017E+03 -0.95134928424E+03  0.96474356949E+03  0.41800000000E+01 0. -1.
        -11    1    1    2    0    0  0.40985372077E+02 -0.77308544724E+02 -0.41385953571E+03  0.42300842439E+03  0.00000000000E+00 0. -1.
         11    1    1    2    0    0 -0.12316902923E+01 -0.70289166863E+02 -0.11321093283E+03  0.13326214523E+03  0.00000000000E+00 0.  1.
</event>
<event>
 7    1  0.2530765E-009  0.1073051E+03  0.7561462E-02  0.1265643E+00
          1   -1    0    0  501    0  0.00000000000E+00  0.00000000000E+00  0.18450577668E+03  0.18450577668E+03  0.00000000000E+00 0. -1.
         -1   -1    0    0    0  501 -0.00000000000E+00 -0.00000000000E+00 -0.97298704461E+02  0.97298704461E+02  0.00000000000E+00 0.  1.
         25    2    1    2    0    0 -0.52021802386E+02  0.50264850576E+02  0.84190288852E+02  0.16723702149E+03  0.12508954190E+03 0.  0.
          5    1    3    3  502    0 -0.66187990853E+01  0.74803879022E+02  0.87463102833E+02  0.11535465129E+03  0.41800000000E+01 0. -1.
         -5    1    3    3    0  502 -0.45403003301E+02 -0.24539028446E+02 -0.32728139812E+01  0.51882370196E+02  0.41800000000E+01 0. -1.
        -11    1    1    2    0    0  0.34173233553E+02 -0.58664781674E+02 -0.31474802792E+02  0.74833346251E+02  0.00000000000E+00 0.  1.
         11    1    1    2    0    0  0.17848568833E+02  0.83999310987E+01  0.34491586159E+02  0.39734113400E+02  0.00000000000E+00 0. -1.
</event>
<event>
 7    1  0.2530765E-009  0.1009900E+03  0.7561462E-02  0.1278228E+00
         -4   -1    0    0    0  501 -0.00000000000E+00  0.00000000000E+00  0.44593114550E+02  0.44593114550E+02  0.00000000000E+00 0. -1.
          4   -1    0    0  501    0  0.00000000000E+00 -0.00000000000E+00 -0.36822278193E+03  0.36822278193E+03  0.00000000000E+00 0.  1.
         25    2    1    2    0    0 -0.54397431453E+02  0.31415619782E+02 -0.13538863784E+03  0.19473942385E+03  0.12508932101E+03 0.  0.
          5    1    3    3  502    0 -0.55890679472E+02 -0.56541372923E+01 -0.14553010173E+03  0.15605197926E+03  0.41800000000E+01 0.  1.
         -5    1    3    3    0  502  0.14932480196E+01  0.37069757074E+02  0.10141463893E+02  0.38687444592E+02  0.41800000000E+01 0.  1.
        -11    1    1    2    0    0 -0.88438975952E+00 -0.49988181310E+02 -0.10664042971E+03  0.11777852803E+03  0.00000000000E+00 0. -1.
         11    1    1    2    0    0  0.55281821212E+02  0.18572561528E+02 -0.81600599832E+02  0.10029794460E+03  0.00000000000E+00 0.  1.
</event>
<event>
 7    1  0.2530765E-009  0.1319995E+03  0.7561462E-02  0.1224519E+00
          2   -1    0    0  501    0  0.00000000000E+00  0.00000000000E+00  0.53239705559E+03  0.53239705559E+03  0.00000000000E+00 0. -1.
         -2   -1    0    0    0  501 -0.00000000000E+00 -0.00000000000E+00 -0.55199403589E+02  0.55199403589E+02  0.00000000000E+00 0.  1.
         25    2    1    2    0    0 -0.28344535037E+02 -0.12251183642E+03  0.33194712999E+03  0.37636211774E+03  0.12508790444E+03 0.  0.
          5    1    3    3  502    0 -0.33890830403E+02 -0.11101298103E+03  0.13143232071E+03  0.17539782686E+03  0.41800000000E+01 0. -1.
         -5    1    3    3    0  502  0.55462953657E+01 -0.11498855387E+02  0.20051480928E+03  0.20096429088E+03  0.41800000000E+01 0. -1.
        -11    1    1    2    0    0 -0.24936456597E+01  0.88396937529E+02  0.41371335215E+02  0.97631061711E+02  0.00000000000E+00 0.  1.
         11    1    1    2    0    0  0.30838180697E+02  0.34114898886E+02  0.10387918680E+03  0.11360327972E+03  0.00000000000E+00 0. -1.
</event>
<event>
 7    1  0.2530765E-009  0.1343556E+03  0.7561462E-02  0.1221132E+00
         -1   -1    0    0    0  501 -0.00000000000E+00  0.00000000000E+00  0.10354730238E+03  0.10354730238E+03  0.00000000000E+00 0.  1.
          1   -1    0    0  501    0  0.00000000000E+00 -0.00000000000E+00 -0.24527908265E+03  0.24527908265E+03  0.00000000000E+00 0. -1.
         25    2    1    2    0    0  0.72699980920E+02  0.76258050066E+02 -0.20278732057E+02  0.16480836095E+03  0.12509992582E+03 0.  0.
          5    1    3    3  502    0 -0.19472853861E+02  0.65684190878E+02  0.41980191906E+01  0.68765549034E+02  0.41800000000E+01 0.  1.
         -5    1    3    3    0  502  0.92172834781E+02  0.10573859189E+02 -0.24476751247E+02  0.96042811919E+02  0.41800000000E+01 0.  1.
        -11    1    1    2    0    0 -0.14865952992E+02 -0.28716058081E+02  0.90383337591E+01  0.33575288937E+02  0.00000000000E+00 0.  1.
         11    1    1    2    0    0 -0.57834027928E+02 -0.47541991986E+02 -0.13049138197E+03  0.15044273514E+03  0.00000000000E+00 0. -1.
</event>
<event>
 7    1  0.2530765E-009  0.1802214E+03  0.7561462E-02  0.1167589E+00
          1   -1    0    0  501    0  0.00000000000E+00  0.00000000000E+00  0.49189470471E+03  0.49189470471E+03  0.00000000000E+00 0. -1.
         -1   -1    0    0    0  501 -0.00000000000E+00 -0.00000000000E+00 -0.70956106442E+02  0.70956106442E+02  0.00000000000E+00 0.  1.
         25    2    1    2    0    0  0.93002685647E+02 -0.11831738684E+03  0.20053479087E+03  0.28019711951E+03  0.12509084646E+03 0.  0.
          5    1    3    3  502    0 -0.10111604568E+02 -0.68506889066E+02  0.12496706745E+03  0.14293242719E+03  0.41800000000E+01 0.  1.
         -5    1    3    3    0  502  0.10311429021E+03 -0.49810497771E+02  0.75567723422E+02  0.13726469232E+03  0.41800000000E+01 0.  1.
        -11    1    1    2    0    0 -0.74867006247E+02  0.21383797496E+02  0.86931902874E+02  0.11670257562E+03  0.00000000000E+00 0.  1.
         11    1    1    2    0    0 -0.18135679400E+02  0.96933589340E+02  0.13347190452E+03  0.16595111601E+03  0.00000000000E+00 0. -1.
</event>
<event>
 7    1  0.2530765E-009  0.3017122E+03  0.7561462E-02  0.1084388E+00
          1   -1    0    0  501    0  0.00000000000E+00  0.00000000000E+00  0.57293455401E+03  0.57293455401E+03  0.00000000000E+00 0. -1.
         -1   -1    0    0    0  501 -0.00000000000E+00 -0.00000000000E+00 -0.16630849232E+03  0.16630849232E+03  0.00000000000E+00 0.  1.
         25    2    1    2    0    0 -0.21331015232E+03  0.19201787219E+03  0.21571139418E+03  0.38020036493E+03  0.12509527408E+03 0.  0.
          5    1    3    3  502    0 -0.95967354403E+02  0.11416954677E+02  0.80668973627E+02  0.12595648324E+03  0.41800000000E+01 0.  1.
         -5    1    3    3    0  502 -0.11734279791E+03  0.18060091751E+03  0.13504242055E+03  0.25424388169E+03  0.41800000000E+01 0.  1.
        -11    1    1    2    0    0  0.82897049280E+02 -0.10797803930E+03  0.38297294064E+02  0.14141379170E+03  0.00000000000E+00 0.  1.
         11    1    1    2    0    0  0.13041310304E+03 -0.84039832890E+02  0.15261737344E+03  0.21762888970E+03  0.00000000000E+00 0. -1.
</event>
<event>
 7    1  0.2530765E-009  0.7253940E+02  0.7561462E-02  0.1351665E+00
         -1   -1    0    0    0  501 -0.00000000000E+00  0.00000000000E+00  0.72125323159E+02  0.72125323159E+02  0.00000000000E+00 0.  1.
          1   -1    0    0  501    0  0.00000000000E+00 -0.00000000000E+00 -0.19243278051E+03  0.19243278051E+03  0.00000000000E+00 0. -1.
         25    2    1    2    0    0  0.32179793121E+02 -0.15792379021E+02 -0.99794330033E+02  0.16398745524E+03  0.12509212145E+03 0.  0.
          5    1    3    3  502    0  0.44333242850E+02 -0.14430781266E+02  0.14469430749E+02  0.48995108896E+02  0.41800000000E+01 0. -1.
         -5    1    3    3    0  502 -0.12153449729E+02 -0.13615977552E+01 -0.11426376078E+03  0.11499234634E+03  0.41800000000E+01 0. -1.
        -11    1    1    2    0    0  0.15524162017E+02  0.31503129154E+02 -0.33668396543E+02  0.48651903134E+02  0.00000000000E+00 0. -1.
         11    1    1    2    0    0 -0.47703955138E+02 -0.15710750132E+02  0.13155269221E+02  0.51918745302E+02  0.00000000000E+00 0.  1.
</event>
<event>
 7    1  0.2530765E-009  0.1108891E+03  0.7561462E-02  0.1258932E+00
         -3   -1    0    0    0  501 -0.00000000000E+00  0.00000000000E+00  0.45599366371E+03  0.45599366371E+03  0.00000000000E+00 0. -1.
          3   -1    0    0  501    0  0.00000000000E+00 -0.00000000000E+00 -0.29404903065E+02  0.29404903065E+02  0.00000000000E+00 0.  1.
         25    2    1    2    0    0 -0.15688191077E+02 -0.37893304952E+02  0.25365715917E+03  0.28578273378E+03  0.12509114529E+03 0.  0.
          5    1    3    3  502    0 -0.60258480663E+02  0.14216060352E+02  0.10389087792E+03  0.12101226293E+03  0.41800000000E+01 0.  1.
         -5    1    3    3    0  502  0.44570289586E+02 -0.52109365305E+02  0.14976628125E+03  0.16477047086E+03  0.41800000000E+01 0.  1.
        -11    1    1    2    0    0 -0.33099209671E+02  0.89014045695E+01  0.28992147086E+02  0.44892508026E+02  0.00000000000E+00 0.  1.
         11    1    1    2    0    0  0.48787400748E+02  0.28991900383E+02  0.14393945439E+03  0.15472332497E+03  0.00000000000E+00 0. -1.
</event>
<event>
 7    1  0.2530765E-009  0.1133332E+03  0.7561462E-02  0.1254519E+00
         -4   -1    0    0    0  501 -0.00000000000E+00  0.00000000000E+00  0.55000950577E+03  0.55000950577E+03  0.00000000000E+00 0.  1.
          4   -1    0    0  501    0  0.00000000000E+00 -0.00000000000E+00 -0.29644039883E+02  0.29644039883E+02  0.00000000000E+00 0. -1.
         25    2    1    2    0    0  0.13698768161E+02  0.42479351453E+02  0.40646868783E+03  0.42761856840E+03  0.12509474133E+03 0.  0.
          5    1    3    3  502    0 -0.24099518360E+02 -0.35321911975E+02  0.18255061696E+03  0.18753832783E+03  0.41800000000E+01 0.  1.
         -5    1    3    3    0  502  0.37798286521E+02  0.77801263428E+02  0.22391807087E+03  0.24008024058E+03  0.41800000000E+01 0.  1.
        -11    1    1    2    0    0 -0.43546342785E+02 -0.50019444147E+02  0.57465192128E+02  0.87752362185E+02  0.00000000000E+00 0. -1.
         11    1    1    2    0    0  0.29847574624E+02  0.75400926943E+01  0.56431585928E+02  0.64282615062E+02  0.00000000000E+00 0.  1.
</event>
<event>
 7    1  0.2530765E-009  0.1395328E+03  0.7561462E-02  0.1213959E+00
          3   -1    0    0  501    0  0.00000000000E+00  0.00000000000E+00  0.63631126045E+03  0.63631126045E+03  0.00000000000E+00 0. -1.
         -3   -1    0    0    0  501 -0.00000000000E+00 -0.00000000000E+00 -0.52501497690E+02  0.52501497690E+02  0.00000000000E+00 0.  1.
         25    2    1    2    0    0 -0.12370700407E+03  0.18514365857E+02  0.16182255019E+03  0.23975100083E+03  0.12509116696E+03 0.  0.
          5    1    3    3  502    0 -0.11685964237E+03  0.14522178427E+02  0.18248918062E+03  0.21722532800E+03  0.41800000000E+01 0.  1.
         -5    1    3    3    0  502 -0.68473616959E+01  0.39921874301E+01 -0.20666630437E+02  0.22525672826E+02  0.41800000000E+01 0.  1.
        -11    1    1    2    0    0  0.98646019074E+02  0.25262478938E+02  0.25356594873E+03  0.27324882484E+03  0.00000000000E+00 0.  1.
         11    1    1    2    0    0  0.25060984992E+02 -0.43776844796E+02  0.16842126385E+03  0.17581293247E+03  0.00000000000E+00 0. -1.
</event>
<event>
 7    1  0.2530765E-009  0.1235911E+03  0.7561462E-02  0.1237288E+00
         -1   -1    0    0    0  501 -0.00000000000E+00  0.00000000000E+00  0.22425014233E+03  0.22425014233E+03  0.00000000000E+00 0.  1.
          1   -1    0    0  501    0  0.00000000000E+00 -0.00000000000E+00 -0.11686083753E+03  0.11686083753E+03  0.00000000000E+00 0. -1.
         25    2    1    2    0    0  0.64609553600E+01  0.11919597600E+03  0.61948835077E+02  0.18367063286E+03  0.12509124098E+03 0.  0.
          5    1    3    3  502    0  0.46120878913E+01  0.12143125444E+03  0.92451358481E+02  0.15274667589E+03  0.41800000000E+01 0. -1.
         -5    1    3    3    0  502  0.18488674687E+01 -0.22352784446E+01 -0.30502523404E+02  0.30923956969E+02  0.41800000000E+01 0. -1.
        -11    1    1    2    0    0  0.54663593665E+01 -0.48681129410E+02 -0.26756931527E+02  0.55818158605E+02  0.00000000000E+00 0. -1.
         11    1    1    2    0    0 -0.11927314726E+02 -0.70514846587E+02  0.72197401253E+02  0.10162218839E+03  0.00000000000E+00 0.  1.
</event>
<event>
 7    1  0.2530765E-009  0.1244137E+03  0.7561462E-02  0.1235988E+00
          1   -1    0    0  501    0  0.00000000000E+00  0.00000000000E+00  0.66269330445E+03  0.66269330445E+03  0.00000000000E+00 0. -1.
         -1   -1    0    0    0  501 -0.00000000000E+00 -0.00000000000E+00 -0.75566602964E+02  0.75566602964E+02  0.00000000000E+00 0.  1.
         25    2    1    2    0    0 -0.92028081705E+02 -0.10135029976E+02  0.20867787055E+02  0.15701541662E+03  0.12508592993E+03 0.  0.
          5    1    3    3  502    0 -0.28194922202E+02  0.31766237181E+02 -0.40597557939E+02  0.58904003033E+02  0.41800000000E+01 0.  1.
         -5    1    3    3    0  502 -0.63833159502E+02 -0.41901267157E+02  0.61465344993E+02  0.98111413590E+02  0.41800000000E+01 0.  1.
        -11    1    1    2    0    0  0.62478154755E+02  0.50022494544E+02  0.30600554141E+03  0.31629916401E+03  0.00000000000E+00 0. -1.
         11    1    1    2    0    0  0.29549926949E+02 -0.39887464568E+02  0.26025337302E+03  0.26494532678E+03  0.00000000000E+00 0.  1.
</event>
<event>
 7    1  0.2530765E-009  0.2435341E+03  0.7561462E-02  0.1117461E+00
          2   -1    0    0  501    0  0.00000000000E+00  0.00000000000E+00  0.25781514900E+04  0.25781514900E+04  0.00000000000E+00 0. -1.
         -2   -1    0    0    0  501 -0.00000000000E+00 -0.00000000000E+00 -0.26194322995E+02  0.26194322995E+02  0.00000000000E+00 0.  1.
         25    2    1    2    0    0  0.13579457504E+03  0.18594531347E+03  0.15472782888E+04  0.15693097518E+04  0.12508864028E+03 0.  0.
          5    1    3    3  502    0  0.86192744465E+02  0.18814445149E+03  0.13531025269E+04  0.13688431044E+04  0.41800000000E+01 0. -1.
         -5    1    3    3    0  502  0.49601830577E+02 -0.21991380278E+01  0.19417576184E+03  0.20046664732E+03  0.41800000000E+01 0. -1.
        -11    1    1    2    0    0 -0.10375250582E+03 -0.14203787526E+03  0.90061911149E+03  0.91763507150E+03  0.00000000000E+00 0.  1.
         11    1    1    2    0    0 -0.32042069224E+02 -0.43907438206E+02  0.10405976675E+03  0.11740098971E+03  0.00000000000E+00 0. -1.
</event>
<event>
 7    1  0.2530765E-009  0.1089333E+03  0.7561462E-02  0.1262558E+00
          1   -1    0    0  501    0  0.00000000000E+00  0.00000000000E+00  0.42304422535E+02  0.42304422535E+02  0.00000000000E+00 0. -1.
         -1   -1    0    0    0  501 -0.00000000000E+00 -0.00000000000E+00 -0.35691727797E+03  0.35691727797E+03  0.00000000000E+00 0.  1.
         25    2    1    2    0    0 -0.23525290285E+02 -0.39408945192E+02 -0.11280080313E+03  0.17457562333E+03  0.12508446279E+03 0.  0.
          5    1    3    3  502    0 -0.59701687791E+02 -0.53466432808E+02 -0.10899756088E+03  0.13535468828E+03  0.41800000000E+01 0.  1.
         -5    1    3    3    0  502  0.36176397506E+02  0.14057487616E+02 -0.38032422519E+01  0.39220935050E+02  0.41800000000E+01 0.  1.
        -11    1    1    2    0    0  0.52617469615E+02  0.44660769044E+02 -0.14588387814E+03  0.16138552693E+03  0.00000000000E+00 0.  1.
         11    1    1    2    0    0 -0.29092179330E+02 -0.52518238521E+01 -0.55928174160E+02  0.63260550241E+02  0.00000000000E+00 0. -1.
</event>
<event>
 7    1  0.2530765E-009  0.2499593E+03  0.7561462E-02  0.1113331E+00
         -1   -1    0    0    0  501 -0.00000000000E+00  0.00000000000E+00  0.14705130992E+03  0.14705130992E+03  0.00000000000E+00 0.  1.
          1   -1    0    0  501    0  0.00000000000E+00 -0.00000000000E+00 -0.44998125776E+03  0.44998125776E+03  0.00000000000E+00 0. -1.
         25    2    1    2    0    0  0.17392219445E+02 -0.23121064420E+03 -0.18332504392E+03  0.32096107856E+03  0.12508833252E+03 0.  0.
          5    1    3    3  502    0 -0.48860314716E+02 -0.14931970654E+03 -0.96833150044E+02  0.18460183223E+03  0.41800000000E+01 0. -1.
         -5    1    3    3    0  502  0.66252534161E+02 -0.81890937664E+02 -0.86491893877E+02  0.13635924633E+03  0.41800000000E+01 0. -1.
        -11    1    1    2    0    0  0.14139713598E+02  0.24955665470E+02  0.10079073782E+02  0.30402376026E+02  0.00000000000E+00 0.  1.
         11    1    1    2    0    0 -0.31531933043E+02  0.20625497873E+03 -0.12968397770E+03  0.24566911309E+03  0.00000000000E+00 0. -1.
</event>
<event>
 7    1  0.2530765E-009  0.9417686E+02  0.7561462E-02  0.1293041E+00
         -1   -1    0    0    0  501 -0.00000000000E+00  0.00000000000E+00  0.38489488117E+02  0.38489488117E+02  0.00000000000E+00 0.  1.
          1   -1    0    0  501    0  0.00000000000E+00 -0.00000000000E+00 -0.45949047814E+03  0.45949047814E+03  0.00000000000E+00 0. -1.
         25    2    1    2    0    0 -0.10579503573E+02 -0.75613706683E+02 -0.20881875789E+03  0.25511065000E+03  0.12508721581E+03 0.  0.
          5    1    3    3  502    0 -0.16298664621E+02  0.87014493156E+01  0.93384213476E+01  0.21119663868E+02  0.41800000000E+01 0.  1.
         -5    1    3    3    0  502  0.57191610487E+01 -0.84315155999E+02 -0.21815717924E+03  0.23399098613E+03  0.41800000000E+01 0.  1.
        -11    1    1    2    0    0 -0.13897630383E+02  0.28305624387E+02 -0.89586865832E+01  0.32781253293E+02  0.00000000000E+00 0.  1.
         11    1    1    2    0    0  0.24477133955E+02  0.47308082296E+02 -0.20322354554E+03  0.21008806296E+03  0.00000000000E+00 0. -1.
</event>
<event>
 7    1  0.2530765E-009  0.1060558E+03  0.7561462E-02  0.1268053E+00
         -2   -1    0    0    0  501 -0.00000000000E+00  0.00000000000E+00  0.19035516708E+03  0.19035516708E+03  0.00000000000E+00 0. -1.
          2   -1    0    0  501    0  0.00000000000E+00 -0.00000000000E+00 -0.97508645114E+02  0.97508645114E+02  0.00000000000E+00 0.  1.
         25    2    1    2    0    0  0.22680974373E+02 -0.52765655030E+02  0.11331766358E+03  0.17828505917E+03  0.12508408570E+03 0.  0.
          5    1    3    3  502    0 -0.20818825776E+02 -0.56850718282E+02  0.43878766577E+01  0.60845324696E+02  0.41800000000E+01 0.  1.
         -5    1    3    3    0  502  0.43499800149E+02  0.40850632515E+01  0.10892978692E+03  0.11743973447E+03  0.41800000000E+01 0.  1.
        -11    1    1    2    0    0  0.29290175410E+02 -0.51274198795E+01 -0.79409643339E+01  0.30777649759E+02  0.00000000000E+00 0. -1.
         11    1    1    2    0    0 -0.51971149783E+02  0.57893074910E+02 -0.12530177282E+02  0.78801103260E+02  0.00000000000E+00 0.  1.
</event>
<event>
 7    1  0.2530765E-009  0.1371329E+03  0.7561462E-02  0.1217240E+00
         -2   -1    0    0    0  501 -0.00000000000E+00  0.00000000000E+00  0.10438531515E+03  0.10438531515E+03  0.00000000000E+00 0.  1.
          2   -1    0    0  501    0  0.00000000000E+00 -0.00000000000E+00 -0.29397888669E+03  0.29397888669E+03  0.00000000000E+00 0. -1.
         25    2    1    2    0    0 -0.65422515927E+02 -0.62506458699E+02 -0.21883642111E+03  0.26781442238E+03  0.12509205675E+03 0.  0.
          5    1    3    3  502    0 -0.91487710668E+02 -0.78208165955E+02 -0.19387484074E+03  0.22823550271E+03  0.41800000000E+01 0. -1.
         -5    1    3    3    0  502  0.26065194741E+02  0.15701707256E+02 -0.24961580366E+02  0.39578919667E+02  0.41800000000E+01 0. -1.
        -11    1    1    2    0    0  0.61235382999E+02  0.82471088449E+02  0.11221292620E+02  0.10333039228E+03  0.00000000000E+00 0.  1.
         11    1    1    2    0    0  0.41871329282E+01 -0.19964629750E+02  0.18021556951E+02  0.27219387175E+02  0.00000000000E+00 0. -1.
</event>
<event>
 7    1  0.2530765E-009  0.1009928E+03  0.7561462E-02  0.1278222E+00
          1   -1    0    0  501    0  0.00000000000E+00  0.00000000000E+00  0.55990644304E+02  0.55990644304E+02  0.00000000000E+00 0. -1.
         -1   -1    0    0    0  501 -0.00000000000E+00 -0.00000000000E+00 -0.28198080255E+03  0.28198080255E+03  0.00000000000E+00 0.  1.
         25    2    1    2    0    0 -0.59540627141E+02 -0.21952468079E+02 -0.11822980490E+03  0.18345466301E+03  0.12510127689E+03 0.  0.
          5    1    3    3  502    0  0.11353316569E+02  0.29963245481E+02  0.43189192651E+01  0.32600910117E+02  0.41800000000E+01 0.  1.
         -5    1    3    3    0  502 -0.70893943710E+02 -0.51915713560E+02 -0.12254872416E+03  0.15085375290E+03  0.41800000000E+01 0.  1.
        -11    1    1    2    0    0  0.13866320381E+02 -0.16814065512E+02 -0.89163688695E+02  0.91788621417E+02  0.00000000000E+00 0. -1.
         11    1    1    2    0    0  0.45674306760E+02  0.38766533591E+02 -0.18596664653E+02  0.62728162423E+02  0.00000000000E+00 0.  1.
</event>
<event>
 7    1  0.2530765E-009  0.1208706E+03  0.7561462E-02  0.1241668E+00
          2   -1    0    0  501    0  0.00000000000E+00  0.00000000000E+00  0.96985003380E+03  0.96985003380E+03  0.00000000000E+00 0. -1.
         -2   -1    0    0    0  501 -0.00000000000E+00 -0.00000000000E+00 -0.30074479952E+02  0.30074479952E+02  0.00000000000E+00 0.  1.
         25    2    1    2    0    0  0.67833990215E+02 -0.73375921373E+02  0.75086419793E+03  0.76774380105E+03  0.12509206315E+03 0.  0.
          5    1    3    3  502    0  0.41091397544E+02 -0.17682414670E+02  0.63309676926E+03  0.63468902810E+03  0.41800000000E+01 0.  1.
         -5    1    3    3    0  502  0.26742592671E+02 -0.55693506703E+02  0.11776742867E+03  0.13305477296E+03  0.41800000000E+01 0.  1.
        -11    1    1    2    0    0  0.22317457055E+02  0.20907938784E+02  0.46521424463E+02  0.55672737741E+02  0.00000000000E+00 0. -1.
         11    1    1    2    0    0 -0.90151447270E+02  0.52467982589E+02  0.14238993145E+03  0.17650797495E+03  0.00000000000E+00 0.  1.
</event>
<event>
 7    1  0.2530765E-009  0.1846030E+03  0.7561462E-02  0.1163421E+00
          1   -1    0    0  501    0  0.00000000000E+00  0.00000000000E+00  0.11325275412E+04  0.11325275412E+04  0.00000000000E+00 0. -1.
         -1   -1    0    0    0  501 -0.00000000000E+00 -0.00000000000E+00 -0.41962991634E+02  0.41962991634E+02  0.00000000000E+00 0.  1.
         25    2    1    2    0    0  0.12188969730E+03 -0.12947038666E+03  0.75200380395E+03  0.78279958895E+03  0.12508315622E+03 0.  0.
          5    1    3    3  502    0  0.59237485885E+02 -0.17632095876E+02  0.45619211629E+03  0.46037885475E+03  0.41800000000E+01 0.  1.
         -5    1    3    3    0  502  0.62652211417E+02 -0.11183829079E+03  0.29581168766E+03  0.32242073420E+03  0.41800000000E+01 0.  1.
        -11    1    1    2    0    0 -0.70163837900E+02  0.59566650296E+02  0.25495416536E+03  0.27105862172E+03  0.00000000000E+00 0.  1.
         11    1    1    2    0    0 -0.51725859403E+02  0.69903736368E+02  0.83606580264E+02  0.12063232217E+03  0.00000000000E+00 0. -1.
</event>
<event>
 7    1  0.2530765E-009  0.8000801E+02  0.7561462E-02  0.1329029E+00
         -2   -1    0    0    0  501 -0.00000000000E+00  0.00000000000E+00  0.33901480913E+02  0.33901480913E+02  0.00000000000E+00 0.  1.
          2   -1    0    0  501    0  0.00000000000E+00 -0.00000000000E+00 -0.36232776940E+03  0.36232776940E+03  0.00000000000E+00 0. -1.
         25    2    1    2    0    0 -0.19994075327E+02  0.13869611195E+02 -0.17647283731E+03  0.21768132955E+03  0.12510143789E+03 0.  0.
          5    1    3    3  502    0 -0.37270328083E+02  0.27490578935E+02 -0.73443413243E+01  0.47076756845E+02  0.41800000000E+01 0.  1.
         -5    1    3    3    0  502  0.17276252756E+02 -0.13620967740E+02 -0.16912849599E+03  0.17060457270E+03  0.41800000000E+01 0.  1.
        -11    1    1    2    0    0  0.54889075402E+02 -0.11946869214E+02 -0.72242939664E+02  0.91512734708E+02  0.00000000000E+00 0.  1.
         11    1    1    2    0    0 -0.34895000074E+02 -0.19227419814E+01 -0.79710511508E+02  0.87035186056E+02  0.00000000000E+00 0. -1.
</event>
<event>
 7    1  0.2530765E-009  0.9733250E+02  0.7561462E-02  0.1286007E+00
          1   -1    0    0  501    0  0.00000000000E+00  0.00000000000E+00  0.29374584877E+03  0.29374584877E+03  0.00000000000E+00 0. -1.
         -1   -1    0    0    0  501 -0.00000000000E+00 -0.00000000000E+00 -0.55826042715E+02  0.55826042715E+02  0.00000000000E+00 0.  1.
         25    2    1    2    0    0  0.45585604100E+01 -0.27051059599E+02  0.49100664133E+02  0.13715129607E+03  0.12508821886E+03 0.  0.
          5    1    3    3  502    0 -0.36364115268E+02 -0.40005992679E+02 -0.18217683103E+02  0.57203013095E+02  0.41800000000E+01 0.  1.
         -5    1    3    3    0  502  0.40922675678E+02  0.12954933080E+02  0.67318347236E+02  0.79948282973E+02  0.41800000000E+01 0.  1.
        -11    1    1    2    0    0 -0.46472243208E+02  0.29969822888E+02  0.10726951561E+03  0.12068392043E+03  0.00000000000E+00 0.  1.
         11    1    1    2    0    0  0.41913682798E+02 -0.29187632893E+01  0.81549626318E+02  0.91736674985E+02  0.00000000000E+00 0. -1.
</event>
<event>
 7    1  0.2530765E-009  0.3417850E+03  0.7561462E-02  0.1066038E+00
         -2   -1    0    0    0  501 -0.00000000000E+00  0.00000000000E+00  0.10084019400E+03  0.10084019400E+03  0.00000000000E+00 0. -1.
          2   -1    0    0  501    0  0.00000000000E+00 -0.00000000000E+00 -0.13614515702E+04  0.13614515702E+04  0.00000000000E+00 0.  1.
         25    2    1    2    0    0 -0.60308182225E+02 -0.32641923777E+03 -0.88219581593E+03  0.95084421156E+03  0.12509460979E+03 0.  0.
          5    1    3    3  502    0 -0.56925057500E+02 -0.11860696650E+03 -0.48491026950E+03  0.50245747735E+03  0.41800000000E+01 0. -1.
         -5    1    3    3    0  502 -0.33831247254E+01 -0.20781227127E+03 -0.39728554642E+03  0.44838673422E+03  0.41800000000E+01 0. -1.
        -11    1    1    2    0    0  0.79953533990E+02  0.18857564878E+03 -0.22428031585E+03  0.30373508686E+03  0.00000000000E+00 0. -1.
         11    1    1    2    0    0 -0.19645351765E+02  0.13784358898E+03 -0.15413524446E+03  0.20771246582E+03  0.00000000000E+00 0.  1.
</event>
<event>
 7    1  0.2530765E-009  0.1058344E+03  0.7561462E-02  0.1268484E+00
         -2   -1    0    0    0  501 -0.00000000000E+00  0.00000000000E+00  0.38985141709E+03  0.38985141709E+03  0.00000000000E+00 0.  1.
          2   -1    0    0  501    0  0.00000000000E+00 -0.00000000000E+00 -0.35332073498E+02  0.35332073498E+02  0.00000000000E+00 0. -1.
         25    2    1    2    0    0 -0.18513226408E+02 -0.35881208356E+02  0.22017576925E+03  0.25642637640E+03  0.12508763522E+03 0.  0.
          5    1    3    3  502    0 -0.75219639516E+01 -0.71516009385E+02  0.20253289195E+03  0.21496084355E+03  0.41800000000E+01 0.  1.
         -5    1    3    3    0  502 -0.10991262456E+02  0.35634801029E+02  0.17642877298E+02  0.41465532845E+02  0.41800000000E+01 0.  1.
        -11    1    1    2    0    0 -0.37702535377E+02  0.51733508818E+01  0.48491790555E+02  0.61641694367E+02  0.00000000000E+00 0.  1.
         11    1    1    2    0    0  0.56215761785E+02  0.30707857474E+02  0.85851783786E+02  0.10711541982E+03  0.00000000000E+00 0. -1.
</event>
<event>
 7    1  0.2530765E-009  0.1489027E+03  0.7561462E-02  0.1201828E+00
         -1   -1    0    0    0  501 -0.00000000000E+00  0.00000000000E+00  0.23199098549E+02  0.23199098549E+02  0.00000000000E+00 0.  1.
          1   -1    0    0  501    0  0.00000000000E+00 -0.00000000000E+00 -0.14114755465E+04  0.14114755465E+04  0.00000000000E+00 0. -1.
         25    2    1    2    0    0  0.70971442785E+02  0.86942566065E+02 -0.10765580327E+04  0.10895978191E+04  0.12510097608E+03 0.  0.
          5    1    3    3  502    0 -0.19644940248E+02  0.63428808546E+02 -0.61739910294E+03  0.62097364046E+03  0.41800000000E+01 0.  1.
         -5    1    3    3    0  502  0.90616383034E+02  0.23513757519E+02 -0.45915892972E+03  0.46862417864E+03  0.41800000000E+01 0.  1.
        -11    1    1    2    0    0 -0.61713104976E+02 -0.10239141078E+03 -0.20887623476E+03  0.24066946166E+03  0.00000000000E+00 0.  1.
         11    1    1    2    0    0 -0.92583378093E+01  0.15448844713E+02 -0.10284218053E+03  0.10440736429E+03  0.00000000000E+00 0. -1.
</event>
<event>
 7    1  0.2530765E-009  0.1527778E+03  0.7561462E-02  0.1197101E+00
          1   -1    0    0  501    0  0.00000000000E+00  0.00000000000E+00  0.31762152673E+03  0.31762152673E+03  0.00000000000E+00 0. -1.
         -1   -1    0    0    0  501 -0.00000000000E+00 -0.00000000000E+00 -0.97126581176E+02  0.97126581176E+02  0.00000000000E+00 0.  1.
         25    2    1    2    0    0 -0.13009248127E+03  0.33247729354E+02  0.79950289612E+02  0.20017187299E+03  0.12508902724E+03 0.  0.
          5    1    3    3  502    0 -0.76173018629E+02 -0.25815276322E+02  0.88469661547E+02  0.11963741335E+03  0.41800000000E+01 0. -1.
         -5    1    3    3    0  502 -0.53919462639E+02  0.59063005675E+02 -0.85193719359E+01  0.80534459636E+02  0.41800000000E+01 0. -1.
        -11    1    1    2    0    0  0.76474429078E+02 -0.46765557906E+02  0.36571114146E+02  0.96813233078E+02  0.00000000000E+00 0.  1.
         11    1    1    2    0    0  0.53618052190E+02  0.13517828552E+02  0.10397354180E+03  0.11776300184E+03  0.00000000000E+00 0. -1.
</event>
<event>
 7    1  0.2530765E-009  0.1247533E+03  0.7561462E-02  0.1235455E+00
          4   -1    0    0  501    0  0.00000000000E+00  0.00000000000E+00  0.51508335250E+03  0.51508335250E+03  0.00000000000E+00 0. -1.
         -4   -1    0    0    0  501 -0.00000000000E+00 -0.00000000000E+00 -0.36018681308E+02  0.36018681308E+02  0.00000000000E+00 0.  1.
         25    2    1    2    0    0 -0.82911395871E+01 -0.87904325263E+02  0.24592088915E+03  0.28969086782E+03  0.12509117387E+03 0.  0.
          5    1    3    3  502    0 -0.14172455987E+02 -0.11773290774E+03  0.16572668780E+03  0.20382517882E+03  0.41800000000E+01 0.  1.
         -5    1    3    3    0  502  0.58813163999E+01  0.29828582479E+02  0.80194201357E+02  0.85865688995E+02  0.41800000000E+01 0.  1.
        -11    1    1    2    0    0  0.27418025733E+02  0.39212124691E+02  0.18224675710E+03  0.18842297984E+03  0.00000000000E+00 0. -1.
         11    1    1    2    0    0 -0.19126886146E+02  0.48692200571E+02  0.50897024940E+02  0.72988186153E+02  0.00000000000E+00 0.  1.
</event>
<event>
 7    1  0.2530765E-009  0.1275636E+03  0.7561462E-02  0.1231116E+00
          1   -1    0    0  501    0  0.00000000000E+00  0.00000000000E+00  0.31142182718E+03  0.31142182718E+03  0.00000000000E+00 0. -1.
         -1   -1    0    0    0  501 -0.00000000000E+00 -0.00000000000E+00 -0.63278469626E+02  0.63278469626E+02  0.00000000000E+00 0.  1.
         25    2    1    2    0    0 -0.30424135192E+02  0.80795609331E+02  0.10779880768E+03  0.18633425849E+03  0.12508522879E+03 0.  0.
          5    1    3    3  502    0 -0.65383812320E+02  0.58366198432E+02  0.21306598176E+02  0.90294515662E+02  0.41800000000E+01 0.  1.
         -5    1    3    3    0  502  0.34959677128E+02  0.22429410899E+02  0.86492209504E+02  0.96039742831E+02  0.41800000000E+01 0.  1.
        -11    1    1    2    0    0 -0.45386383336E+01  0.19187321766E+02  0.21590594686E+02  0.29238781325E+02  0.00000000000E+00 0.  1.
         11    1    1    2    0    0  0.34962773525E+02 -0.99982931097E+02  0.11875395519E+03  0.15912725699E+03  0.00000000000E+00 0. -1.
</event>
<event>
 7    1  0.2530765E-009  0.9713923E+02  0.7561462E-02  0.1286429E+00
         -2   -1    0    0    0  501 -0.00000000000E+00  0.00000000000E+00  0.46129325815E+02  0.46129325815E+02  0.00000000000E+00 0.  1.
          2   -1    0    0  501    0  0.00000000000E+00 -0.00000000000E+00 -0.41737246139E+03  0.41737246139E+03  0.00000000000E+00 0. -1.
         25    2    1    2    0    0  0.81998401758E+02  0.22838907553E+02 -0.27979384989E+03  0.31808247175E+03  0.12508599766E+03 0.  0.
          5    1    3    3  502    0  0.32902129721E+02  0.35422369790E+02 -0.18575455426E+02  0.51959737932E+02  0.41800000000E+01 0.  1.
         -5    1    3    3    0  502  0.49096272036E+02 -0.12583462237E+02 -0.26121839446E+03  0.26612273382E+03  0.41800000000E+01 0.  1.
        -11    1    1    2    0    0 -0.86086293366E+01 -0.19633053185E+02  0.70290058536E+01  0.22560412224E+02  0.00000000000E+00 0.  1.
         11    1    1    2    0    0 -0.73389772421E+02 -0.32058543678E+01 -0.98478291545E+02  0.12285890323E+03  0.00000000000E+00 0. -1.
</event>
<event>
 7    1  0.2530765E-009  0.2048710E+03  0.7561462E-02  0.1145693E+00
         -4   -1    0    0    0  501 -0.00000000000E+00  0.00000000000E+00  0.66625613413E+03  0.66625613413E+03  0.00000000000E+00 0.  1.
          4   -1    0    0  501    0  0.00000000000E+00 -0.00000000000E+00 -0.73632623794E+02  0.73632623794E+02  0.00000000000E+00 0. -1.
         25    2    1    2    0    0 -0.96863801473E+02 -0.16276888246E+03  0.23493894253E+03  0.32668000956E+03  0.12508883561E+03 0.  0.
          5    1    3    3  502    0 -0.76987238375E+02 -0.17406349977E+03  0.23624303360E+03  0.30340299957E+03  0.41800000000E+01 0.  1.
         -5    1    3    3    0  502 -0.19876563098E+02  0.11294617304E+02 -0.13040910672E+01  0.23277009992E+02  0.41800000000E+01 0.  1.
        -11    1    1    2    0    0  0.10132809004E+03  0.13940607784E+03  0.25480268743E+03  0.30761314324E+03  0.00000000000E+00 0. -1.
         11    1    1    2    0    0 -0.44642885701E+01  0.23362804618E+02  0.10288188038E+03  0.10559560513E+03  0.00000000000E+00 0.  1.
</event>
<event>
 7    1  0.2530765E-009  0.1539874E+03  0.7561462E-02  0.1195657E+00
          1   -1    0    0  501    0  0.00000000000E+00  0.00000000000E+00  0.63010777966E+03  0.63010777966E+03  0.00000000000E+00 0. -1.
         -1   -1    0    0    0  501 -0.00000000000E+00 -0.00000000000E+00 -0.48160839357E+02  0.48160839357E+02  0.00000000000E+00 0.  1.
         25    2    1    2    0    0 -0.49932538392E+02 -0.12636124809E+03  0.29102974185E+03  0.34468278234E+03  0.12508991323E+03 0.  0.
          5    1    3    3  502    0 -0.72888570141E+02 -0.11390505651E+03  0.28782729048E+03  0.31803950556E+03  0.41800000000E+01 0.  1.
         -5    1    3    3    0  502  0.22956031749E+02 -0.12456191581E+02  0.32024513663E+01  0.26643276772E+02  0.41800000000E+01 0.  1.
        -11    1    1    2    0    0  0.57240332016E+02  0.74978121700E+02  0.10774674422E+03  0.14320452239E+03  0.00000000000E+00 0.  1.
         11    1    1    2    0    0 -0.73077936244E+01  0.51383126388E+02  0.18317045425E+03  0.19038131430E+03  0.00000000000E+00 0. -1.
</event>
<event>
 7    1  0.2530765E-009  0.1303973E+03  0.7561462E-02  0.1226867E+00
         -1   -1    0    0    0  501 -0.00000000000E+00  0.00000000000E+00  0.98523656391E+02  0.98523656391E+02  0.00000000000E+00 0.  1.
          1   -1    0    0  501    0  0.00000000000E+00 -0.00000000000E+00 -0.23561682131E+03  0.23561682131E+03  0.00000000000E+00 0. -1.
         25    2    1    2    0    0  0.92057011009E+02  0.16774384171E+02 -0.12869329976E+03  0.20240121623E+03  0.12509361970E+03 0.  0.
          5    1    3    3  502    0  0.25095967730E+02  0.48842021781E+02 -0.11399615353E+03  0.12660152490E+03  0.41800000000E+01 0. -1.
         -5    1    3    3    0  502  0.66961043278E+02 -0.32067637610E+02 -0.14697146230E+02  0.75799691332E+02  0.41800000000E+01 0. -1.
        -11    1    1    2    0    0 -0.24875633436E+02 -0.50423096729E+02 -0.94428801095E+00  0.56233241970E+02  0.00000000000E+00 0.  1.
         11    1    1    2    0    0 -0.67181377573E+02  0.33648712557E+02 -0.74555771466E+01  0.75506019495E+02  0.00000000000E+00 0. -1.
</event>
<event>
 7    1  0.2530765E-009  0.1414994E+03  0.7561462E-02  0.1211326E+00
          1   -1    0    0  501    0  0.00000000000E+00  0.00000000000E+00  0.76461589101E+02  0.76461589101E+02  0.00000000000E+00 0. -1.
         -1   -1    0    0    0  501 -0.00000000000E+00 -0.00000000000E+00 -0.29342468780E+03  0.29342468780E+03  0.00000000000E+00 0.  1.
         25    2    1    2    0    0 -0.20622077989E+02  0.96299099203E+02 -0.81435208832E+02  0.17882400562E+03  0.12509014805E+03 0.  0.
          5    1    3    3  502    0 -0.26982388783E+01 -0.29310680809E+02 -0.36883101947E+01  0.29957845961E+02  0.41800000000E+01 0. -1.
         -5    1    3    3    0  502 -0.17923839111E+02  0.12560978001E+03 -0.77746898638E+02  0.14886615966E+03  0.41800000000E+01 0. -1.
        -11    1    1    2    0    0 -0.19819511552E+02  0.21016638046E+01 -0.52359265799E+02  0.56024304939E+02  0.00000000000E+00 0. -1.
         11    1    1    2    0    0  0.40441589541E+02 -0.98400763007E+02 -0.83168624064E+02  0.13503796634E+03  0.00000000000E+00 0.  1.
</event>
<event>
 7    1  0.2530765E-009  0.8689656E+02  0.7561462E-02  0.1310546E+00
         -3   -1    0    0    0  501 -0.00000000000E+00  0.00000000000E+00  0.35101414327E+03  0.35101414327E+03  0.00000000000E+00 0.  1.
          3   -1    0    0  501    0  0.00000000000E+00 -0.00000000000E+00 -0.75211423216E+02  0.75211423216E+02  0.00000000000E+00 0. -1.
         25    2    1    2    0    0 -0.19335906616E+02 -0.57194611820E+02  0.28277304215E+03  0.31504658635E+03  0.12509459341E+03 0.  0.
          5    1    3    3  502    0 -0.45387798722E+02 -0.31589202296E+02  0.27073902070E+03  0.27636030776E+03  0.41800000000E+01 0. -1.
         -5    1    3    3    0  502  0.26051892105E+02 -0.25605409524E+02  0.12034021444E+02  0.38686278592E+02  0.41800000000E+01 0. -1.
        -11    1    1    2    0    0  0.50383057062E+00  0.62105846705E+02  0.30321427060E+02  0.69114245848E+02  0.00000000000E+00 0.  1.
         11    1    1    2    0    0  0.18832076046E+02 -0.49112348849E+01 -0.37291749148E+02  0.42064734289E+02  0.00000000000E+00 0. -1.
</event>
<event>
 7    1  0.2530765E-009  0.1444625E+03  0.7561462E-02  0.1207447E+00
          1   -1    0    0  501    0  0.00000000000E+00  0.00000000000E+00  0.16682338219E+03  0.16682338219E+03  0.00000000000E+00 0. -1.
         -1   -1    0    0    0  501 -0.00000000000E+00 -0.00000000000E+00 -0.20606992342E+03  0.20606992342E+03  0.00000000000E+00 0.  1.
         25    2    1    2    0    0 -0.88428646383E+02 -0.86035770531E+02 -0.10525767496E+03  0.20481287342E+03  0.12508939072E+03 0.  0.
          5    1    3    3  502    0 -0.76606176294E+02 -0.26757873394E+02 -0.11763841250E+03  0.14297118077E+03  0.41800000000E+01 0.  1.
         -5    1    3    3    0  502 -0.11822470089E+02 -0.59277897138E+02  0.12380737545E+02  0.61841692653E+02  0.41800000000E+01 0.  1.
        -11    1    1    2    0    0  0.29302510118E+02  0.82840554765E+02  0.13428448695E+02  0.88890482321E+02  0.00000000000E+00 0.  1.
         11    1    1    2    0    0  0.59126136265E+02  0.31952157667E+01  0.52582685042E+02  0.79189949865E+02  0.00000000000E+00 0. -1.
</event>
<event>
 7    1  0.2530765E-009  0.1033620E+03  0.7561462E-02  0.1273381E+00
         -1   -1    0    0    0  501 -0.00000000000E+00  0.00000000000E+00  0.77356573334E+02  0.77356573334E+02  0.00000000000E+00 0.  1.
          1   -1    0    0  501    0  0.00000000000E+00 -0.00000000000E+00 -0.17372673936E+03  0.17372673936E+03  0.00000000000E+00 0. -1.
         25    2    1    2    0    0  0.13418653378E+02  0.16558355075E+02 -0.18837904271E+02  0.12828094620E+03  0.12508754990E+03 0.  0.
          5    1    3    3  502    0 -0.43951322555E+02  0.39301238086E+02  0.10145138801E+02  0.59972512960E+02  0.41800000000E+01 0. -1.
         -5    1    3    3    0  502  0.57369975933E+02 -0.22742883010E+02 -0.28983043073E+02  0.68308433241E+02  0.41800000000E+01 0. -1.
        -11    1    1    2    0    0 -0.39372299666E+02 -0.35987081877E+02 -0.20392720900E+02  0.57106138976E+02  0.00000000000E+00 0.  1.
         11    1    1    2    0    0  0.25953646289E+02  0.19428726802E+02 -0.57139540854E+02  0.65696227516E+02  0.00000000000E+00 0. -1.
</event>
<event>
 7    1  0.2530765E-009  0.1410323E+03  0.7561462E-02  0.1211947E+00
         -2   -1    0    0    0  501 -0.00000000000E+00  0.00000000000E+00  0.11912893277E+03  0.11912893277E+03  0.00000000000E+00 0.  1.
          2   -1    0    0  501    0  0.00000000000E+00 -0.00000000000E+00 -0.26429686254E+03  0.26429686254E+03  0.00000000000E+00 0. -1.
         25    2    1    2    0    0 -0.58273437721E+02  0.12442316749E+03 -0.96643624516E+02  0.20943828382E+03  0.12508991334E+03 0.  0.
          5    1    3    3  502    0 -0.54399241660E+02  0.11381037607E+03 -0.15218074080E+02  0.12712647786E+03  0.41800000000E+01 0. -1.
         -5    1    3    3    0  502 -0.38741960610E+01  0.10612791416E+02 -0.81425550436E+02  0.82311805961E+02  0.41800000000E+01 0. -1.
        -11    1    1    2    0    0  0.53890918543E+02 -0.65947325329E+02  0.16153208394E+02  0.86684525499E+02  0.00000000000E+00 0.  1.
         11    1    1    2    0    0  0.43825191782E+01 -0.58475842160E+02 -0.64677513653E+02  0.87302985992E+02  0.00000000000E+00 0. -1.
</event>
<event>
 7    1  0.2530765E-009  0.1079040E+03  0.7561462E-02  0.1264501E+00
         -2   -1    0    0    0  501 -0.00000000000E+00  0.00000000000E+00  0.21497983324E+03  0.21497983324E+03  0.00000000000E+00 0. -1.
          2   -1    0    0  501    0  0.00000000000E+00 -0.00000000000E+00 -0.16306428411E+03  0.16306428411E+03  0.00000000000E+00 0.  1.
         25    2    1    2    0    0 -0.90701728991E+02 -0.11993491777E+02  0.15025569810E+03  0.21585938620E+03  0.12509137584E+03 0.  0.
          5    1    3    3  502    0 -0.47237088257E+02 -0.47942328317E+02  0.14393447879E+03  0.15894784030E+03  0.41800000000E+01 0. -1.
         -5    1    3    3    0  502 -0.43464640733E+02  0.35948836541E+02  0.63212193127E+01  0.56911545896E+02  0.41800000000E+01 0. -1.
        -11    1    1    2    0    0  0.27142392691E+02  0.71674370940E+01  0.15238416621E+02  0.31941993936E+02  0.00000000000E+00 0. -1.
         11    1    1    2    0    0  0.63559336300E+02  0.48260546825E+01 -0.11357856559E+03  0.13024273721E+03  0.00000000000E+00 0.  1.
</event>
<event>
 7    1  0.2530765E-009  0.8087970E+02  0.7561462E-02  0.1326573E+00
          1   -1    0    0  501    0  0.00000000000E+00  0.00000000000E+00  0.23494600334E+03  0.23494600334E+03  0.00000000000E+00 0. -1.
         -1   -1    0    0    0  501 -0.00000000000E+00 -0.00000000000E+00 -0.68556797097E+02  0.68556797097E+02  0.00000000000E+00 0.  1.
         25    2    1    2    0    0  0.52172994583E+02 -0.33852232761E+02  0.11311019384E+03  0.17975346485E+03  0.12509755053E+03 0.  0.
          5    1    3    3  502    0  0.35631947285E+02 -0.34882886341E+02 -0.13632887617E+02  0.51863083707E+02  0.41800000000E+01 0. -1.
         -5    1    3    3    0  502  0.16541047298E+02  0.10306535799E+01  0.12674308146E+03  0.12789038115E+03  0.41800000000E+01 0. -1.
        -11    1    1    2    0    0 -0.66314559554E+02  0.10233719871E+02  0.38970117074E+01  0.67212621816E+02  0.00000000000E+00 0.  1.
         11    1    1    2    0    0  0.14141564971E+02  0.23618512890E+02  0.49382000692E+02  0.56536713765E+02  0.00000000000E+00 0. -1.
</event>
<event>
 7    1  0.2530765E-009  0.6007542E+02  0.7561462E-02  0.1397516E+00
          1   -1    0    0  501    0  0.00000000000E+00  0.00000000000E+00  0.27830715314E+03  0.27830715314E+03  0.00000000000E+00 0. -1.
         -1   -1    0    0    0  501 -0.00000000000E+00 -0.00000000000E+00 -0.44356311872E+02  0.44356311872E+02  0.00000000000E+00 0.  1.
         25    2    1    2    0    0 -0.18408899823E+02 -0.17050860394E+02  0.18636878470E+03  0.22585103287E+03  0.12508295528E+03 0.  0.
          5    1    3    3  502    0  0.20433536999E+02  0.96759578461E+01  0.17586991039E+03  0.17736643249E+03  0.41800000000E+01 0. -1.
         -5    1    3    3    0  502 -0.38842436822E+02 -0.26726818240E+02  0.10498874313E+02  0.48484600373E+02  0.41800000000E+01 0. -1.
        -11    1    1    2    0    0 -0.77829800365E+01  0.21851811864E+02 -0.15798450678E+02  0.28065414727E+02  0.00000000000E+00 0.  1.
         11    1    1    2    0    0  0.26191879859E+02 -0.48009514697E+01  0.63380507243E+02  0.68747017419E+02  0.00000000000E+00 0. -1.
</event>
<event>
 7    1  0.2530765E-009  0.2043422E+03  0.7561462E-02  0.1146126E+00
          1   -1    0    0  501    0  0.00000000000E+00  0.00000000000E+00  0.67890075390E+03  0.67890075390E+03  0.00000000000E+00 0. -1.
         -1   -1    0    0    0  501 -0.00000000000E+00 -0.00000000000E+00 -0.63641493498E+02  0.63641493498E+02  0.00000000000E+00 0.  1.
         25    2    1    2    0    0 -0.41175382976E+02  0.16654390201E+03  0.29192863667E+03  0.36097441566E+03  0.12509163198E+03 0.  0.
          5    1    3    3  502    0 -0.12795175177E+02 -0.16745333094E+02  0.10536493716E+02  0.23929329035E+02  0.41800000000E+01 0. -1.
         -5    1    3    3    0  502 -0.28380207799E+02  0.18328923510E+03  0.28139214296E+03  0.33704508662E+03  0.41800000000E+01 0. -1.
        -11    1    1    2    0    0  0.73671156039E+02 -0.14514260018E+03  0.24557384153E+03  0.29461894926E+03  0.00000000000E+00 0.  1.
         11    1    1    2    0    0 -0.32495773063E+02 -0.21401301826E+02  0.77756782201E+02  0.86948882483E+02  0.00000000000E+00 0. -1.
</event>
<event>
 7    1  0.2530765E-009  0.1130336E+03  0.7561462E-02  0.1255053E+00
         -1   -1    0    0    0  501 -0.00000000000E+00  0.00000000000E+00  0.65747769455E+03  0.65747769455E+03  0.00000000000E+00 0.  1.
          1   -1    0    0  501    0  0.00000000000E+00 -0.00000000000E+00 -0.19995286917E+02  0.19995286917E+02  0.00000000000E+00 0. -1.
         25    2    1    2    0    0  0.13765295879E+02  0.38447163319E+02  0.33904022119E+03  0.36368199551E+03  0.12509458236E+03 0.  0.
          5    1    3    3  502    0  0.32559670167E+02 -0.39413693017E+02  0.12567783052E+03  0.13574225872E+03  0.41800000000E+01 0. -1.
         -5    1    3    3    0  502 -0.18794374288E+02  0.77860856335E+02  0.21336239067E+03  0.22793973679E+03  0.41800000000E+01 0. -1.
        -11    1    1    2    0    0  0.21796090376E+02 -0.52099877349E+02  0.14296547592E+03  0.15371595259E+03  0.00000000000E+00 0.  1.
         11    1    1    2    0    0 -0.35561386255E+02  0.13652714031E+02  0.15547671052E+03  0.16007503336E+03  0.00000000000E+00 0. -1.
</event>
<event>
 7    1  0.2530765E-009  0.1025554E+03  0.7561462E-02  0.1275012E+00
          1   -1    0    0  501    0  0.00000000000E+00  0.00000000000E+00  0.19464237764E+03  0.19464237764E+03  0.00000000000E+00 0. -1.
         -1   -1    0    0    0  501 -0.00000000000E+00 -0.00000000000E+00 -0.11170420623E+03  0.11170420623E+03  0.00000000000E+00 0.  1.
         25    2    1    2    0    0 -0.16739874065E+02 -0.77135518299E+02  0.11112690310E+03  0.18500973416E+03  0.12509716853E+03 0.  0.
          5    1    3    3  502    0  0.15422093015E+02 -0.17707903583E+02 -0.24022020663E+02  0.33851745583E+02  0.41800000000E+01 0.  1.
         -5    1    3    3    0  502 -0.32161967080E+02 -0.59427614716E+02  0.13514892376E+03  0.15115798858E+03  0.41800000000E+01 0.  1.
        -11    1    1    2    0    0  0.28364687746E+02  0.91085206119E+02 -0.35460030905E+02  0.10177663817E+03  0.00000000000E+00 0.  1.
         11    1    1    2    0    0 -0.11624813680E+02 -0.13949687820E+02  0.72712992232E+01  0.19560211547E+02  0.00000000000E+00 0. -1.
</event>
<event>
 7    1  0.2530765E-009  0.9122201E+02  0.7561462E-02  0.1299919E+00
          1   -1    0    0  501    0  0.00000000000E+00  0.00000000000E+00  0.28879072953E+03  0.28879072953E+03  0.00000000000E+00 0. -1.
         -1   -1    0    0    0  501 -0.00000000000E+00 -0.00000000000E+00 -0.47051265888E+02  0.47051265888E+02  0.00000000000E+00 0.  1.
         25    2    1    2    0    0 -0.39620220364E+02  0.38671220316E+00  0.17121076152E+03  0.21571092726E+03  0.12509263716E+03 0.  0.
          5    1    3    3  502    0 -0.10171392479E+01  0.59432597510E+02  0.65448186578E+02  0.88511048719E+02  0.41800000000E+01 0. -1.
         -5    1    3    3    0  502 -0.38603081116E+02 -0.59045885307E+02  0.10576257494E+03  0.12719987854E+03  0.41800000000E+01 0. -1.
        -11    1    1    2    0    0  0.25999769941E+02 -0.16726093590E+02 -0.13293284646E+02  0.33652067699E+02  0.00000000000E+00 0.  1.
         11    1    1    2    0    0  0.13620450423E+02  0.16339381387E+02  0.83821986770E+02  0.86479000456E+02  0.00000000000E+00 0. -1.
</event>
<event>
 7    1  0.2530765E-009  0.2347490E+03  0.7561462E-02  0.1123341E+00
         -2   -1    0    0    0  501 -0.00000000000E+00  0.00000000000E+00  0.73267091386E+02  0.73267091386E+02  0.00000000000E+00 0.  1.
          2   -1    0    0  501    0  0.00000000000E+00 -0.00000000000E+00 -0.17120065412E+04  0.17120065412E+04  0.00000000000E+00 0. -1.
         25    2    1    2    0    0  0.20261268327E+03 -0.88996151334E+02 -0.14703749754E+04  0.14921873447E+04  0.12509312057E+03 0.  0.
          5    1    3    3  502    0  0.80951100842E+02 -0.70045597005E+02 -0.10081282959E+04  0.10138045175E+04  0.41800000000E+01 0. -1.
         -5    1    3    3    0  502  0.12166158243E+03 -0.18950554329E+02 -0.46224667958E+03  0.47838282717E+03  0.41800000000E+01 0. -1.
        -11    1    1    2    0    0 -0.26775843010E+02 -0.18984088136E+02 -0.31388668450E+02  0.45415744828E+02  0.00000000000E+00 0. -1.
         11    1    1    2    0    0 -0.17583684026E+03  0.10798023947E+03 -0.13697580594E+03  0.24767054310E+03  0.00000000000E+00 0.  1.
</event>
<event>
 7    1  0.2530765E-009  0.8062203E+02  0.7561462E-02  0.1327295E+00
         -1   -1    0    0    0  501 -0.00000000000E+00  0.00000000000E+00  0.28772373200E+03  0.28772373200E+03  0.00000000000E+00 0.  1.
          1   -1    0    0  501    0  0.00000000000E+00 -0.00000000000E+00 -0.74071272274E+02  0.74071272274E+02  0.00000000000E+00 0. -1.
         25    2    1    2    0    0 -0.35477341801E+02  0.34114786228E+02  0.22463936770E+03  0.26178943833E+03  0.12509358127E+03 0.  0.
          5    1    3    3  502    0 -0.49659082662E+02 -0.19705266424E+02  0.18685761121E+03  0.19439022939E+03  0.41800000000E+01 0.  1.
         -5    1    3    3    0  502  0.14181740861E+02  0.53820052652E+02  0.37781756495E+02  0.67399208936E+02  0.41800000000E+01 0.  1.
        -11    1    1    2    0    0  0.15060611993E+02 -0.25638370128E+02  0.36824623669E+02  0.47330761295E+02  0.00000000000E+00 0.  1.
         11    1    1    2    0    0  0.20416729808E+02 -0.84764161003E+01 -0.47811531651E+02  0.52674804649E+02  0.00000000000E+00 0. -1.
</event>
<event>
 7    1  0.2530765E-009  0.8580394E+02  0.7561462E-02  0.1313343E+00
         -2   -1    0    0    0  501 -0.00000000000E+00  0.00000000000E+00  0.87956311865E+02  0.87956311865E+02  0.00000000000E+00 0.  1.
          2   -1    0    0  501    0  0.00000000000E+00 -0.00000000000E+00 -0.17021338142E+03  0.17021338142E+03  0.00000000000E+00 0. -1.
         25    2    1    2    0    0 -0.43772214007E+02 -0.16819302882E+02 -0.80694440190E+02  0.15607053217E+03  0.12509005822E+03 0.  0.
          5    1    3    3  502    0 -0.23328745385E+02  0.17439317934E+02 -0.10508313350E+03  0.10912514613E+03  0.41800000000E+01 0.  1.
         -5    1    3    3    0  502 -0.20443468621E+02 -0.34258620816E+02  0.24388693308E+02  0.46945386043E+02  0.41800000000E+01 0.  1.
        -11    1    1    2    0    0  0.34218366704E+02 -0.35252496980E+02 -0.16953867699E+01  0.49158005447E+02  0.00000000000E+00 0. -1.
         11    1    1    2    0    0  0.95538473032E+01  0.52071799862E+02  0.13275740306E+00  0.52941155670E+02  0.00000000000E+00 0.  1.
</event>
<event>
 7    1  0.2530765E-009  0.1289643E+03  0.7561462E-02  0.1229001E+00
         -1   -1    0    0    0  501 -0.00000000000E+00  0.00000000000E+00  0.73799265297E+02  0.73799265297E+02  0.00000000000E+00 0.  1.
          1   -1    0    0  501    0  0.00000000000E+00 -0.00000000000E+00 -0.23068272540E+03  0.23068272540E+03  0.00000000000E+00 0. -1.
         25    2    1    2    0    0 -0.70645844854E+02 -0.96523245448E+01 -0.88889067443E+02  0.16921142721E+03  0.12508892047E+03 0.  0.
          5    1    3    3  502    0  0.17638077559E+01 -0.55172939785E+02 -0.18517486149E+02  0.58374086678E+02  0.41800000000E+01 0. -1.
         -5    1    3    3    0  502 -0.72409652610E+02  0.45520615240E+02 -0.70371581294E+02  0.11083734053E+03  0.41800000000E+01 0. -1.
        -11    1    1    2    0    0  0.25349708937E+02 -0.41489501169E+02 -0.28633929860E+02  0.56425954930E+02  0.00000000000E+00 0. -1.
         11    1    1    2    0    0  0.45296135917E+02  0.51141825714E+02 -0.39360462801E+02  0.78844608556E+02  0.00000000000E+00 0.  1.
</event>
<event>
 7    1  0.2530765E-009  0.1072758E+03  0.7561462E-02  0.1265699E+00
         -2   -1    0    0    0  501 -0.00000000000E+00  0.00000000000E+00  0.21080697483E+03  0.21080697483E+03  0.00000000000E+00 0. -1.
          2   -1    0    0  501    0  0.00000000000E+00 -0.00000000000E+00 -0.63692271104E+02  0.63692271104E+02  0.00000000000E+00 0.  1.
         25    2    1    2    0    0  0.34343979462E+02 -0.74838512456E+01  0.60324904328E+02  0.14325365250E+03  0.12508796072E+03 0.  0.
          5    1    3    3  502    0  0.55191853032E+02  0.44263694999E+02  0.18058422192E+02  0.73136819374E+02  0.41800000000E+01 0.  1.
         -5    1    3    3    0  502 -0.20847873571E+02 -0.51747546245E+02  0.42266482136E+02  0.70116833121E+02  0.41800000000E+01 0.  1.
        -11    1    1    2    0    0 -0.29862962127E+02  0.42770169319E+02  0.79263610581E+02  0.94888375752E+02  0.00000000000E+00 0. -1.
         11    1    1    2    0    0 -0.44810173347E+01 -0.35286318073E+02  0.75261888119E+01  0.36357217682E+02  0.00000000000E+00 0.  1.
</event>
<event>
 7    1  0.2530765E-009  0.1035983E+03  0.7561462E-02  0.1272906E+00
          1   -1    0    0  501    0  0.00000000000E+00  0.00000000000E+00  0.81724665181E+02  0.81724665181E+02  0.00000000000E+00 0. -1.
         -1   -1    0    0    0  501 -0.00000000000E+00 -0.00000000000E+00 -0.19758041838E+03  0.19758041838E+03  0.00000000000E+00 0.  1.
         25    2    1    2    0    0 -0.73617503776E+02 -0.28343803944E+02 -0.57498607139E+02  0.15866915248E+03  0.12508757749E+03 0.  0.
          5    1    3    3  502    0 -0.45742356615E+02  0.35477604408E+02  0.13007540716E+02  0.59478501315E+02  0.41800000000E+01 0.  1.
         -5    1    3    3    0  502 -0.27875147161E+02 -0.63821408352E+02 -0.70506147855E+02  0.99190651166E+02  0.41800000000E+01 0.  1.
        -11    1    1    2    0    0  0.27062556635E+02  0.15085912159E+02  0.13661389213E+02  0.33861486567E+02  0.00000000000E+00 0. -1.
         11    1    1    2    0    0  0.46554947141E+02  0.13257891785E+02 -0.72018535278E+02  0.86774444518E+02  0.00000000000E+00 0.  1.
</event>
<event>
 7    1  0.2530765E-009  0.1422203E+03  0.7561462E-02  0.1210372E+00
         -1   -1    0    0    0  501 -0.00000000000E+00  0.00000000000E+00  0.10047849203E+03  0.10047849203E+03  0.00000000000E+00 0.  1.
          1   -1    0    0  501    0  0.00000000000E+00 -0.00000000000E+00 -0.20744156975E+03  0.20744156975E+03  0.00000000000E+00 0. -1.
         25    2    1    2    0    0 -0.51376806982E+02 -0.77123972006E+02 -0.75903742390E+02  0.17319415937E+03  0.12508859012E+03 0.  0.
          5    1    3    3  502    0 -0.75312123796E+02 -0.97688348541E+02 -0.65383654279E+02  0.13966898037E+03  0.41800000000E+01 0.  1.
         -5    1    3    3    0  502  0.23935316814E+02  0.20564376535E+02 -0.10520088110E+02  0.33525179002E+02  0.41800000000E+01 0.  1.
        -11    1    1    2    0    0 -0.25303301136E+02  0.97550489149E+01 -0.16174107028E+02  0.31575619802E+02  0.00000000000E+00 0. -1.
         11    1    1    2    0    0  0.76680108118E+02  0.67368923091E+02 -0.14885228295E+02  0.10315028260E+03  0.00000000000E+00 0.  1.
</event>
<event>
 7    1  0.2565413E-009  0.8946805E+02  0.7561462E-02  0.1304145E+00
          1   -1    0    0  501    0  0.00000000000E+00  0.00000000000E+00  0.44793388058E+03  0.44793388058E+03  0.00000000000E+00 0. -1.
         -1   -1    0    0    0  501 -0.00000000000E+00 -0.00000000000E+00 -0.27596458958E+02  0.27596458958E+02  0.00000000000E+00 0.  1.
         25    2    1    2    0    0  0.66306964440E+00  0.15793981237E+02  0.27917732300E+03  0.30632847678E+03  0.12508904229E+03 0.  0.
          5    1    3    3  502    0  0.24479812866E+02  0.61267972636E+02  0.20949480430E+03  0.21967833561E+03  0.41800000000E+01 0. -1.
         -5    1    3    3    0  502 -0.23816743222E+02 -0.45473991398E+02  0.69682518707E+02  0.86650141170E+02  0.41800000000E+01 0. -1.
        -11    1    1    2    0    0  0.28278448248E+02 -0.15776279336E+02  0.13600259048E+03  0.13980438563E+03  0.00000000000E+00 0. -1.
         11    1    1    2    0    0 -0.28941517892E+02 -0.17701901906E-01  0.51575081409E+01  0.29397477128E+02  0.00000000000E+00 0.  1.
</event>
<event>
 7    1  0.2530765E-009  0.1575610E+03  0.7561462E-02  0.1191478E+00
          2   -1    0    0  501    0  0.00000000000E+00  0.00000000000E+00  0.15808555242E+03  0.15808555242E+03  0.00000000000E+00 0. -1.
         -2   -1    0    0    0  501 -0.00000000000E+00 -0.00000000000E+00 -0.20431493097E+03  0.20431493097E+03  0.00000000000E+00 0.  1.
         25    2    1    2    0    0  0.14013006952E+03 -0.68396018438E+01 -0.29508045911E+01  0.18798843730E+03  0.12509088205E+03 0.  0.
          5    1    3    3  502    0  0.14497208403E+02 -0.41637100484E+02  0.29962361539E+02  0.53469923295E+02  0.41800000000E+01 0.  1.
         -5    1    3    3    0  502  0.12563286112E+03  0.34797498640E+02 -0.32913166130E+02  0.13451851400E+03  0.41800000000E+01 0.  1.
        -11    1    1    2    0    0 -0.11552918068E+02  0.20923030841E+01 -0.44211503059E+02  0.45743902881E+02  0.00000000000E+00 0.  1.
         11    1    1    2    0    0 -0.12857715145E+03  0.47472987596E+01  0.93292910228E+00  0.12866814321E+03  0.00000000000E+00 0. -1.
</event>
<event>
 7    1  0.2530765E-009  0.1190962E+03  0.7561462E-02  0.1244595E+00
         -2   -1    0    0    0  501 -0.00000000000E+00  0.00000000000E+00  0.48473269182E+02  0.48473269182E+02  0.00000000000E+00 0.  1.
          2   -1    0    0  501    0  0.00000000000E+00 -0.00000000000E+00 -0.68427234122E+03  0.68427234122E+03  0.00000000000E+00 0. -1.
         25    2    1    2    0    0 -0.70967806226E+02  0.84836484821E+01 -0.58917789098E+03  0.60653651282E+03  0.12509017687E+03 0.  0.
          5    1    3    3  502    0  0.34680449602E+01  0.39765309506E+02 -0.38262206998E+03  0.38472123416E+03  0.41800000000E+01 0.  1.
         -5    1    3    3    0  502 -0.74435851186E+02 -0.31281661024E+02 -0.20655582100E+03  0.22181527866E+03  0.41800000000E+01 0.  1.
        -11    1    1    2    0    0  0.39087251375E+02  0.42080043284E+02 -0.20595796039E+02  0.61014179313E+02  0.00000000000E+00 0.  1.
         11    1    1    2    0    0  0.31880554851E+02 -0.50563691766E+02 -0.26025385016E+02  0.65194918267E+02  0.00000000000E+00 0. -1.
</event>
<event>
 7    1  0.2530765E-009  0.9351404E+02  0.7561462E-02  0.1294558E+00
         -2   -1    0    0    0  501 -0.00000000000E+00  0.00000000000E+00  0.23624251691E+02  0.23624251691E+02  0.00000000000E+00 0.  1.
          2   -1    0    0  501    0  0.00000000000E+00 -0.00000000000E+00 -0.57477065109E+03  0.57477065109E+03  0.00000000000E+00 0. -1.
         25    2    1    2    0    0 -0.39897044022E+01  0.22744218439E+02 -0.38500505904E+03  0.40547459686E+03  0.12509011153E+03 0.  0.
          5    1    3    3  502    0 -0.19565087149E+02  0.53431740581E+02 -0.35521074044E+03  0.35976365306E+03  0.41800000000E+01 0.  1.
         -5    1    3    3    0  502  0.15575382747E+02 -0.30687522141E+02 -0.29794318600E+02  0.45710943807E+02  0.41800000000E+01 0.  1.
        -11    1    1    2    0    0 -0.38836301212E+02 -0.33345966428E+02 -0.66262784107E+02  0.83731525285E+02  0.00000000000E+00 0.  1.
         11    1    1    2    0    0  0.42826005614E+02  0.10601747988E+02 -0.99878556255E+02  0.10918878064E+03  0.00000000000E+00 0. -1.
</event>
<event>
 7    1  0.2530765E-009  0.8925861E+02  0.7561462E-02  0.1304657E+00
          1   -1    0    0  501    0  0.00000000000E+00  0.00000000000E+00  0.55206120880E+03  0.55206120880E+03  0.00000000000E+00 0. -1.
         -1   -1    0    0    0  501 -0.00000000000E+00 -0.00000000000E+00 -0.27254595408E+02  0.27254595408E+02  0.00000000000E+00 0.  1.
         25    2    1    2    0    0  0.44264633014E+02 -0.21864027404E+02  0.37021196648E+03  0.39388064309E+03  0.12509063692E+03 0.  0.
          5    1    3    3  502    0 -0.12529546175E+02 -0.13452171112E+02  0.31001997105E+03  0.31059266779E+03  0.41800000000E+01 0. -1.
         -5    1    3    3    0  502  0.56794179188E+02 -0.84118562923E+01  0.60191995435E+02  0.83287975305E+02  0.41800000000E+01 0. -1.
        -11    1    1    2    0    0  0.27158545014E+02  0.13058610729E+02  0.39283584566E+02  0.49510745277E+02  0.00000000000E+00 0.  1.
         11    1    1    2    0    0 -0.71423178028E+02  0.88054166746E+01  0.11531106234E+03  0.13592441584E+03  0.00000000000E+00 0. -1.
</event>
<event>
 7    1  0.2530765E-009  0.1077123E+03  0.7561462E-02  0.1264866E+00
         -2   -1    0    0    0  501 -0.00000000000E+00  0.00000000000E+00  0.72910194674E+03  0.72910194674E+03  0.00000000000E+00 0.  1.
          2   -1    0    0  501    0  0.00000000000E+00 -0.00000000000E+00 -0.25035508591E+02  0.25035508591E+02  0.00000000000E+00 0. -1.
         25    2    1    2    0    0  0.42735211358E+02  0.33785080348E+02  0.53871544490E+03  0.55572360159E+03  0.12508661338E+03 0.  0.
          5    1    3    3  502    0  0.16136829762E+02 -0.31621039460E+02  0.47529531791E+02  0.59471137568E+02  0.41800000000E+01 0.  1.
         -5    1    3    3    0  502  0.26598381596E+02  0.65406119808E+02  0.49118591311E+03  0.49625246402E+03  0.41800000000E+01 0.  1.
        -11    1    1    2    0    0  0.18062693399E+02  0.20584035048E+02  0.51973140652E+02  0.58746665786E+02  0.00000000000E+00 0. -1.
         11    1    1    2    0    0 -0.60797904758E+02 -0.54369115396E+02  0.11337785259E+03  0.13966718795E+03  0.00000000000E+00 0.  1.
</event>
<event>
 7    1  0.2530765E-009  0.6595661E+02  0.7561462E-02  0.1374409E+00
          2   -1    0    0  501    0  0.00000000000E+00  0.00000000000E+00  0.12863612359E+03  0.12863612359E+03  0.00000000000E+00 0. -1.
         -2   -1    0    0    0  501 -0.00000000000E+00 -0.00000000000E+00 -0.10106069948E+03  0.10106069948E+03  0.00000000000E+00 0.  1.
         25    2    1    2    0    0 -0.93619129995E+01  0.26914265711E+02 -0.54203966096E+00  0.12829699187E+03  0.12509117155E+03 0.  0.
          5    1    3    3  502    0  0.21295974088E+02 -0.14192408793E+02  0.49905813212E+02  0.56240604300E+02  0.41800000000E+01 0. -1.
         -5    1    3    3    0  502 -0.30657887087E+02  0.41106674504E+02 -0.50447852873E+02  0.72056387565E+02  0.41800000000E+01 0. -1.
        -11    1    1    2    0    0 -0.11607496514E+02 -0.31058712041E+02 -0.26694632743E+02  0.42567369971E+02  0.00000000000E+00 0.  1.
         11    1    1    2    0    0  0.20969409514E+02  0.41444463297E+01  0.54812096509E+02  0.58832461231E+02  0.00000000000E+00 0. -1.
</event>
<event>
 7    1  0.2530765E-009  0.1210621E+03  0.7561462E-02  0.1241355E+00
         -4   -1    0    0    0  501 -0.00000000000E+00  0.00000000000E+00  0.22407410727E+03  0.22407410727E+03  0.00000000000E+00 0.  1.
          4   -1    0    0  501    0  0.00000000000E+00 -0.00000000000E+00 -0.17805126552E+03  0.17805126552E+03  0.00000000000E+00 0. -1.
         25    2    1    2    0    0 -0.10433501356E+03 -0.40563558538E+00 -0.10811750815E+03  0.19551565960E+03  0.12510402865E+03 0.  0.
          5    1    3    3  502    0  0.10975858168E+02  0.17309905119E+02 -0.69462124470E+02  0.72543513932E+02  0.41800000000E+01 0.  1.
         -5    1    3    3    0  502 -0.11531087173E+03 -0.17715540705E+02 -0.38655383677E+02  0.12297214566E+03  0.41800000000E+01 0.  1.
        -11    1    1    2    0    0  0.59345724713E+02 -0.23651767752E+01  0.15001787474E+03  0.16134705404E+03  0.00000000000E+00 0.  1.
         11    1    1    2    0    0  0.44989288852E+02  0.27708123606E+01  0.41224751588E+01  0.45262659157E+02  0.00000000000E+00 0. -1.
</event>
<event>
 7    1  0.2530765E-009  0.1247863E+03  0.7561462E-02  0.1235404E+00
          2   -1    0    0  501    0  0.00000000000E+00  0.00000000000E+00  0.10075382246E+03  0.10075382246E+03  0.00000000000E+00 0.  1.
         -2   -1    0    0    0  501 -0.00000000000E+00 -0.00000000000E+00 -0.16413844750E+03  0.16413844750E+03  0.00000000000E+00 0. -1.
         25    2    1    2    0    0  0.55438920459E+02 -0.35668526535E+02 -0.16138920780E+02  0.14231429160E+03  0.12508866912E+03 0.  0.
          5    1    3    3  502    0  0.63175217696E+02  0.30106866312E+02 -0.26892605682E+02  0.75088056110E+02  0.41800000000E+01 0.  1.
         -5    1    3    3    0  502 -0.77362972370E+01 -0.65775392848E+02  0.10753684902E+02  0.67226235490E+02  0.41800000000E+01 0.  1.
        -11    1    1    2    0    0 -0.47243807869E+02 -0.23920890122E+02 -0.22499761666E+02  0.57536298467E+02  0.00000000000E+00 0. -1.
         11    1    1    2    0    0 -0.81951125900E+01  0.59589416658E+02 -0.24745942598E+02  0.65041679891E+02  0.00000000000E+00 0.  1.
</event>
<event>
 7    1  0.2530765E-009  0.4525695E+02  0.7561462E-02  0.1472744E+00
         -2   -1    0    0    0  501 -0.00000000000E+00  0.00000000000E+00  0.45443431020E+02  0.45443431020E+02  0.00000000000E+00 0.  1.
          2   -1    0    0  501    0  0.00000000000E+00 -0.00000000000E+00 -0.32336918041E+03  0.32336918041E+03  0.00000000000E+00 0. -1.
         25    2    1    2    0    0  0.21079810755E+02 -0.23475924212E+02 -0.87083574918E+02  0.15564909563E+03  0.12509042534E+03 0.  0.
          5    1    3    3  502    0  0.92049599574E+01 -0.14655873694E+02 -0.11894680191E+03  0.12027194189E+03  0.41800000000E+01 0. -1.
         -5    1    3    3    0  502  0.11874850798E+02 -0.88200505180E+01  0.31863226993E+02  0.35377153744E+02  0.41800000000E+01 0. -1.
        -11    1    1    2    0    0 -0.32136442400E+02  0.84143182071E+00 -0.18437408766E+03  0.18715571896E+03  0.00000000000E+00 0. -1.
         11    1    1    2    0    0  0.11056631645E+02  0.22634492392E+02 -0.64680868073E+01  0.26007796833E+02  0.00000000000E+00 0.  1.
</event>
<event>
 7    1  0.2530765E-009  0.1280857E+03  0.7561462E-02  0.1230324E+00
          2   -1    0    0  501    0  0.00000000000E+00  0.00000000000E+00  0.85071202848E+03  0.85071202848E+03  0.00000000000E+00 0. -1.
         -2   -1    0    0    0  501 -0.00000000000E+00 -0.00000000000E+00 -0.19779928316E+02  0.19779928316E+02  0.00000000000E+00 0.  1.
         25    2    1    2    0    0  0.69122335273E+02  0.70009712639E+01  0.41010307040E+03  0.43434864479E+03  0.12508919237E+03 0.  0.
          5    1    3    3  502    0 -0.13822558623E+02 -0.43405868081E+02  0.12096537785E+03  0.12932605131E+03  0.41800000000E+01 0.  1.
         -5    1    3    3    0  502  0.82944893896E+02  0.50406839345E+02  0.28913769255E+03  0.30502259347E+03  0.41800000000E+01 0.  1.
        -11    1    1    2    0    0 -0.11246553029E+02 -0.43448164823E+02  0.13584679604E+03  0.14306844507E+03  0.00000000000E+00 0.  1.
         11    1    1    2    0    0 -0.57875782244E+02  0.36447193559E+02  0.28498223373E+03  0.29307486694E+03  0.00000000000E+00 0. -1.
</event>
<event>
 7    1  0.2530765E-009  0.1118103E+03  0.7561462E-02  0.1257254E+00
         -3   -1    0    0    0  501 -0.00000000000E+00  0.00000000000E+00  0.92958752911E+02  0.92958752911E+02  0.00000000000E+00 0.  1.
          3   -1    0    0  501    0  0.00000000000E+00 -0.00000000000E+00 -0.16516776909E+03  0.16516776909E+03  0.00000000000E+00 0. -1.
         25    2    1    2    0    0  0.50917387119E+01 -0.53309992056E+02 -0.67923822270E+02  0.15207683895E+03  0.12508332526E+03 0.  0.
          5    1    3    3  502    0  0.39404643109E+02 -0.77136027426E+02 -0.67827581452E+02  0.11009425885E+03  0.41800000000E+01 0. -1.
         -5    1    3    3    0  502 -0.34312904397E+02  0.23826035371E+02 -0.96240817683E-01  0.41982580101E+02  0.41800000000E+01 0. -1.
        -11    1    1    2    0    0 -0.20056997770E+02  0.69815489781E+02  0.17683058936E+02  0.74760794179E+02  0.00000000000E+00 0.  1.
         11    1    1    2    0    0  0.14965259059E+02 -0.16505497726E+02 -0.21968252843E+02  0.31288888872E+02  0.00000000000E+00 0. -1.
</event>
<event>
 7    1  0.2530765E-009  0.1021102E+03  0.7561462E-02  0.1275920E+00
         -2   -1    0    0    0  501 -0.00000000000E+00  0.00000000000E+00  0.33538439379E+03  0.33538439379E+03  0.00000000000E+00 0.  1.
          2   -1    0    0  501    0  0.00000000000E+00 -0.00000000000E+00 -0.56021084053E+02  0.56021084053E+02  0.00000000000E+00 0. -1.
         25    2    1    2    0    0 -0.25622919344E+02  0.37996336283E+02  0.25949987248E+03  0.29169734798E+03  0.12508758307E+03 0.  0.
          5    1    3    3  502    0 -0.63130293465E+02  0.24689240137E+02  0.68167856454E+02  0.96225368718E+02  0.41800000000E+01 0.  1.
         -5    1    3    3    0  502  0.37507374121E+02  0.13307096145E+02  0.19133201603E+03  0.19547197927E+03  0.41800000000E+01 0.  1.
        -11    1    1    2    0    0  0.21506249593E+02  0.25102522155E+02 -0.11489645513E+01  0.33075300597E+02  0.00000000000E+00 0. -1.
         11    1    1    2    0    0  0.41166697513E+01 -0.63098858437E+02  0.21012401811E+02  0.66632829264E+02  0.00000000000E+00 0.  1.
</event>
<event>
 7    1  0.2530765E-009  0.1253559E+03  0.7561462E-02  0.1234514E+00
          2   -1    0    0  501    0  0.00000000000E+00  0.00000000000E+00  0.46821039067E+03  0.46821039067E+03  0.00000000000E+00 0.  1.
         -2   -1    0    0    0  501 -0.00000000000E+00 -0.00000000000E+00 -0.46198919281E+02  0.46198919281E+02  0.00000000000E+00 0. -1.
         25    2    1    2    0    0  0.69835872265E+02 -0.71040123092E+02  0.21880110102E+03  0.27100290119E+03  0.12507958468E+03 0.  0.
          5    1    3    3  502    0  0.95243821787E+02 -0.29383727088E+02  0.94545784358E+02  0.13744514086E+03  0.41800000000E+01 0. -1.
         -5    1    3    3    0  502 -0.25407949523E+02 -0.41656396005E+02  0.12425531666E+03  0.13355776033E+03  0.41800000000E+01 0. -1.
        -11    1    1    2    0    0 -0.27584457901E+02  0.13829521010E+02  0.15365625344E+03  0.15672396814E+03  0.00000000000E+00 0.  1.
         11    1    1    2    0    0 -0.42251414363E+02  0.57210602083E+02  0.49554116936E+02  0.86682440619E+02  0.00000000000E+00 0. -1.
</event>
<event>
 7    1  0.2530765E-009  0.6467834E+02  0.7561462E-02  0.1379186E+00
         -2   -1    0    0    0  501 -0.00000000000E+00  0.00000000000E+00  0.29324987311E+02  0.29324987311E+02  0.00000000000E+00 0.  1.
          2   -1    0    0  501    0  0.00000000000E+00 -0.00000000000E+00 -0.70287901413E+03  0.70287901413E+03  0.00000000000E+00 0. -1.
         25    2    1    2    0    0 -0.13089012716E+02 -0.11969723764E+02 -0.59750679812E+03  0.61071912877E+03  0.12509549913E+03 0.  0.
          5    1    3    3  502    0 -0.84696194393E+01  0.30147848395E+02 -0.37234318590E+02  0.48831281953E+02  0.41800000000E+01 0. -1.
         -5    1    3    3    0  502 -0.46193932767E+01 -0.42117572158E+02 -0.56027247953E+03  0.56188784682E+03  0.41800000000E+01 0. -1.
        -11    1    1    2    0    0  0.33223657499E+02  0.37286244653E+01 -0.89749098525E+02  0.95773768559E+02  0.00000000000E+00 0. -1.
         11    1    1    2    0    0 -0.20134644783E+02  0.82410992982E+01  0.13701869825E+02  0.25711104116E+02  0.00000000000E+00 0.  1.
</event>
<event>
 7    1  0.2530765E-009  0.8727625E+02  0.7561462E-02  0.1309585E+00
         -1   -1    0    0    0  501 -0.00000000000E+00  0.00000000000E+00  0.16473747372E+03  0.16473747372E+03  0.00000000000E+00 0.  1.
          1   -1    0    0  501    0  0.00000000000E+00 -0.00000000000E+00 -0.89455368320E+02  0.89455368320E+02  0.00000000000E+00 0. -1.
         25    2    1    2    0    0  0.50684781682E+02 -0.19435573722E+02  0.38753973143E+02  0.14175588683E+03  0.12508466092E+03 0.  0.
          5    1    3    3  502    0  0.46959722034E+02  0.51681418020E+01  0.80234302547E+02  0.93203760055E+02  0.41800000000E+01 0. -1.
         -5    1    3    3    0  502  0.37250596479E+01 -0.24603715524E+02 -0.41480329403E+02  0.48552126775E+02  0.41800000000E+01 0. -1.
        -11    1    1    2    0    0 -0.51054916178E+02 -0.25421162165E+02  0.36248055465E+02  0.67577817934E+02  0.00000000000E+00 0. -1.
         11    1    1    2    0    0  0.37013449558E+00  0.44856735887E+02  0.28007678808E+00  0.44859137274E+02  0.00000000000E+00 0.  1.
</event>
<event>
 7    1  0.2530765E-009  0.9205975E+02  0.7561462E-02  0.1297939E+00
          2   -1    0    0  501    0  0.00000000000E+00  0.00000000000E+00  0.89350849620E+03  0.89350849620E+03  0.00000000000E+00 0. -1.
         -2   -1    0    0    0  501 -0.00000000000E+00 -0.00000000000E+00 -0.17644154536E+02  0.17644154536E+02  0.00000000000E+00 0.  1.
         25    2    1    2    0    0  0.35910150490E+02  0.37632623419E+02  0.58564162852E+03  0.60110321708E+03  0.12507280787E+03 0.  0.
          5    1    3    3  502    0 -0.28944025971E+02  0.20647469340E+02  0.51298728969E+02  0.62554828937E+02  0.41800000000E+01 0. -1.
         -5    1    3    3    0  502  0.64854176461E+02  0.16985154078E+02  0.53434289955E+03  0.53854838814E+03  0.41800000000E+01 0. -1.
        -11    1    1    2    0    0  0.11252744865E+02 -0.31671343324E+02  0.28568596690E+02  0.44111936840E+02  0.00000000000E+00 0.  1.
         11    1    1    2    0    0 -0.47162895354E+02 -0.59612800951E+01  0.26165411645E+03  0.26593749682E+03  0.00000000000E+00 0. -1.
</event>
<event>
 7    1  0.2974493E-009  0.1629407E+03  0.7561462E-02  0.1185416E+00
          2   -1    0    0  501    0  0.00000000000E+00  0.00000000000E+00  0.15485485802E+04  0.15485485802E+04  0.00000000000E+00 0.  1.
         -2   -1    0    0    0  501 -0.00000000000E+00 -0.00000000000E+00 -0.23427968578E+02  0.23427968578E+02  0.00000000000E+00 0. -1.
         25    2    1    2    0    0 -0.14055088376E+03 -0.58853322461E+02  0.94007599976E+03  0.96052565573E+03  0.12509350704E+03 0.  0.
          5    1    3    3  502    0 -0.42528425065E+02 -0.39965044969E+02  0.67018914339E+03  0.67273830876E+03  0.41800000000E+01 0. -1.
         -5    1    3    3    0  502 -0.98022458691E+02 -0.18888277491E+02  0.26988685637E+03  0.28778734697E+03  0.41800000000E+01 0. -1.
        -11    1    1    2    0    0  0.69470213618E+02 -0.79371429610E+01  0.35097870962E+03  0.35787590507E+03  0.00000000000E+00 0.  1.
         11    1    1    2    0    0  0.71080670137E+02  0.66790465422E+02  0.23406590224E+03  0.25357498798E+03  0.00000000000E+00 0. -1.
</event>
<event>
 7    1  0.2530765E-009  0.2268572E+03  0.7561462E-02  0.1128872E+00
         -4   -1    0    0    0  501 -0.00000000000E+00  0.00000000000E+00  0.59692068271E+03  0.59692068271E+03  0.00000000000E+00 0.  1.
          4   -1    0    0  501    0  0.00000000000E+00 -0.00000000000E+00 -0.11856526258E+03  0.11856526258E+03  0.00000000000E+00 0. -1.
         25    2    1    2    0    0  0.13018382523E+03 -0.17114308809E+03  0.92981099575E+02  0.26557849583E+03  0.12509463465E+03 0.  0.
          5    1    3    3  502    0  0.39415183957E+02  0.55043273504E+01  0.46908834549E+02  0.61658458500E+02  0.41800000000E+01 0. -1.
         -5    1    3    3    0  502  0.90768641270E+02 -0.17664741544E+03  0.46072265026E+02  0.20392003733E+03  0.41800000000E+01 0. -1.
        -11    1    1    2    0    0 -0.23789633868E+02  0.33217526279E+02  0.15959369111E+03  0.16474069617E+03  0.00000000000E+00 0.  1.
         11    1    1    2    0    0 -0.10639419136E+03  0.13792556181E+03  0.22578062944E+03  0.28516675330E+03  0.00000000000E+00 0. -1.
</event>
<event>
 7    1  0.2530765E-009  0.1043533E+03  0.7561462E-02  0.1271399E+00
         -2   -1    0    0    0  501 -0.00000000000E+00  0.00000000000E+00  0.11870641919E+03  0.11870641919E+03  0.00000000000E+00 0.  1.
          2   -1    0    0  501    0  0.00000000000E+00 -0.00000000000E+00 -0.16387191871E+03  0.16387191871E+03  0.00000000000E+00 0. -1.
         25    2    1    2    0    0  0.47773756595E+02 -0.48916118515E+02 -0.81638942117E+02  0.16428045513E+03  0.12509209646E+03 0.  0.
          5    1    3    3  502    0  0.39263236022E+02 -0.75857236504E+02 -0.99027373011E+02  0.13084271106E+03  0.41800000000E+01 0.  1.
         -5    1    3    3    0  502  0.85105205730E+01  0.26941117990E+02  0.17388430895E+02  0.33437744062E+02  0.41800000000E+01 0.  1.
        -11    1    1    2    0    0 -0.64370152309E+02  0.37725861789E+02  0.53670005004E+02  0.91908794972E+02  0.00000000000E+00 0.  1.
         11    1    1    2    0    0  0.16596395714E+02  0.11190256725E+02 -0.17196562406E+02  0.26389087799E+02  0.00000000000E+00 0. -1.
</event>
<event>
 7    1  0.2530765E-009  0.1035726E+03  0.7561462E-02  0.1272958E+00
          1   -1    0    0  501    0  0.00000000000E+00  0.00000000000E+00  0.34622211701E+02  0.34622211701E+02  0.00000000000E+00 0. -1.
         -1   -1    0    0    0  501 -0.00000000000E+00 -0.00000000000E+00 -0.50786521934E+03  0.50786521934E+03  0.00000000000E+00 0.  1.
         25    2    1    2    0    0 -0.65649869743E+02  0.31689322208E+02 -0.23816834364E+03  0.27871692591E+03  0.12507936016E+03 0.  0.
          5    1    3    3  502    0  0.26495156656E+02  0.29915829147E+02 -0.27375801933E+02  0.48619513482E+02  0.41800000000E+01 0.  1.
         -5    1    3    3    0  502 -0.92145026399E+02  0.17734930608E+01 -0.21079254170E+03  0.23009741243E+03  0.41800000000E+01 0.  1.
        -11    1    1    2    0    0  0.29459970329E+02 -0.23296621221E+02 -0.22080086672E+03  0.22397242052E+03  0.00000000000E+00 0.  1.
         11    1    1    2    0    0  0.36189899414E+02 -0.83927009871E+01 -0.14273797283E+02  0.39798084606E+02  0.00000000000E+00 0. -1.
</event>
<event>
 7    1  0.2530765E-009  0.1013792E+03  0.7561462E-02  0.1277422E+00
         -1   -1    0    0    0  501 -0.00000000000E+00  0.00000000000E+00  0.17194416360E+02  0.17194416360E+02  0.00000000000E+00 0.  1.
          1   -1    0    0  501    0  0.00000000000E+00 -0.00000000000E+00 -0.78083327997E+03  0.78083327997E+03  0.00000000000E+00 0. -1.
         25    2    1    2    0    0 -0.19636066526E+02  0.24052524187E+02 -0.52618528346E+03  0.54174041758E+03  0.12509048117E+03 0.  0.
          5    1    3    3  502    0  0.41559284835E+02  0.21656590989E+02 -0.92965070892E+02  0.10419289273E+03  0.41800000000E+01 0. -1.
         -5    1    3    3    0  502 -0.61195351361E+02  0.23959331983E+01 -0.43322021257E+03  0.43754752485E+03  0.41800000000E+01 0. -1.
        -11    1    1    2    0    0 -0.35399868293E+02 -0.34865443199E+01 -0.64948967187E+02  0.74051839984E+02  0.00000000000E+00 0.  1.
         11    1    1    2    0    0  0.55035934819E+02 -0.20565979867E+02 -0.17250461296E+03  0.18223543877E+03  0.00000000000E+00 0. -1.
</event>
<event>
 7    1  0.2530765E-009  0.9700156E+02  0.7561462E-02  0.1286731E+00
         -2   -1    0    0    0  501 -0.00000000000E+00  0.00000000000E+00  0.45464548052E+02  0.45464548052E+02  0.00000000000E+00 0.  1.
          2   -1    0    0  501    0  0.00000000000E+00 -0.00000000000E+00 -0.29829596534E+03  0.29829596534E+03  0.00000000000E+00 0. -1.
         25    2    1    2    0    0  0.37401174346E+02  0.11609000358E+02 -0.11948645886E+03  0.17736575250E+03  0.12509188453E+03 0.  0.
          5    1    3    3  502    0  0.49362783444E+01  0.63934903979E+02 -0.85340367487E+02  0.10682925402E+03  0.41800000000E+01 0. -1.
         -5    1    3    3    0  502  0.32464896002E+02 -0.52325903620E+02 -0.34146091371E+02  0.70536498481E+02  0.41800000000E+01 0. -1.
        -11    1    1    2    0    0  0.14313764143E+02 -0.74572881964E+01  0.63750791109E+01  0.17353288589E+02  0.00000000000E+00 0.  1.
         11    1    1    2    0    0 -0.51714938489E+02 -0.41517121621E+01 -0.13972003754E+03  0.14904147230E+03  0.00000000000E+00 0. -1.
</event>
<event>
 7    1  0.2530765E-009  0.2009439E+03  0.7561462E-02  0.1148945E+00
         -2   -1    0    0    0  501 -0.00000000000E+00  0.00000000000E+00  0.11419414108E+03  0.11419414108E+03  0.00000000000E+00 0.  1.
          2   -1    0    0  501    0  0.00000000000E+00 -0.00000000000E+00 -0.40207261776E+03  0.40207261776E+03  0.00000000000E+00 0. -1.
         25    2    1    2    0    0 -0.12165695977E+03 -0.13392802689E+03 -0.19682311745E+03  0.29516590485E+03  0.12508572889E+03 0.  0.
          5    1    3    3  502    0 -0.50450547987E+02  0.16690516450E+02 -0.46923743097E+02  0.71015077257E+02  0.41800000000E+01 0.  1.
         -5    1    3    3    0  502 -0.71206411785E+02 -0.15061854334E+03 -0.14989937436E+03  0.22415082759E+03  0.41800000000E+01 0.  1.
        -11    1    1    2    0    0  0.64431343975E+02  0.84850821996E+02 -0.49494805772E+01  0.10665625832E+03  0.00000000000E+00 0.  1.
         11    1    1    2    0    0  0.57225615797E+02  0.49077204891E+02 -0.86105878644E+02  0.11444459568E+03  0.00000000000E+00 0. -1.
</event>
<event>
 7    1  0.2530765E-009  0.1147693E+03  0.7561462E-02  0.1251984E+00
          1   -1    0    0  501    0  0.00000000000E+00  0.00000000000E+00  0.25152978541E+03  0.25152978541E+03  0.00000000000E+00 0. -1.
         -1   -1    0    0    0  501 -0.00000000000E+00 -0.00000000000E+00 -0.79268417783E+02  0.79268417783E+02  0.00000000000E+00 0.  1.
         25    2    1    2    0    0  0.23743333250E+02  0.24431129594E+02  0.85252771062E+02  0.15516409011E+03  0.12508890406E+03 0.  0.
          5    1    3    3  502    0 -0.26877565035E+02  0.52874486896E+02  0.10440620940E+02  0.60370471527E+02  0.41800000000E+01 0. -1.
         -5    1    3    3    0  502  0.50620898285E+02 -0.28443357302E+02  0.74812150122E+02  0.94793618581E+02  0.41800000000E+01 0. -1.
        -11    1    1    2    0    0  0.39934762670E+02 -0.26878521936E+02 -0.19158630703E+02  0.51810166390E+02  0.00000000000E+00 0.  1.
         11    1    1    2    0    0 -0.63678095919E+02  0.24473923412E+01  0.10616722726E+03  0.12382394669E+03  0.00000000000E+00 0. -1.
</event>
<event>
 7    1  0.2530765E-009  0.1166022E+03  0.7561462E-02  0.1248810E+00
          3   -1    0    0  501    0  0.00000000000E+00  0.00000000000E+00  0.61712358047E+02  0.61712358047E+02  0.00000000000E+00 0. -1.
         -3   -1    0    0    0  501 -0.00000000000E+00 -0.00000000000E+00 -0.30387668812E+03  0.30387668812E+03  0.00000000000E+00 0.  1.
         25    2    1    2    0    0 -0.14088329692E+02  0.78878672354E+02 -0.17203115840E+03  0.22729570279E+03  0.12509312954E+03 0.  0.
          5    1    3    3  502    0 -0.35330324329E+02  0.10445304641E+03 -0.15337568946E+03  0.18894508524E+03  0.41800000000E+01 0. -1.
         -5    1    3    3    0  502  0.21241994638E+02 -0.25574374054E+02 -0.18655468942E+02  0.38350617542E+02  0.41800000000E+01 0. -1.
        -11    1    1    2    0    0 -0.13597373435E+02 -0.34025945100E+02  0.13822792438E+02  0.39162776907E+02  0.00000000000E+00 0. -1.
         11    1    1    2    0    0  0.27685703126E+02 -0.44852727254E+02 -0.83955964112E+02  0.99130566476E+02  0.00000000000E+00 0.  1.
</event>
<event>
 7    1  0.2530765E-009  0.2270280E+03  0.7561462E-02  0.1128749E+00
          2   -1    0    0  501    0  0.00000000000E+00  0.00000000000E+00  0.43792933905E+03  0.43792933905E+03  0.00000000000E+00 0. -1.
         -2   -1    0    0    0  501 -0.00000000000E+00 -0.00000000000E+00 -0.12582651710E+03  0.12582651710E+03  0.00000000000E+00 0.  1.
         25    2    1    2    0    0  0.18298329735E+03 -0.10607018075E+03  0.18619395530E+03  0.30830015351E+03  0.12508807022E+03 0.  0.
          5    1    3    3  502    0  0.11459952694E+03 -0.12672522642E+03  0.10735264561E+03  0.20182764307E+03  0.41800000000E+01 0.  1.
         -5    1    3    3    0  502  0.68383770413E+02  0.20655045667E+02  0.78841309690E+02  0.10647251045E+03  0.41800000000E+01 0.  1.
        -11    1    1    2    0    0 -0.58788169950E+02  0.30834652569E+02  0.78279209788E+02  0.10263751463E+03  0.00000000000E+00 0. -1.
         11    1    1    2    0    0 -0.12419512740E+03  0.75235528185E+02  0.47629656860E+02  0.15281818800E+03  0.00000000000E+00 0.  1.
</event>
<event>
 7    1  0.2530765E-009  0.1226574E+03  0.7561462E-02  0.1238776E+00
          2   -1    0    0  501    0  0.00000000000E+00  0.00000000000E+00  0.25867859090E+03  0.25867859090E+03  0.00000000000E+00 0. -1.
         -2   -1    0    0    0  501 -0.00000000000E+00 -0.00000000000E+00 -0.76174354561E+02  0.76174354561E+02  0.00000000000E+00 0.  1.
         25    2    1    2    0    0 -0.46626564336E+02 -0.44673225465E+02  0.17253434730E+03  0.22267867410E+03  0.12509179559E+03 0.  0.
          5    1    3    3  502    0  0.41631730003E+02 -0.13647150198E+02  0.34715026933E+02  0.56054002057E+02  0.41800000000E+01 0. -1.
         -5    1    3    3    0  502 -0.88258294340E+02 -0.31026075267E+02  0.13781932037E+03  0.16662467204E+03  0.41800000000E+01 0. -1.
        -11    1    1    2    0    0  0.47829871065E+01 -0.25506388029E+02 -0.10414463875E+02  0.27962722574E+02  0.00000000000E+00 0.  1.
         11    1    1    2    0    0  0.41843577230E+02  0.70179613494E+02  0.20384352911E+02  0.84211548787E+02  0.00000000000E+00 0. -1.
</event>
<event>
 7    1  0.2530765E-009  0.6252875E+02  0.7561462E-02  0.1387516E+00
         -4   -1    0    0    0  501 -0.00000000000E+00  0.00000000000E+00  0.40788268801E+02  0.40788268801E+02  0.00000000000E+00 0.  1.
          4   -1    0    0  501    0  0.00000000000E+00 -0.00000000000E+00 -0.35894452065E+03  0.35894452065E+03  0.00000000000E+00 0. -1.
         25    2    1    2    0    0  0.44799928732E+02 -0.76490797558E+01 -0.22796025013E+03  0.26396715394E+03  0.12508893111E+03 0.  0.
          5    1    3    3  502    0  0.38871147367E+02  0.45060254734E+01 -0.39964461604E+01  0.39556470332E+02  0.41800000000E+01 0. -1.
         -5    1    3    3    0  502  0.59287813640E+01 -0.12155105229E+02 -0.22396380397E+03  0.22441068361E+03  0.41800000000E+01 0. -1.
        -11    1    1    2    0    0 -0.13548487382E+02 -0.23689621549E+02  0.76782912115E+01  0.28349882458E+02  0.00000000000E+00 0.  1.
         11    1    1    2    0    0 -0.31251441350E+02  0.31338701305E+02 -0.97874292930E+02  0.10741575305E+03  0.00000000000E+00 0. -1.
</event>
<event>
 7    1  0.2530765E-009  0.1478838E+03  0.7561462E-02  0.1203098E+00
          2   -1    0    0  501    0  0.00000000000E+00  0.00000000000E+00  0.25213725807E+03  0.25213725807E+03  0.00000000000E+00 0. -1.
         -2   -1    0    0    0  501 -0.00000000000E+00 -0.00000000000E+00 -0.15205999196E+03  0.15205999196E+03  0.00000000000E+00 0.  1.
         25    2    1    2    0    0  0.60834443476E+02  0.11494649459E+03 -0.48626358712E+02  0.18688054040E+03  0.12508512096E+03 0.  0.
          5    1    3    3  502    0  0.71326044543E+02  0.29830784753E+02 -0.63006850835E+02  0.99822923226E+02  0.41800000000E+01 0.  1.
         -5    1    3    3    0  502 -0.10491601067E+02  0.85115709836E+02  0.14380492124E+02  0.87057617171E+02  0.41800000000E+01 0.  1.
        -11    1    1    2    0    0 -0.25507213252E+02 -0.24451733303E+02 -0.47970296782E+01  0.35658332590E+02  0.00000000000E+00 0.  1.
         11    1    1    2    0    0 -0.35327230224E+02 -0.90494761285E+02  0.15350065450E+03  0.18165837704E+03  0.00000000000E+00 0. -1.
</event>
<event>
 7    1  0.2530765E-009  0.1435867E+03  0.7561462E-02  0.1208583E+00
         -4   -1    0    0    0  501 -0.00000000000E+00  0.00000000000E+00  0.16058228839E+03  0.16058228839E+03  0.00000000000E+00 0.  1.
          4   -1    0    0  501    0  0.00000000000E+00 -0.00000000000E+00 -0.17402103457E+03  0.17402103457E+03  0.00000000000E+00 0. -1.
         25    2    1    2    0    0 -0.72028401813E+02  0.97860403521E+02 -0.43067410518E+02  0.17963154344E+03  0.12509172756E+03 0.  0.
          5    1    3    3  502    0 -0.36325997248E+02  0.43786043492E+01 -0.67182883704E+02  0.76614375380E+02  0.41800000000E+01 0.  1.
         -5    1    3    3    0  502 -0.35702404565E+02  0.93481799171E+02  0.24115473186E+02  0.10301716806E+03  0.41800000000E+01 0.  1.
        -11    1    1    2    0    0  0.91364015660E+02 -0.65220861064E+02  0.32672659998E+02  0.11691298810E+03  0.00000000000E+00 0. -1.
         11    1    1    2    0    0 -0.19335613847E+02 -0.32639542456E+02 -0.30439956655E+01  0.38058791418E+02  0.00000000000E+00 0.  1.
</event>
<event>
 7    1  0.2530765E-009  0.1123304E+03  0.7561462E-02  0.1256314E+00
         -2   -1    0    0    0  501 -0.00000000000E+00  0.00000000000E+00  0.13850614466E+03  0.13850614466E+03  0.00000000000E+00 0. -1.
          2   -1    0    0  501    0  0.00000000000E+00 -0.00000000000E+00 -0.10829248335E+03  0.10829248335E+03  0.00000000000E+00 0.  1.
         25    2    1    2    0    0 -0.42855964941E+02 -0.22401011517E+02  0.45480312512E+02  0.14161093589E+03  0.12508700688E+03 0.  0.
          5    1    3    3  502    0  0.12540139751E+02 -0.61268039424E+02  0.38248045508E+02  0.73426242891E+02  0.41800000000E+01 0.  1.
         -5    1    3    3    0  502 -0.55396104692E+02  0.38867027908E+02  0.72322670038E+01  0.68184693000E+02  0.41800000000E+01 0.  1.
        -11    1    1    2    0    0  0.64540616542E+02  0.30044079873E+02 -0.30666178110E+02  0.77514852763E+02  0.00000000000E+00 0.  1.
         11    1    1    2    0    0 -0.21684651600E+02 -0.76430683569E+01  0.15399526903E+02  0.27672839352E+02  0.00000000000E+00 0. -1.
</event>
<event>
 7    1  0.2530765E-009  0.7830792E+02  0.7561462E-02  0.1333923E+00
          2   -1    0    0  501    0  0.00000000000E+00  0.00000000000E+00  0.88682421276E+03  0.88682421276E+03  0.00000000000E+00 0. -1.
         -2   -1    0    0    0  501 -0.00000000000E+00 -0.00000000000E+00 -0.16622106812E+02  0.16622106812E+02  0.00000000000E+00 0.  1.
         25    2    1    2    0    0  0.47561378694E+02  0.11483856266E+02  0.56895082593E+03  0.58459050977E+03  0.12508820121E+03 0.  0.
          5    1    3    3  502    0  0.37401785416E+02  0.16822363580E+02  0.57075667366E+03  0.57224342582E+03  0.41800000000E+01 0. -1.
         -5    1    3    3    0  502  0.10159593278E+02 -0.53385073139E+01 -0.18058477286E+01  0.12347083944E+02  0.41800000000E+01 0. -1.
        -11    1    1    2    0    0  0.27303541625E+02  0.78428633189E+00  0.59270223453E+02  0.65261457833E+02  0.00000000000E+00 0. -1.
         11    1    1    2    0    0 -0.74864920319E+02 -0.12268142598E+02  0.24198105656E+03  0.25359435197E+03  0.00000000000E+00 0.  1.
</event>
<event>
 7    1  0.2530765E-009  0.1223256E+03  0.7561462E-02  0.1239309E+00
         -1   -1    0    0    0  501 -0.00000000000E+00  0.00000000000E+00  0.42060886107E+03  0.42060886107E+03  0.00000000000E+00 0.  1.
          1   -1    0    0  501    0  0.00000000000E+00 -0.00000000000E+00 -0.39122866414E+02  0.39122866414E+02  0.00000000000E+00 0. -1.
         25    2    1    2    0    0  0.59158356691E+02  0.44829200307E+01  0.15067152476E+03  0.20461991221E+03  0.12509033679E+03 0.  0.
          5    1    3    3  502    0 -0.39165400767E+02 -0.73178337262E+00  0.51125604518E+02  0.64542729734E+02  0.41800000000E+01 0. -1.
         -5    1    3    3    0  502  0.98323757459E+02  0.52147034033E+01  0.99545920246E+02  0.14007718247E+03  0.41800000000E+01 0. -1.
        -11    1    1    2    0    0 -0.51034903528E+02  0.37889164298E+02  0.16034932776E+03  0.17248784613E+03  0.00000000000E+00 0.  1.
         11    1    1    2    0    0 -0.81234531637E+01 -0.42372084329E+02  0.70465142129E+02  0.82623969143E+02  0.00000000000E+00 0. -1.
</event>
<event>
 7    1  0.2530765E-009  0.1042690E+03  0.7561462E-02  0.1271567E+00
         -4   -1    0    0    0  501 -0.00000000000E+00  0.00000000000E+00  0.33530888239E+03  0.33530888239E+03  0.00000000000E+00 0.  1.
          4   -1    0    0  501    0  0.00000000000E+00 -0.00000000000E+00 -0.44606833495E+02  0.44606833495E+02  0.00000000000E+00 0. -1.
         25    2    1    2    0    0 -0.40388406725E+02  0.30589483876E+02  0.11781054259E+03  0.17914627747E+03  0.12508846816E+03 0.  0.
          5    1    3    3  502    0  0.41827116590E+02  0.82020480882E+01  0.14615209730E+02  0.45253265413E+02  0.41800000000E+01 0. -1.
         -5    1    3    3    0  502 -0.82215523315E+02  0.22387435788E+02  0.10319533286E+03  0.13389301206E+03  0.41800000000E+01 0. -1.
        -11    1    1    2    0    0 -0.10057448111E+02 -0.28150715794E+02  0.12128945943E+02  0.32260291256E+02  0.00000000000E+00 0. -1.
         11    1    1    2    0    0  0.50445854837E+02 -0.24387680815E+01  0.16076256037E+03  0.16850914716E+03  0.00000000000E+00 0.  1.
</event>
<event>
 7    1  0.2530765E-009  0.4913548E+02  0.7561462E-02  0.1450061E+00
         -2   -1    0    0    0  501 -0.00000000000E+00  0.00000000000E+00  0.68714273981E+02  0.68714273981E+02  0.00000000000E+00 0.  1.
          2   -1    0    0  501    0  0.00000000000E+00 -0.00000000000E+00 -0.18136722150E+03  0.18136722150E+03  0.00000000000E+00 0. -1.
         25    2    1    2    0    0 -0.36024690354E+01  0.13486070402E+02 -0.84350243406E+02  0.15151674907E+03  0.12509000682E+03 0.  0.
          5    1    3    3  502    0 -0.21144328592E+02 -0.22823528511E+02 -0.10242593008E+03  0.10712861260E+03  0.41800000000E+01 0. -1.
         -5    1    3    3    0  502  0.17541859557E+02  0.36309598913E+02  0.18075686675E+02  0.44388136464E+02  0.41800000000E+01 0. -1.
        -11    1    1    2    0    0 -0.93289952204E+01 -0.80048060526E+01  0.33239761624E+02  0.35439932627E+02  0.00000000000E+00 0.  1.
         11    1    1    2    0    0  0.12931464256E+02 -0.54812643496E+01 -0.61542465733E+02  0.63124813784E+02  0.00000000000E+00 0. -1.
</event>
<event>
 7    1  0.2530765E-009  0.1416209E+03  0.7561462E-02  0.1211164E+00
         -4   -1    0    0    0  501 -0.00000000000E+00  0.00000000000E+00  0.50733775895E+03  0.50733775895E+03  0.00000000000E+00 0.  1.
          4   -1    0    0  501    0  0.00000000000E+00 -0.00000000000E+00 -0.51393991097E+02  0.51393991097E+02  0.00000000000E+00 0. -1.
         25    2    1    2    0    0 -0.91367983684E+02  0.73963140258E+02  0.22103457339E+03  0.27986399651E+03  0.12509564081E+03 0.  0.
          5    1    3    3  502    0 -0.11162158118E+03  0.85237550868E+02  0.21262003072E+03  0.25485204988E+03  0.41800000000E+01 0. -1.
         -5    1    3    3    0  502  0.20253597493E+02 -0.11274410610E+02  0.84145426633E+01  0.25011946630E+02  0.41800000000E+01 0. -1.
        -11    1    1    2    0    0  0.40202316809E+02 -0.45170789898E+02  0.20347778452E+03  0.21227302073E+03  0.00000000000E+00 0.  1.
         11    1    1    2    0    0  0.51165666875E+02 -0.28792350360E+02  0.31431409939E+02  0.66594732800E+02  0.00000000000E+00 0. -1.
</event>
<event>
 7    1  0.2530765E-009  0.1224311E+03  0.7561462E-02  0.1239140E+00
         -1   -1    0    0    0  501 -0.00000000000E+00  0.00000000000E+00  0.15896871902E+03  0.15896871902E+03  0.00000000000E+00 0.  1.
          1   -1    0    0  501    0  0.00000000000E+00 -0.00000000000E+00 -0.10871877727E+03  0.10871877727E+03  0.00000000000E+00 0. -1.
         25    2    1    2    0    0  0.30295998660E+02 -0.70428785385E+02  0.34947227360E+02  0.15082199547E+03  0.12509158354E+03 0.  0.
          5    1    3    3  502    0 -0.39701268361E+02 -0.44447584669E+02  0.45772586179E+02  0.75262079017E+02  0.41800000000E+01 0. -1.
         -5    1    3    3    0  502  0.69997267021E+02 -0.25981200716E+02 -0.10825358819E+02  0.75559916454E+02  0.41800000000E+01 0. -1.
        -11    1    1    2    0    0  0.14206962920E+02 -0.10713381379E+02  0.16566709375E+02  0.24311935248E+02  0.00000000000E+00 0.  1.
         11    1    1    2    0    0 -0.44502961580E+02  0.81142166765E+02 -0.12639949852E+01  0.92553565571E+02  0.00000000000E+00 0. -1.
</event>
<event>
 7    1  0.2530765E-009  0.1240224E+03  0.7561462E-02  0.1236605E+00
          4   -1    0    0  501    0  0.00000000000E+00  0.00000000000E+00  0.11061195926E+03  0.11061195926E+03  0.00000000000E+00 0. -1.
         -4   -1    0    0    0  501 -0.00000000000E+00 -0.00000000000E+00 -0.17199086209E+03  0.17199086209E+03  0.00000000000E+00 0.  1.
         25    2    1    2    0    0 -0.69780592667E+02  0.22907347703E+02  0.10145312364E+02  0.14540753582E+03  0.12508535653E+03 0.  0.
          5    1    3    3  502    0  0.20338308472E+02  0.45711916741E+02 -0.72953233770E+01  0.50733817782E+02  0.41800000000E+01 0. -1.
         -5    1    3    3    0  502 -0.90118901139E+02 -0.22804569038E+02  0.17440635741E+02  0.94673718035E+02  0.41800000000E+01 0. -1.
        -11    1    1    2    0    0  0.22576542746E+02 -0.46739042486E+02 -0.66092173551E+02  0.84038168587E+02  0.00000000000E+00 0.  1.
         11    1    1    2    0    0  0.47204049922E+02  0.23831694783E+02 -0.54320416435E+01  0.53157116943E+02  0.00000000000E+00 0. -1.
</event>
<event>
 7    1  0.2530765E-009  0.1972486E+03  0.7561462E-02  0.1152081E+00
          1   -1    0    0  501    0  0.00000000000E+00  0.00000000000E+00  0.14221028497E+03  0.14221028497E+03  0.00000000000E+00 0. -1.
         -1   -1    0    0    0  501 -0.00000000000E+00 -0.00000000000E+00 -0.32562895322E+03  0.32562895322E+03  0.00000000000E+00 0.  1.
         25    2    1    2    0    0  0.10440672140E+03 -0.15208397294E+03 -0.11687586505E+03  0.25166423897E+03  0.12507846757E+03 0.  0.
          5    1    3    3  502    0  0.78784725935E+02 -0.30490017612E+02 -0.91801736016E+02  0.12482670127E+03  0.41800000000E+01 0. -1.
         -5    1    3    3    0  502  0.25621995462E+02 -0.12159395533E+03 -0.25074129037E+02  0.12683753770E+03  0.41800000000E+01 0. -1.
        -11    1    1    2    0    0 -0.71101387360E+02  0.86061367706E+02 -0.84583902107E+02  0.14005856915E+03  0.00000000000E+00 0.  1.
         11    1    1    2    0    0 -0.33305334037E+02  0.66022605233E+02  0.18041098912E+02  0.76116430072E+02  0.00000000000E+00 0. -1.
</event>
<event>
 7    1  0.2530765E-009  0.1096118E+03  0.7561462E-02  0.1261290E+00
         -2   -1    0    0    0  501 -0.00000000000E+00  0.00000000000E+00  0.50542768538E+02  0.50542768538E+02  0.00000000000E+00 0.  1.
          2   -1    0    0  501    0  0.00000000000E+00 -0.00000000000E+00 -0.43845306897E+03  0.43845306897E+03  0.00000000000E+00 0. -1.
         25    2    1    2    0    0 -0.25178917294E+02  0.57920011191E+02 -0.77859667903E+02  0.16030785521E+03  0.12509106676E+03 0.  0.
          5    1    3    3  502    0  0.20241271924E+02  0.63900076006E+02  0.30565765474E+01  0.67229040324E+02  0.41800000000E+01 0.  1.
         -5    1    3    3    0  502 -0.45420189219E+02 -0.59800648154E+01 -0.80916244451E+02  0.93078814882E+02  0.41800000000E+01 0.  1.
        -11    1    1    2    0    0  0.14168016125E+02 -0.80076390906E+02 -0.20020159671E+03  0.21608711296E+03  0.00000000000E+00 0.  1.
         11    1    1    2    0    0  0.11010901170E+02  0.22156379715E+02 -0.10984903581E+03  0.11260086934E+03  0.00000000000E+00 0. -1.
</event>
<event>
 7    1  0.2541304E-009  0.1113177E+03  0.7561462E-02  0.1258149E+00
         -1   -1    0    0    0  501 -0.00000000000E+00  0.00000000000E+00  0.11926271594E+03  0.11926271594E+03  0.00000000000E+00 0.  1.
          1   -1    0    0  501    0  0.00000000000E+00 -0.00000000000E+00 -0.15272735282E+03  0.15272735282E+03  0.00000000000E+00 0. -1.
         25    2    1    2    0    0 -0.48710634121E+02  0.61384272413E+02 -0.12225951995E+01  0.14761403866E+03  0.12509058676E+03 0.  0.
          5    1    3    3  502    0 -0.87875109907E+02  0.41171867253E+02  0.18951559821E+02  0.98963587313E+02  0.41800000000E+01 0. -1.
         -5    1    3    3    0  502  0.39164475785E+02  0.20212405160E+02 -0.20174155020E+02  0.48650451351E+02  0.41800000000E+01 0. -1.
        -11    1    1    2    0    0  0.92589141253E+00 -0.13682350663E+02 -0.52197997371E+02  0.53969388770E+02  0.00000000000E+00 0. -1.
         11    1    1    2    0    0  0.47784742709E+02 -0.47701921750E+02  0.19955955691E+02  0.70406641320E+02  0.00000000000E+00 0.  1.
</event>
<event>
 7    1  0.2530765E-009  0.1360487E+03  0.7561462E-02  0.1218747E+00
         -2   -1    0    0    0  501 -0.00000000000E+00  0.00000000000E+00  0.46935204941E+02  0.46935204941E+02  0.00000000000E+00 0.  1.
          2   -1    0    0  501    0  0.00000000000E+00 -0.00000000000E+00 -0.60814138531E+03  0.60814138531E+03  0.00000000000E+00 0. -1.
         25    2    1    2    0    0  0.84338357001E+02  0.16942907175E+02 -0.48592201364E+03  0.50908535673E+03  0.12509067322E+03 0.  0.
          5    1    3    3  502    0  0.84046820759E+02 -0.38839295033E+02 -0.25013065150E+03  0.26674927205E+03  0.41800000000E+01 0. -1.
         -5    1    3    3    0  502  0.29153624166E+00  0.55782202208E+02 -0.23579136214E+03  0.24233608467E+03  0.41800000000E+01 0. -1.
        -11    1    1    2    0    0 -0.58864238437E+02  0.32948403181E+02 -0.52652358572E+02  0.85573750077E+02  0.00000000000E+00 0.  1.
         11    1    1    2    0    0 -0.25474118564E+02 -0.49891310356E+02 -0.22631808153E+02  0.60417483446E+02  0.00000000000E+00 0. -1.
</event>
<event>
 7    1  0.2530765E-009  0.1015849E+03  0.7561462E-02  0.1276998E+00
         -3   -1    0    0    0  501 -0.00000000000E+00  0.00000000000E+00  0.32885080612E+02  0.32885080612E+02  0.00000000000E+00 0.  1.
          3   -1    0    0  501    0  0.00000000000E+00 -0.00000000000E+00 -0.56197725653E+03  0.56197725653E+03  0.00000000000E+00 0. -1.
         25    2    1    2    0    0 -0.56724708219E+02 -0.54996362183E+02 -0.24253962503E+03  0.28410184441E+03  0.12508435517E+03 0.  0.
          5    1    3    3  502    0  0.11118761818E+00 -0.15496774274E+00  0.14540472935E+02  0.15130569416E+02  0.41800000000E+01 0. -1.
         -5    1    3    3    0  502 -0.56835895837E+02 -0.54841394440E+02 -0.25708009797E+03  0.26897127499E+03  0.41800000000E+01 0. -1.
        -11    1    1    2    0    0 -0.71567462225E+01 -0.20080582802E+02 -0.60621984552E+02  0.64260982199E+02  0.00000000000E+00 0.  1.
         11    1    1    2    0    0  0.63881454442E+02  0.75076944985E+02 -0.22593056633E+03  0.24649951053E+03  0.00000000000E+00 0. -1.
</event>
<event>
 7    1  0.2530765E-009  0.9767764E+02  0.7561462E-02  0.1285257E+00
          1   -1    0    0  501    0  0.00000000000E+00  0.00000000000E+00  0.12017144885E+03  0.12017144885E+03  0.00000000000E+00 0. -1.
         -1   -1    0    0    0  501 -0.00000000000E+00 -0.00000000000E+00 -0.14360170976E+03  0.14360170976E+03  0.00000000000E+00 0.  1.
         25    2    1    2    0    0 -0.61536040773E+02 -0.94191935420E+01  0.23913520104E+02  0.14175726303E+03  0.12509140520E+03 0.  0.
          5    1    3    3  502    0 -0.22140140150E+02 -0.36622624758E+02 -0.42051242794E+02  0.60143011818E+02  0.41800000000E+01 0. -1.
         -5    1    3    3    0  502 -0.39395900623E+02  0.27203431216E+02  0.65964762898E+02  0.81614251207E+02  0.41800000000E+01 0. -1.
        -11    1    1    2    0    0  0.37596333758E+02 -0.36572218556E+02 -0.46600791092E+02  0.70161565066E+02  0.00000000000E+00 0. -1.
         11    1    1    2    0    0  0.23939707015E+02  0.45991412098E+02 -0.74298992305E+00  0.51854330511E+02  0.00000000000E+00 0.  1.
</event>
<event>
 7    1  0.2530765E-009  0.2285064E+03  0.7561462E-02  0.1127695E+00
          2   -1    0    0  501    0  0.00000000000E+00  0.00000000000E+00  0.15600276690E+03  0.15600276690E+03  0.00000000000E+00 0. -1.
         -2   -1    0    0    0  501 -0.00000000000E+00 -0.00000000000E+00 -0.39681178100E+03  0.39681178100E+03  0.00000000000E+00 0.  1.
         25    2    1    2    0    0 -0.18457859652E+03  0.11854632164E+03 -0.16806273555E+03  0.30333715300E+03  0.12508339873E+03 0.  0.
          5    1    3    3  502    0 -0.88142364638E+02  0.55781854387E+01 -0.11607442921E+03  0.14591414638E+03  0.41800000000E+01 0.  1.
         -5    1    3    3    0  502 -0.96436231883E+02  0.11296813620E+03 -0.51988306341E+02  0.15742300662E+03  0.41800000000E+01 0.  1.
        -11    1    1    2    0    0  0.77966312332E+01 -0.95237135677E+01 -0.36657971238E+02  0.38669050078E+02  0.00000000000E+00 0.  1.
         11    1    1    2    0    0  0.17678196529E+03 -0.10902260807E+03 -0.36088307311E+02  0.21080834482E+03  0.00000000000E+00 0. -1.
</event>
<event>
 7    1  0.2530765E-009  0.1607480E+03  0.7561462E-02  0.1187855E+00
         -1   -1    0    0    0  501 -0.00000000000E+00  0.00000000000E+00  0.73919512225E+02  0.73919512225E+02  0.00000000000E+00 0.  1.
          1   -1    0    0  501    0  0.00000000000E+00 -0.00000000000E+00 -0.37281835355E+03  0.37281835355E+03  0.00000000000E+00 0. -1.
         25    2    1    2    0    0  0.31895426533E+02 -0.11711419567E+03 -0.20092024492E+03  0.26599008997E+03  0.12509488431E+03 0.  0.
          5    1    3    3  502    0  0.49758913873E+02  0.35244808615E+01 -0.40240648864E+02  0.64227359405E+02  0.41800000000E+01 0. -1.
         -5    1    3    3    0  502 -0.17863487340E+02 -0.12063867653E+03 -0.16067959605E+03  0.20176273056E+03  0.41800000000E+01 0. -1.
        -11    1    1    2    0    0 -0.55871141341E+02  0.40153725315E+02 -0.61446003279E+02  0.92247045538E+02  0.00000000000E+00 0.  1.
         11    1    1    2    0    0  0.23975714809E+02  0.76960470358E+02 -0.36532593133E+02  0.88500730275E+02  0.00000000000E+00 0. -1.
</event>
<event>
 7    1  0.2530765E-009  0.9330626E+02  0.7561462E-02  0.1295037E+00
          1   -1    0    0  501    0  0.00000000000E+00  0.00000000000E+00  0.24041774575E+03  0.24041774575E+03  0.00000000000E+00 0. -1.
         -1   -1    0    0    0  501 -0.00000000000E+00 -0.00000000000E+00 -0.49810894521E+02  0.49810894521E+02  0.00000000000E+00 0.  1.
         25    2    1    2    0    0  0.19546060340E+02 -0.10543897929E+02  0.12116058560E+03  0.17555807982E+03  0.12509008605E+03 0.  0.
          5    1    3    3  502    0 -0.19665930107E+02 -0.56817194734E+02  0.86953531299E+02  0.10579854172E+03  0.41800000000E+01 0. -1.
         -5    1    3    3    0  502  0.39211990447E+02  0.46273296804E+02  0.34207054300E+02  0.69759538099E+02  0.41800000000E+01 0. -1.
        -11    1    1    2    0    0 -0.41996439311E+02  0.95785071658E+01  0.14957890893E+01  0.43100882814E+02  0.00000000000E+00 0.  1.
         11    1    1    2    0    0  0.22450378971E+02  0.96539076362E+00  0.67950476546E+02  0.71569677644E+02  0.00000000000E+00 0. -1.
</event>
<event>
 7    1  0.2530765E-009  0.9957078E+02  0.7561462E-02  0.1281201E+00
          1   -1    0    0  501    0  0.00000000000E+00  0.00000000000E+00  0.10820605002E+04  0.10820605002E+04  0.00000000000E+00 0. -1.
         -1   -1    0    0    0  501 -0.00000000000E+00 -0.00000000000E+00 -0.13669908595E+02  0.13669908595E+02  0.00000000000E+00 0.  1.
         25    2    1    2    0    0 -0.41283346755E+02  0.44064832721E+02  0.60475967209E+03  0.62050640882E+03  0.12509163922E+03 0.  0.
          5    1    3    3  502    0 -0.44847621455E+02  0.62662297453E+02  0.59263019709E+03  0.59763357969E+03  0.41800000000E+01 0. -1.
         -5    1    3    3    0  502  0.35642746995E+01 -0.18597464732E+02  0.12129474996E+02  0.22872829127E+02  0.41800000000E+01 0. -1.
        -11    1    1    2    0    0  0.44168019041E+02  0.12529703219E+02  0.16522330003E+03  0.17148337016E+03  0.00000000000E+00 0.  1.
         11    1    1    2    0    0 -0.28846722858E+01 -0.56594535940E+02  0.29840761951E+03  0.30374062983E+03  0.00000000000E+00 0. -1.
</event>
<event>
 7    1  0.2530765E-009  0.1651765E+03  0.7561462E-02  0.1182973E+00
          3   -1    0    0  501    0  0.00000000000E+00  0.00000000000E+00  0.20405083990E+03  0.20405083990E+03  0.00000000000E+00 0. -1.
         -3   -1    0    0    0  501 -0.00000000000E+00 -0.00000000000E+00 -0.16152621653E+03  0.16152621653E+03  0.00000000000E+00 0.  1.
         25    2    1    2    0    0 -0.13386855228E+03 -0.50726450063E+02  0.45336102047E+02  0.19542763576E+03  0.12507052667E+03 0.  0.
          5    1    3    3  502    0 -0.15112907468E+03 -0.21624083818E+02  0.50687441774E+02  0.16091702013E+03  0.41800000000E+01 0. -1.
         -5    1    3    3    0  502  0.17260522391E+02 -0.29102366245E+02 -0.53513397274E+01  0.34510615630E+02  0.41800000000E+01 0. -1.
        -11    1    1    2    0    0  0.61222817934E+02  0.17674337247E+02 -0.46759230030E+02  0.79038226358E+02  0.00000000000E+00 0.  1.
         11    1    1    2    0    0  0.72645734351E+02  0.33052112816E+02  0.43947751357E+02  0.91111194319E+02  0.00000000000E+00 0. -1.
</event>
<event>
 7    1  0.2530765E-009  0.1144439E+03  0.7561462E-02  0.1252555E+00
         -1   -1    0    0    0  501 -0.00000000000E+00  0.00000000000E+00  0.19041969387E+02  0.19041969387E+02  0.00000000000E+00 0.  1.
          1   -1    0    0  501    0  0.00000000000E+00 -0.00000000000E+00 -0.99488009675E+03  0.99488009675E+03  0.00000000000E+00 0. -1.
         25    2    1    2    0    0  0.29056786086E+02 -0.33114992132E+02 -0.78732000146E+03  0.79841167053E+03  0.12509001327E+03 0.  0.
          5    1    3    3  502    0  0.76723783683E+02 -0.26637397759E+02 -0.57141631388E+03  0.57717429439E+03  0.41800000000E+01 0. -1.
         -5    1    3    3    0  502 -0.47666997597E+02 -0.64775943733E+01 -0.21590368758E+03  0.22123737614E+03  0.41800000000E+01 0. -1.
        -11    1    1    2    0    0  0.29291552333E+02 -0.48147842765E+01 -0.90906283197E+02  0.95630170503E+02  0.00000000000E+00 0.  1.
         11    1    1    2    0    0 -0.58348338419E+02  0.37929776409E+02 -0.97611842706E+02  0.11988022510E+03  0.00000000000E+00 0. -1.
</event>
<event>
 7    1  0.2588696E-009  0.1030663E+03  0.7561462E-02  0.1273977E+00
          2   -1    0    0  501    0  0.00000000000E+00  0.00000000000E+00  0.52597526211E+03  0.52597526211E+03  0.00000000000E+00 0. -1.
         -2   -1    0    0    0  501 -0.00000000000E+00 -0.00000000000E+00 -0.29074733358E+02  0.29074733358E+02  0.00000000000E+00 0.  1.
         25    2    1    2    0    0  0.27797046564E+02 -0.51760019996E+02  0.29239773178E+03  0.32341295092E+03  0.12509087819E+03 0.  0.
          5    1    3    3  502    0 -0.24108418437E+02 -0.59815001160E+02  0.24206643500E+03  0.25054476956E+03  0.41800000000E+01 0.  1.
         -5    1    3    3    0  502  0.51905465001E+02  0.80549811635E+01  0.50331296779E+02  0.72868181355E+02  0.41800000000E+01 0.  1.
        -11    1    1    2    0    0 -0.46365432274E+02  0.16960347072E+02  0.43265701598E+02  0.65645469132E+02  0.00000000000E+00 0.  1.
         11    1    1    2    0    0  0.18568385710E+02  0.34799672924E+02  0.16123709538E+03  0.16599157542E+03  0.00000000000E+00 0. -1.
</event>
<event>
 7    1  0.2530765E-009  0.9402713E+02  0.7561462E-02  0.1293382E+00
         -1   -1    0    0    0  501 -0.00000000000E+00  0.00000000000E+00  0.25428350650E+02  0.25428350650E+02  0.00000000000E+00 0.  1.
          1   -1    0    0  501    0  0.00000000000E+00 -0.00000000000E+00 -0.54069123172E+03  0.54069123172E+03  0.00000000000E+00 0. -1.
         25    2    1    2    0    0 -0.36694275061E+02 -0.25121274282E+00 -0.23208284399E+03  0.26618467511E+03  0.12508118108E+03 0.  0.
          5    1    3    3  502    0 -0.45339311661E+02 -0.33151613102E+02 -0.22399886754E+03  0.23097109710E+03  0.41800000000E+01 0. -1.
         -5    1    3    3    0  502  0.86450366004E+01  0.32900400359E+02 -0.80839764454E+01  0.35213578017E+02  0.41800000000E+01 0. -1.
        -11    1    1    2    0    0  0.63460258976E+02  0.17235760403E+02 -0.16621798819E+03  0.17875316921E+03  0.00000000000E+00 0.  1.
         11    1    1    2    0    0 -0.26765983916E+02 -0.16984547660E+02 -0.11696204890E+03  0.12118173805E+03  0.00000000000E+00 0. -1.
</event>
<event>
 7    1  0.2530765E-009  0.3919164E+03  0.7561462E-02  0.1046615E+00
          1   -1    0    0  501    0  0.00000000000E+00  0.00000000000E+00  0.44860942803E+03  0.44860942803E+03  0.00000000000E+00 0. -1.
         -1   -1    0    0    0  501 -0.00000000000E+00 -0.00000000000E+00 -0.38636277893E+03  0.38636277893E+03  0.00000000000E+00 0.  1.
         25    2    1    2    0    0 -0.23541966146E+03  0.29742878589E+03  0.16451022564E+03  0.43196908382E+03  0.12508946942E+03 0.  0.
          5    1    3    3  502    0 -0.22267493493E+03  0.20702186222E+03  0.99977444983E+02  0.32008614463E+03  0.41800000000E+01 0.  1.
         -5    1    3    3    0  502 -0.12744726538E+02  0.90406923678E+02  0.64532780655E+02  0.11188293919E+03  0.41800000000E+01 0.  1.
        -11    1    1    2    0    0  0.92711854471E+01 -0.59076607350E+02 -0.28575970418E+02  0.66276590897E+02  0.00000000000E+00 0.  1.
         11    1    1    2    0    0  0.22614847602E+03 -0.23835217854E+03 -0.73687606119E+02  0.33672653224E+03  0.00000000000E+00 0. -1.
</event>
<event>
 7    1  0.2530765E-009  0.2653067E+03  0.7561462E-02  0.1103996E+00
          2   -1    0    0  501    0  0.00000000000E+00  0.00000000000E+00  0.13798061278E+04  0.13798061278E+04  0.00000000000E+00 0.  1.
         -2   -1    0    0    0  501 -0.00000000000E+00 -0.00000000000E+00 -0.55252741192E+02  0.55252741192E+02  0.00000000000E+00 0. -1.
         25    2    1    2    0    0 -0.24366078431E+02  0.24380571040E+03  0.84718254163E+03  0.89073031497E+03  0.12508918806E+03 0.  0.
          5    1    3    3  502    0 -0.67106014582E+02  0.19742063643E+03  0.70338084430E+03  0.73364855988E+03  0.41800000000E+01 0.  1.
         -5    1    3    3    0  502  0.42739936152E+02  0.46385073976E+02  0.14380169733E+03  0.15708175510E+03  0.41800000000E+01 0.  1.
        -11    1    1    2    0    0  0.28841491979E+02 -0.20239522456E+02  0.95663622328E+02  0.10194605714E+03  0.00000000000E+00 0.  1.
         11    1    1    2    0    0 -0.44754135484E+01 -0.22356618795E+03  0.38170722261E+03  0.44238249684E+03  0.00000000000E+00 0. -1.
</event>
<event>
 7    1  0.2530765E-009  0.1045425E+03  0.7561462E-02  0.1271024E+00
         -1   -1    0    0    0  501 -0.00000000000E+00  0.00000000000E+00  0.26753733841E+03  0.26753733841E+03  0.00000000000E+00 0.  1.
          1   -1    0    0  501    0  0.00000000000E+00 -0.00000000000E+00 -0.58991363746E+02  0.58991363746E+02  0.00000000000E+00 0. -1.
         25    2    1    2    0    0 -0.36879385866E+02 -0.49569671288E+02  0.95839574888E+02  0.16926192992E+03  0.12508851023E+03 0.  0.
          5    1    3    3  502    0  0.24974272513E+02 -0.30285437071E+02 -0.13818512439E+02  0.41825179882E+02  0.41800000000E+01 0.  1.
         -5    1    3    3    0  502 -0.61853658379E+02 -0.19284234216E+02  0.10965808733E+03  0.12743675004E+03  0.41800000000E+01 0.  1.
        -11    1    1    2    0    0  0.56270085590E+02  0.55018943874E+01  0.37071013507E+02  0.67608086917E+02  0.00000000000E+00 0.  1.
         11    1    1    2    0    0 -0.19390699724E+02  0.44067776900E+02  0.75635386265E+02  0.89658685313E+02  0.00000000000E+00 0. -1.
</event>
<event>
 7    1  0.2530765E-009  0.1404424E+03  0.7561462E-02  0.1212735E+00
         -1   -1    0    0    0  501 -0.00000000000E+00  0.00000000000E+00  0.38702629336E+02  0.38702629336E+02  0.00000000000E+00 0.  1.
          1   -1    0    0  501    0  0.00000000000E+00 -0.00000000000E+00 -0.87582130237E+03  0.87582130237E+03  0.00000000000E+00 0. -1.
         25    2    1    2    0    0 -0.10961734227E+03 -0.25315993063E+02 -0.67644285810E+03  0.69705043724E+03  0.12509000976E+03 0.  0.
          5    1    3    3  502    0 -0.34328857287E+02 -0.58671559223E+02 -0.15744243741E+03  0.17154129474E+03  0.41800000000E+01 0.  1.
         -5    1    3    3    0  502 -0.75288484983E+02  0.33355566160E+02 -0.51900042070E+03  0.52550914250E+03  0.41800000000E+01 0.  1.
        -11    1    1    2    0    0  0.41966883811E+02 -0.22372451889E+02 -0.14897203969E+02  0.49836458807E+02  0.00000000000E+00 0.  1.
         11    1    1    2    0    0  0.67650458460E+02  0.47688444952E+02 -0.14577861097E+03  0.16763703567E+03  0.00000000000E+00 0. -1.
</event>
<event>
 7    1  0.2530765E-009  0.1065419E+03  0.7561462E-02  0.1267111E+00
         -1   -1    0    0    0  501 -0.00000000000E+00  0.00000000000E+00  0.47778029156E+02  0.47778029156E+02  0.00000000000E+00 0.  1.
          1   -1    0    0  501    0  0.00000000000E+00 -0.00000000000E+00 -0.35470136430E+03  0.35470136430E+03  0.00000000000E+00 0. -1.
         25    2    1    2    0    0 -0.33505832119E+02 -0.21073906263E+02 -0.26574402489E+03  0.29636790647E+03  0.12508916385E+03 0.  0.
          5    1    3    3  502    0 -0.76096898789E+02 -0.29728884065E+02 -0.12834888727E+03  0.15220201647E+03  0.41800000000E+01 0. -1.
         -5    1    3    3    0  502  0.42591066669E+02  0.86549778011E+01 -0.13739513761E+03  0.14416589000E+03  0.41800000000E+01 0. -1.
        -11    1    1    2    0    0 -0.22779739457E+02 -0.81539494169E+01  0.83984287899E+01  0.25611267578E+02  0.00000000000E+00 0.  1.
         11    1    1    2    0    0  0.56285571576E+02  0.29227855680E+02 -0.49577739047E+02  0.80500219405E+02  0.00000000000E+00 0. -1.
</event>
<event>
 7    1  0.2530765E-009  0.2763004E+03  0.7561462E-02  0.1097727E+00
         -1   -1    0    0    0  501 -0.00000000000E+00  0.00000000000E+00  0.62628084696E+03  0.62628084696E+03  0.00000000000E+00 0.  1.
          1   -1    0    0  501    0  0.00000000000E+00 -0.00000000000E+00 -0.13262610071E+03  0.13262610071E+03  0.00000000000E+00 0. -1.
         25    2    1    2    0    0 -0.32355555433E+01 -0.26639728692E+03  0.24213118728E+03  0.38112150915E+03  0.12509240416E+03 0.  0.
          5    1    3    3  502    0 -0.26705955638E+02 -0.14229964320E+03  0.54193746037E+02  0.15465067420E+03  0.41800000000E+01 0.  1.
         -5    1    3    3    0  502  0.23470400095E+02 -0.12409764372E+03  0.18793744125E+03  0.22647083494E+03  0.41800000000E+01 0.  1.
        -11    1    1    2    0    0 -0.43359710039E+02  0.14553183792E+03  0.12457336488E+03  0.19641309411E+03  0.00000000000E+00 0. -1.
         11    1    1    2    0    0  0.46595265582E+02  0.12086544901E+03  0.12695019409E+03  0.18137234441E+03  0.00000000000E+00 0.  1.
</event>
<event>
 7    1  0.2530765E-009  0.4160928E+02  0.7561462E-02  0.1496692E+00
         -2   -1    0    0    0  501 -0.00000000000E+00  0.00000000000E+00  0.96087479062E+02  0.96087479062E+02  0.00000000000E+00 0.  1.
          2   -1    0    0  501    0  0.00000000000E+00 -0.00000000000E+00 -0.13387814129E+03  0.13387814129E+03  0.00000000000E+00 0. -1.
         25    2    1    2    0    0 -0.15414749832E+02  0.15663343408E+02  0.67961134112E+00  0.12700550488E+03  0.12508789533E+03 0.  0.
          5    1    3    3  502    0 -0.21216840067E+02  0.16043006541E+02 -0.60073486556E+02  0.65831820180E+02  0.41800000000E+01 0. -1.
         -5    1    3    3    0  502  0.58020902344E+01 -0.37966313292E+00  0.60753097897E+02  0.61173684696E+02  0.41800000000E+01 0. -1.
        -11    1    1    2    0    0 -0.37697880196E+01  0.13615278902E+02  0.26005530828E+02  0.29595181279E+02  0.00000000000E+00 0.  1.
         11    1    1    2    0    0  0.19184537852E+02 -0.29278622311E+02 -0.64475804402E+02  0.73364934201E+02  0.00000000000E+00 0. -1.
</event>
<event>
 7    1  0.2530765E-009  0.1193640E+03  0.7561462E-02  0.1244150E+00
          2   -1    0    0  501    0  0.00000000000E+00  0.00000000000E+00  0.67608564620E+03  0.67608564620E+03  0.00000000000E+00 0. -1.
         -2   -1    0    0    0  501 -0.00000000000E+00 -0.00000000000E+00 -0.25101959505E+02  0.25101959505E+02  0.00000000000E+00 0.  1.
         25    2    1    2    0    0 -0.63654576346E+02  0.25849348089E+02  0.30811544351E+03  0.33956242101E+03  0.12508963725E+03 0.  0.
          5    1    3    3  502    0  0.51563856548E+01 -0.34499442279E+02  0.28250030804E+02  0.45081442646E+02  0.41800000000E+01 0. -1.
         -5    1    3    3    0  502 -0.68810962000E+02  0.60348790369E+02  0.27986541270E+03  0.29448097836E+03  0.41800000000E+01 0. -1.
        -11    1    1    2    0    0  0.33291773103E+02 -0.58548994670E+02  0.16437114332E+03  0.17763501820E+03  0.00000000000E+00 0. -1.
         11    1    1    2    0    0  0.30362803242E+02  0.32699646580E+02  0.17849709987E+03  0.18399016650E+03  0.00000000000E+00 0.  1.
</event>
<event>
 7    1  0.2530765E-009  0.1385715E+03  0.7561462E-02  0.1215264E+00
         -2   -1    0    0    0  501 -0.00000000000E+00  0.00000000000E+00  0.57351041012E+02  0.57351041012E+02  0.00000000000E+00 0.  1.
          2   -1    0    0  501    0  0.00000000000E+00 -0.00000000000E+00 -0.38524837219E+03  0.38524837219E+03  0.00000000000E+00 0. -1.
         25    2    1    2    0    0 -0.60194268188E+02  0.83531402144E+02 -0.17593953820E+03  0.23917045058E+03  0.12508772226E+03 0.  0.
          5    1    3    3  502    0 -0.15442011266E+02 -0.22639489677E+02  0.12772246796E+01  0.27750782109E+02  0.41800000000E+01 0. -1.
         -5    1    3    3    0  502 -0.44752256922E+02  0.10617089182E+03 -0.17721676288E+03  0.21141966847E+03  0.41800000000E+01 0. -1.
        -11    1    1    2    0    0 -0.18646719589E+02 -0.39846845074E+02 -0.37993877858E+02  0.58129217856E+02  0.00000000000E+00 0.  1.
         11    1    1    2    0    0  0.78840987777E+02 -0.43684557070E+02 -0.11396391511E+03  0.14529974476E+03  0.00000000000E+00 0. -1.
</event>
<event>
 7    1  0.2530765E-009  0.8127699E+02  0.7561462E-02  0.1325466E+00
         -1   -1    0    0    0  501 -0.00000000000E+00  0.00000000000E+00  0.36351064681E+03  0.36351064681E+03  0.00000000000E+00 0.  1.
          1   -1    0    0  501    0  0.00000000000E+00 -0.00000000000E+00 -0.52028427602E+02  0.52028427602E+02  0.00000000000E+00 0. -1.
         25    2    1    2    0    0 -0.59227432323E+01  0.12078276732E+02  0.44590149341E+02  0.13348535427E+03  0.12509634179E+03 0.  0.
          5    1    3    3  502    0 -0.13931138236E+02 -0.27446486901E+02 -0.33384255966E+02  0.45600078971E+02  0.41800000000E+01 0. -1.
         -5    1    3    3    0  502  0.80083950037E+01  0.39524763633E+02  0.77974405307E+02  0.87885275295E+02  0.41800000000E+01 0. -1.
        -11    1    1    2    0    0 -0.38459568688E+02 -0.23562811023E+02  0.14345029581E+03  0.15037397333E+03  0.00000000000E+00 0.  1.
         11    1    1    2    0    0  0.44382311920E+02  0.11484534291E+02  0.12344177406E+03  0.13167974682E+03  0.00000000000E+00 0. -1.
</event>
<event>
 7    1  0.2530765E-009  0.8241570E+02  0.7561462E-02  0.1322333E+00
          4   -1    0    0  501    0  0.00000000000E+00  0.00000000000E+00  0.61464584705E+02  0.61464584705E+02  0.00000000000E+00 0. -1.
         -4   -1    0    0    0  501 -0.00000000000E+00 -0.00000000000E+00 -0.21256855184E+03  0.21256855184E+03  0.00000000000E+00 0.  1.
         25    2    1    2    0    0  0.28428522167E+02  0.26378174570E+02 -0.76322211851E+02  0.15158115889E+03  0.12509108179E+03 0.  0.
          5    1    3    3  502    0  0.31527121884E+01  0.41234523422E+02 -0.10340713236E+03  0.11144834202E+03  0.41800000000E+01 0.  1.
         -5    1    3    3    0  502  0.25275809979E+02 -0.14856348852E+02  0.27084920508E+02  0.40132816874E+02  0.41800000000E+01 0.  1.
        -11    1    1    2    0    0  0.30428270870E+02 -0.40301758248E+01 -0.40341021691E+02  0.50690433184E+02  0.00000000000E+00 0.  1.
         11    1    1    2    0    0 -0.58856793038E+02 -0.22347998745E+02 -0.34440733597E+02  0.71761544474E+02  0.00000000000E+00 0. -1.
</event>
<event>
 7    1  0.2530765E-009  0.9584615E+02  0.7561462E-02  0.1289282E+00
         -1   -1    0    0    0  501 -0.00000000000E+00  0.00000000000E+00  0.46371880653E+02  0.46371880653E+02  0.00000000000E+00 0.  1.
          1   -1    0    0  501    0  0.00000000000E+00 -0.00000000000E+00 -0.33819325967E+03  0.33819325967E+03  0.00000000000E+00 0. -1.
         25    2    1    2    0    0 -0.74553392331E+01 -0.48015056431E+02 -0.10334641242E+03  0.16937966203E+03  0.12509181117E+03 0.  0.
          5    1    3    3  502    0 -0.21146468861E+02  0.18015882500E+02  0.15930728017E+02  0.32295598194E+02  0.41800000000E+01 0. -1.
         -5    1    3    3    0  502  0.13691129628E+02 -0.66030938932E+02 -0.11927714043E+03  0.13708406383E+03  0.41800000000E+01 0. -1.
        -11    1    1    2    0    0  0.19605188991E+02 -0.19371606872E+02 -0.97504706582E+02  0.10132517157E+03  0.00000000000E+00 0. -1.
         11    1    1    2    0    0 -0.12149849758E+02  0.67386663303E+02 -0.90970260022E+02  0.11386030673E+03  0.00000000000E+00 0.  1.
</event>
<event>
 7    1  0.2530765E-009  0.1892262E+03  0.7561462E-02  0.1159161E+00
         -2   -1    0    0    0  501 -0.00000000000E+00  0.00000000000E+00  0.15298227275E+03  0.15298227275E+03  0.00000000000E+00 0.  1.
          2   -1    0    0  501    0  0.00000000000E+00 -0.00000000000E+00 -0.28934963202E+03  0.28934963202E+03  0.00000000000E+00 0. -1.
         25    2    1    2    0    0 -0.46506923606E+02 -0.17216787116E+03 -0.54445488715E+02  0.22453532032E+03  0.12508848479E+03 0.  0.
          5    1    3    3  502    0  0.15514164352E+02  0.12526380171E+00 -0.37247960528E+02  0.40565847089E+02  0.41800000000E+01 0.  1.
         -5    1    3    3    0  502 -0.62021087958E+02 -0.17229313496E+03 -0.17197528188E+02  0.18396947324E+03  0.41800000000E+01 0.  1.
        -11    1    1    2    0    0  0.69228857935E+00  0.26695806851E+02  0.20854809300E+02  0.33883158617E+02  0.00000000000E+00 0.  1.
         11    1    1    2    0    0  0.45814635027E+02  0.14547206431E+03 -0.10277667985E+03  0.18391342582E+03  0.00000000000E+00 0. -1.
</event>
<event>
 7    1  0.2530765E-009  0.1615190E+03  0.7561462E-02  0.1186992E+00
         -1   -1    0    0    0  501 -0.00000000000E+00  0.00000000000E+00  0.49778224042E+03  0.49778224042E+03  0.00000000000E+00 0.  1.
          1   -1    0    0  501    0  0.00000000000E+00 -0.00000000000E+00 -0.58786887459E+02  0.58786887459E+02  0.00000000000E+00 0. -1.
         25    2    1    2    0    0 -0.13911009156E+02  0.13666777175E+03  0.18227238796E+03  0.26027485861E+03  0.12509269603E+03 0.  0.
          5    1    3    3  502    0 -0.59379918160E+02  0.12300412174E+03  0.14884369122E+03  0.20205916328E+03  0.41800000000E+01 0.  1.
         -5    1    3    3    0  502  0.45468909004E+02  0.13663650009E+02  0.33428696737E+02  0.58215695333E+02  0.41800000000E+01 0.  1.
        -11    1    1    2    0    0  0.33918703613E+01 -0.11008882267E+03  0.23764454835E+03  0.26192744228E+03  0.00000000000E+00 0.  1.
         11    1    1    2    0    0  0.10519138794E+02 -0.26578949077E+02  0.19078416650E+02  0.34366826983E+02  0.00000000000E+00 0. -1.
</event>
<event>
 7    1  0.2530765E-009  0.1087015E+03  0.7561462E-02  0.1262993E+00
         -2   -1    0    0    0  501 -0.00000000000E+00  0.00000000000E+00  0.10338103271E+03  0.10338103271E+03  0.00000000000E+00 0.  1.
          2   -1    0    0  501    0  0.00000000000E+00 -0.00000000000E+00 -0.22704828656E+03  0.22704828656E+03  0.00000000000E+00 0. -1.
         25    2    1    2    0    0  0.77011241944E+01  0.71975935686E+02 -0.15265138752E+03  0.21021389097E+03  0.12509033221E+03 0.  0.
          5    1    3    3  502    0  0.25759014402E+02  0.97690459055E+02 -0.14636754611E+03  0.17789852042E+03  0.41800000000E+01 0.  1.
         -5    1    3    3    0  502 -0.18057890207E+02 -0.25714523369E+02 -0.62838414076E+01  0.32315370548E+02  0.41800000000E+01 0.  1.
        -11    1    1    2    0    0  0.18346369057E+02 -0.27908383796E+02  0.53802774869E+02  0.63326185163E+02  0.00000000000E+00 0.  1.
         11    1    1    2    0    0 -0.26047493252E+02 -0.44067551890E+02 -0.24818641204E+02  0.56889243145E+02  0.00000000000E+00 0. -1.
</event>
<event>
 7    1  0.2530765E-009  0.9557835E+02  0.7561462E-02  0.1289879E+00
          1   -1    0    0  501    0  0.00000000000E+00  0.00000000000E+00  0.64046495560E+03  0.64046495560E+03  0.00000000000E+00 0. -1.
         -1   -1    0    0    0  501 -0.00000000000E+00 -0.00000000000E+00 -0.23071962046E+02  0.23071962046E+02  0.00000000000E+00 0.  1.
         25    2    1    2    0    0 -0.39413464384E+02 -0.65887282338E+00  0.45876875762E+03  0.47714816516E+03  0.12509093996E+03 0.  0.
          5    1    3    3  502    0  0.22320039556E+02 -0.19609840304E+02  0.34468956050E+03  0.34599291253E+03  0.41800000000E+01 0.  1.
         -5    1    3    3    0  502 -0.61733503940E+02  0.18950967480E+02  0.11407919712E+03  0.13115525263E+03  0.41800000000E+01 0.  1.
        -11    1    1    2    0    0  0.10852164897E+02  0.43566131784E+02  0.58160046055E+02  0.73473588987E+02  0.00000000000E+00 0.  1.
         11    1    1    2    0    0  0.28561299487E+02 -0.42907258961E+02  0.10046418988E+03  0.11291516350E+03  0.00000000000E+00 0. -1.
</event>
<event>
 7    1  0.2530765E-009  0.2392393E+03  0.7561462E-02  0.1120301E+00
          1   -1    0    0  501    0  0.00000000000E+00  0.00000000000E+00  0.23781111499E+04  0.23781111499E+04  0.00000000000E+00 0. -1.
         -1   -1    0    0    0  501 -0.00000000000E+00 -0.00000000000E+00 -0.26059910003E+02  0.26059910003E+02  0.00000000000E+00 0.  1.
         25    2    1    2    0    0 -0.42662116535E+02 -0.21211422564E+03  0.14557370408E+04  0.14770349504E+04  0.12509760882E+03 0.  0.
          5    1    3    3  502    0  0.43325665493E+02 -0.73593238934E+02  0.43080108282E+03  0.43920396568E+03  0.41800000000E+01 0.  1.
         -5    1    3    3    0  502 -0.85987782028E+02 -0.13852098670E+03  0.10249359580E+04  0.10378309847E+04  0.41800000000E+01 0.  1.
        -11    1    1    2    0    0 -0.13914897163E+02  0.12650632144E+03  0.60601324277E+03  0.61923301280E+03  0.00000000000E+00 0. -1.
         11    1    1    2    0    0  0.56577013698E+02  0.85607904193E+02  0.29030095634E+03  0.30790309676E+03  0.00000000000E+00 0.  1.
</event>
<event>
 7    1  0.2530765E-009  0.9032199E+02  0.7561462E-02  0.1302074E+00
         -3   -1    0    0    0  501 -0.00000000000E+00  0.00000000000E+00  0.10970921908E+03  0.10970921908E+03  0.00000000000E+00 0.  1.
          3   -1    0    0  501    0  0.00000000000E+00 -0.00000000000E+00 -0.11853264140E+03  0.11853264140E+03  0.00000000000E+00 0. -1.
         25    2    1    2    0    0 -0.28027500945E+02  0.21269974677E+02 -0.80051398242E+01  0.13018843784E+03  0.12508794686E+03 0.  0.
          5    1    3    3  502    0  0.83779651453E+01 -0.32011130274E+02  0.38200125213E+02  0.50711189373E+02  0.41800000000E+01 0.  1.
         -5    1    3    3    0  502 -0.36405466091E+02  0.53281104952E+02 -0.46205265037E+02  0.79477248463E+02  0.41800000000E+01 0.  1.
        -11    1    1    2    0    0 -0.50020104605E+01 -0.42869641593E+02 -0.26799465568E+02  0.50803913566E+02  0.00000000000E+00 0. -1.
         11    1    1    2    0    0  0.33029511406E+02  0.21599666916E+02  0.25981183069E+02  0.47249509079E+02  0.00000000000E+00 0.  1.
</event>
<event>
 7    1  0.2530765E-009  0.9298746E+02  0.7561462E-02  0.1295774E+00
         -2   -1    0    0    0  501 -0.00000000000E+00  0.00000000000E+00  0.60939924148E+02  0.60939924148E+02  0.00000000000E+00 0.  1.
          2   -1    0    0  501    0  0.00000000000E+00 -0.00000000000E+00 -0.23517178838E+03  0.23517178838E+03  0.00000000000E+00 0. -1.
         25    2    1    2    0    0 -0.30984985006E+02  0.16003080040E+01 -0.16252675534E+03  0.20742428263E+03  0.12508899449E+03 0.  0.
          5    1    3    3  502    0  0.21775430520E+02  0.34150599187E+02 -0.13211420919E+03  0.13824640852E+03  0.41800000000E+01 0.  1.
         -5    1    3    3    0  502 -0.52760415526E+02 -0.32550291183E+02 -0.30412546147E+02  0.69177874105E+02  0.41800000000E+01 0.  1.
        -11    1    1    2    0    0  0.31952627596E+01  0.36125840841E+02  0.91439071604E+01  0.37401833093E+02  0.00000000000E+00 0.  1.
         11    1    1    2    0    0  0.27789722246E+02 -0.37726148845E+02 -0.20849016050E+02  0.51285596803E+02  0.00000000000E+00 0. -1.
</event>
<event>
 7    1  0.2530765E-009  0.1024717E+03  0.7561462E-02  0.1275183E+00
         -2   -1    0    0    0  501 -0.00000000000E+00  0.00000000000E+00  0.40196908610E+02  0.40196908610E+02  0.00000000000E+00 0. -1.
          2   -1    0    0  501    0  0.00000000000E+00 -0.00000000000E+00 -0.47570586429E+03  0.47570586429E+03  0.00000000000E+00 0.  1.
         25    2    1    2    0    0  0.37009799293E+02 -0.63127110350E+02 -0.31967720026E+03  0.35099397644E+03  0.12509397198E+03 0.  0.
          5    1    3    3  502    0  0.23593014920E+02  0.27006367674E+02 -0.28906684050E+02  0.46249789521E+02  0.41800000000E+01 0.  1.
         -5    1    3    3    0  502  0.13416784372E+02 -0.90133478024E+02 -0.29077051621E+03  0.30474418692E+03  0.41800000000E+01 0.  1.
        -11    1    1    2    0    0 -0.15577470571E+02  0.61580810121E+01  0.13797048827E+02  0.21701108439E+02  0.00000000000E+00 0. -1.
         11    1    1    2    0    0 -0.21432328722E+02  0.56969029338E+02 -0.12962880425E+03  0.14320768802E+03  0.00000000000E+00 0.  1.
</event>
<event>
 7    1  0.2530765E-009  0.1305236E+03  0.7561462E-02  0.1226681E+00
         -1   -1    0    0    0  501 -0.00000000000E+00  0.00000000000E+00  0.18772560350E+03  0.18772560350E+03  0.00000000000E+00 0.  1.
          1   -1    0    0  501    0  0.00000000000E+00 -0.00000000000E+00 -0.14792935773E+03  0.14792935773E+03  0.00000000000E+00 0. -1.
         25    2    1    2    0    0 -0.42357184480E+02  0.83205219262E+02 -0.65335513464E+02  0.16921605644E+03  0.12509238525E+03 0.  0.
          5    1    3    3  502    0 -0.44340553778E+00  0.96340591130E+02 -0.77198911898E+02  0.12352671981E+03  0.41800000000E+01 0.  1.
         -5    1    3    3    0  502 -0.41913778942E+02 -0.13135371868E+02  0.11863398434E+02  0.45689336630E+02  0.41800000000E+01 0.  1.
        -11    1    1    2    0    0 -0.20050064338E+02 -0.39519127865E+02  0.11595174871E+02  0.45806272796E+02  0.00000000000E+00 0.  1.
         11    1    1    2    0    0  0.62407248818E+02 -0.43686091396E+02  0.93536584363E+02  0.12063263199E+03  0.00000000000E+00 0. -1.
</event>
<event>
 7    1  0.2530765E-009  0.7106153E+02  0.7561462E-02  0.1356520E+00
         -1   -1    0    0    0  501 -0.00000000000E+00  0.00000000000E+00  0.61685215908E+02  0.61685215908E+02  0.00000000000E+00 0.  1.
          1   -1    0    0  501    0  0.00000000000E+00 -0.00000000000E+00 -0.23589241983E+03  0.23589241983E+03  0.00000000000E+00 0. -1.
         25    2    1    2    0    0 -0.37698977997E+01  0.51062555763E+02 -0.90343140643E+02  0.16257682477E+03  0.12509094357E+03 0.  0.
          5    1    3    3  502    0  0.27592526907E+02 -0.31881235337E+01 -0.95516687336E+02  0.99561145194E+02  0.41800000000E+01 0. -1.
         -5    1    3    3    0  502 -0.31362424706E+02  0.54250679297E+02  0.51735466933E+01  0.63015679581E+02  0.41800000000E+01 0. -1.
        -11    1    1    2    0    0  0.26442277477E+01 -0.23986412851E+02  0.17672034649E+02  0.29910545807E+02  0.00000000000E+00 0.  1.
         11    1    1    2    0    0  0.11256700520E+01 -0.27076142912E+02 -0.10153609792E+03  0.10509026515E+03  0.00000000000E+00 0. -1.
</event>
<event>
 7    1  0.2530765E-009  0.1204774E+03  0.7561462E-02  0.1242311E+00
          2   -1    0    0  501    0  0.00000000000E+00  0.00000000000E+00  0.31184403961E+03  0.31184403961E+03  0.00000000000E+00 0. -1.
         -2   -1    0    0    0  501 -0.00000000000E+00 -0.00000000000E+00 -0.63070193645E+02  0.63070193645E+02  0.00000000000E+00 0.  1.
         25    2    1    2    0    0  0.60093204637E+01 -0.73428911725E+02  0.68635924106E+02  0.16058713186E+03  0.12509764119E+03 0.  0.
          5    1    3    3  502    0  0.52681209551E+02 -0.57962463532E+02  0.30309590985E+01  0.78495962517E+02  0.41800000000E+01 0.  1.
         -5    1    3    3    0  502 -0.46671889087E+02 -0.15466448193E+02  0.65604965008E+02  0.82091169344E+02  0.41800000000E+01 0.  1.
        -11    1    1    2    0    0  0.15323119202E+02 -0.15455391531E+02  0.18196113330E+02  0.28368391738E+02  0.00000000000E+00 0.  1.
         11    1    1    2    0    0 -0.21332439665E+02  0.88884303256E+02  0.16194180853E+03  0.18595870965E+03  0.00000000000E+00 0. -1.
</event>
<event>
 7    1  0.2530765E-009  0.1202737E+03  0.7561462E-02  0.1242646E+00
          1   -1    0    0  501    0  0.00000000000E+00  0.00000000000E+00  0.37317231672E+02  0.37317231672E+02  0.00000000000E+00 0. -1.
         -1   -1    0    0    0  501 -0.00000000000E+00 -0.00000000000E+00 -0.60155463447E+03  0.60155463447E+03  0.00000000000E+00 0.  1.
         25    2    1    2    0    0  0.90096574863E+02  0.34692470533E+02 -0.38462231717E+03  0.41581523402E+03  0.12508805566E+03 0.  0.
          5    1    3    3  502    0  0.12612568152E+02 -0.11944978857E+02 -0.26596398049E+03  0.26656344595E+03  0.41800000000E+01 0. -1.
         -5    1    3    3    0  502  0.77484006711E+02  0.46637449391E+02 -0.11865833667E+03  0.14925178808E+03  0.41800000000E+01 0. -1.
        -11    1    1    2    0    0 -0.13107297074E+02  0.29259306732E+02 -0.47610130479E+02  0.57398891899E+02  0.00000000000E+00 0.  1.
         11    1    1    2    0    0 -0.76989277789E+02 -0.63951777265E+02 -0.13200495515E+03  0.16565774022E+03  0.00000000000E+00 0. -1.
</event>
<event>
 7    1  0.2530765E-009  0.1277297E+03  0.7561462E-02  0.1230864E+00
         -1   -1    0    0    0  501 -0.00000000000E+00  0.00000000000E+00  0.96231752092E+02  0.96231752092E+02  0.00000000000E+00 0.  1.
          1   -1    0    0  501    0  0.00000000000E+00 -0.00000000000E+00 -0.21791553003E+03  0.21791553003E+03  0.00000000000E+00 0. -1.
         25    2    1    2    0    0  0.45768463985E+02 -0.59823860860E+02 -0.26822831527E+01  0.14604944144E+03  0.12509835362E+03 0.  0.
          5    1    3    3  502    0  0.74467741753E+02  0.41505593584E+01  0.74917213563E+01  0.75075095695E+02  0.41800000000E+01 0. -1.
         -5    1    3    3    0  502 -0.28699277768E+02 -0.63974420219E+02 -0.10174004509E+02  0.70974345749E+02  0.41800000000E+01 0. -1.
        -11    1    1    2    0    0  0.22963215960E+02  0.23177730437E+02 -0.99970599278E+01  0.34124151017E+02  0.00000000000E+00 0.  1.
         11    1    1    2    0    0 -0.68731679945E+02  0.36646130423E+02 -0.10900443486E+03  0.13397368967E+03  0.00000000000E+00 0. -1.
</event>
<event>
 7    1  0.2530765E-009  0.1008654E+03  0.7561462E-02  0.1278487E+00
         -2   -1    0    0    0  501 -0.00000000000E+00  0.00000000000E+00  0.23617389181E+02  0.23617389181E+02  0.00000000000E+00 0. -1.
          2   -1    0    0  501    0  0.00000000000E+00 -0.00000000000E+00 -0.52944190608E+03  0.52944190608E+03  0.00000000000E+00 0.  1.
         25    2    1    2    0    0  0.20465992305E+01 -0.15960056336E+02 -0.26037145499E+03  0.28930827870E+03  0.12508826317E+03 0.  0.
          5    1    3    3  502    0  0.47916397702E+02 -0.30506414935E+02 -0.21713711473E+03  0.22448300941E+03  0.41800000000E+01 0. -1.
         -5    1    3    3    0  502 -0.45869798472E+02  0.14546358599E+02 -0.43234340265E+02  0.64825269290E+02  0.41800000000E+01 0. -1.
        -11    1    1    2    0    0 -0.28134706514E+02 -0.31548502404E+02 -0.11199167206E+03  0.11970381917E+03  0.00000000000E+00 0. -1.
         11    1    1    2    0    0  0.26088107284E+02  0.47508558740E+02 -0.13346138985E+03  0.14404719739E+03  0.00000000000E+00 0.  1.
</event>
<event>
 7    1  0.2530765E-009  0.1110644E+03  0.7561462E-02  0.1258611E+00
         -3   -1    0    0    0  501 -0.00000000000E+00  0.00000000000E+00  0.10014732161E+03  0.10014732161E+03  0.00000000000E+00 0.  1.
          3   -1    0    0  501    0  0.00000000000E+00 -0.00000000000E+00 -0.22810280562E+03  0.22810280562E+03  0.00000000000E+00 0. -1.
         25    2    1    2    0    0  0.70847708418E+02 -0.44893967178E+01  0.13867415484E+02  0.14448873103E+03  0.12508051691E+03 0.  0.
          5    1    3    3  502    0 -0.24175573008E+01 -0.52861820525E+02  0.19166590557E+02  0.56436222819E+02  0.41800000000E+01 0. -1.
         -5    1    3    3    0  502  0.73265265719E+02  0.48372423807E+02 -0.52991750734E+01  0.88052508211E+02  0.41800000000E+01 0. -1.
        -11    1    1    2    0    0 -0.11588491049E+02  0.17013984439E+02  0.80567565136E+01  0.22106110396E+02  0.00000000000E+00 0.  1.
         11    1    1    2    0    0 -0.59259217369E+02 -0.12524587722E+02 -0.14987965601E+03  0.16165528580E+03  0.00000000000E+00 0. -1.
</event>
<event>
 7    1  0.2530765E-009  0.1237015E+03  0.7561462E-02  0.1237113E+00
         -2   -1    0    0    0  501 -0.00000000000E+00  0.00000000000E+00  0.37472399614E+03  0.37472399614E+03  0.00000000000E+00 0.  1.
          2   -1    0    0  501    0  0.00000000000E+00 -0.00000000000E+00 -0.51993106348E+02  0.51993106348E+02  0.00000000000E+00 0. -1.
         25    2    1    2    0    0  0.10789744632E+02  0.65581415017E+02  0.91972791034E+02  0.16889017548E+03  0.12509019345E+03 0.  0.
          5    1    3    3  502    0 -0.42571816519E+02 -0.13019363874E+02  0.42529334661E+02  0.61709643526E+02  0.41800000000E+01 0.  1.
         -5    1    3    3    0  502  0.53361561151E+02  0.78600778892E+02  0.49443456374E+02  0.10718053195E+03  0.41800000000E+01 0.  1.
        -11    1    1    2    0    0  0.18215557082E+02 -0.74935780902E+02  0.20076620586E+03  0.21506800598E+03  0.00000000000E+00 0.  1.
         11    1    1    2    0    0 -0.29005301714E+02  0.93543658851E+01  0.29991892897E+02  0.42758921036E+02  0.00000000000E+00 0. -1.
</event>
<event>
 7    1  0.2530765E-009  0.1422275E+03  0.7561462E-02  0.1210363E+00
         -1   -1    0    0    0  501 -0.00000000000E+00  0.00000000000E+00  0.33004335764E+02  0.33004335764E+02  0.00000000000E+00 0.  1.
          1   -1    0    0  501    0  0.00000000000E+00 -0.00000000000E+00 -0.63818768161E+03  0.63818768161E+03  0.00000000000E+00 0. -1.
         25    2    1    2    0    0  0.25251488597E+02  0.92948871325E+02 -0.34457177399E+03  0.37901742562E+03  0.12508945252E+03 0.  0.
          5    1    3    3  502    0  0.43589293213E+02  0.11795764519E+03 -0.26007762023E+03  0.28891499352E+03  0.41800000000E+01 0. -1.
         -5    1    3    3    0  502 -0.18337804616E+02 -0.25008773862E+02 -0.84494153768E+02  0.90102432094E+02  0.41800000000E+01 0. -1.
        -11    1    1    2    0    0  0.27112453357E+02 -0.59006712769E+02 -0.93901775910E+02  0.11416838791E+03  0.00000000000E+00 0.  1.
         11    1    1    2    0    0 -0.52363941954E+02 -0.33942158556E+02 -0.16670979595E+03  0.17800620385E+03  0.00000000000E+00 0. -1.
</event>
<event>
 7    1  0.2530765E-009  0.1212926E+03  0.7561462E-02  0.1240980E+00
          1   -1    0    0  501    0  0.00000000000E+00  0.00000000000E+00  0.90198062078E+02  0.90198062078E+02  0.00000000000E+00 0. -1.
         -1   -1    0    0    0  501 -0.00000000000E+00 -0.00000000000E+00 -0.23683080470E+03  0.23683080470E+03  0.00000000000E+00 0.  1.
         25    2    1    2    0    0  0.46334412788E+02  0.90333523658E+02 -0.12481332747E+03  0.20379612751E+03  0.12508985398E+03 0.  0.
          5    1    3    3  502    0  0.73477967459E+02  0.44577870725E+02 -0.23352816245E+02  0.89157303049E+02  0.41800000000E+01 0.  1.
         -5    1    3    3    0  502 -0.27143554671E+02  0.45755652932E+02 -0.10146051123E+03  0.11463882446E+03  0.41800000000E+01 0.  1.
        -11    1    1    2    0    0 -0.92559945543E+01 -0.37527828767E+02 -0.40575067725E+02  0.56038803414E+02  0.00000000000E+00 0.  1.
         11    1    1    2    0    0 -0.37078418234E+02 -0.52805694891E+02  0.18755652578E+02  0.67193935852E+02  0.00000000000E+00 0. -1.
</event>
<event>
 7    1  0.2614388E-009  0.2064249E+03  0.7561462E-02  0.1144429E+00
         -1   -1    0    0    0  501 -0.00000000000E+00  0.00000000000E+00  0.18348022142E+03  0.18348022142E+03  0.00000000000E+00 0.  1.
          1   -1    0    0  501    0  0.00000000000E+00 -0.00000000000E+00 -0.38628484860E+03  0.38628484860E+03  0.00000000000E+00 0. -1.
         25    2    1    2    0    0 -0.18497006296E+03 -0.55811445176E+02  0.53183598041E+02  0.23623030174E+03  0.12508964288E+03 0.  0.
          5    1    3    3  502    0 -0.18873292918E+03 -0.58493838601E+02  0.15726575421E+02  0.19825853143E+03  0.41800000000E+01 0.  1.
         -5    1    3    3    0  502  0.37628662243E+01  0.26823934254E+01  0.37457022620E+02  0.37971770307E+02  0.41800000000E+01 0.  1.
        -11    1    1    2    0    0  0.47058638368E+02  0.53230519428E+02 -0.12232481577E+03  0.14146152903E+03  0.00000000000E+00 0. -1.
         11    1    1    2    0    0  0.13791142459E+03  0.25809257480E+01 -0.13366340945E+03  0.19207323925E+03  0.00000000000E+00 0.  1.
</event>
<event>
 7    1  0.2530765E-009  0.8253793E+02  0.7561462E-02  0.1322000E+00
         -1   -1    0    0    0  501 -0.00000000000E+00  0.00000000000E+00  0.83855549570E+02  0.83855549570E+02  0.00000000000E+00 0.  1.
          1   -1    0    0  501    0  0.00000000000E+00 -0.00000000000E+00 -0.22314657379E+03  0.22314657379E+03  0.00000000000E+00 0. -1.
         25    2    1    2    0    0  0.76588226716E+02  0.18357044566E+02 -0.10637467892E+03  0.18211404474E+03  0.12508883011E+03 0.  0.
          5    1    3    3  502    0  0.94309437951E+01  0.15864629824E+02 -0.11289101285E+03  0.11446607516E+03  0.41800000000E+01 0. -1.
         -5    1    3    3    0  502  0.67157282921E+02  0.24924147421E+01  0.65163339270E+01  0.67647969581E+02  0.41800000000E+01 0. -1.
        -11    1    1    2    0    0 -0.60137051083E+02 -0.15719747479E+02 -0.64252603377E+02  0.89397832270E+02  0.00000000000E+00 0. -1.
         11    1    1    2    0    0 -0.16451175633E+02 -0.26372970869E+01  0.31336258079E+02  0.35490246350E+02  0.00000000000E+00 0.  1.
</event>
<event>
 7    1  0.2530765E-009  0.1475863E+03  0.7561462E-02  0.1203471E+00
          1   -1    0    0  501    0  0.00000000000E+00  0.00000000000E+00  0.24996961576E+02  0.24996961576E+02  0.00000000000E+00 0. -1.
         -1   -1    0    0    0  501 -0.00000000000E+00 -0.00000000000E+00 -0.98543015303E+03  0.98543015303E+03  0.00000000000E+00 0.  1.
         25    2    1    2    0    0 -0.25149628125E+02 -0.11006914569E+03 -0.50922612421E+03  0.53638361048E+03  0.12509361049E+03 0.  0.
          5    1    3    3  502    0  0.42400148305E+02 -0.82849042208E+02 -0.23993067294E+03  0.25738285994E+03  0.41800000000E+01 0.  1.
         -5    1    3    3    0  502 -0.67549776430E+02 -0.27220103480E+02 -0.26929545127E+03  0.27900075054E+03  0.41800000000E+01 0.  1.
        -11    1    1    2    0    0 -0.19900763951E+02  0.51213564961E+02 -0.30727430443E+03  0.31214799023E+03  0.00000000000E+00 0.  1.
         11    1    1    2    0    0  0.45050392076E+02  0.58855580727E+02 -0.14393276282E+03  0.16189551390E+03  0.00000000000E+00 0. -1.
</event>
<event>
 7    1  0.2530765E-009  0.1088372E+03  0.7561462E-02  0.1262738E+00
         -2   -1    0    0    0  501 -0.00000000000E+00  0.00000000000E+00  0.46598326071E+02  0.46598326071E+02  0.00000000000E+00 0. -1.
          2   -1    0    0  501    0  0.00000000000E+00 -0.00000000000E+00 -0.29565510721E+03  0.29565510721E+03  0.00000000000E+00 0.  1.
         25    2    1    2    0    0 -0.45682665649E+02  0.19233678942E+01 -0.13590725321E+03  0.19029044600E+03  0.12509623127E+03 0.  0.
          5    1    3    3  502    0  0.40469176098E+02  0.18589813564E+02 -0.54670915516E+02  0.70637927388E+02  0.41800000000E+01 0. -1.
         -5    1    3    3    0  502 -0.86151841747E+02 -0.16666445670E+02 -0.81236337694E+02  0.11965251861E+03  0.41800000000E+01 0. -1.
        -11    1    1    2    0    0  0.51199311051E+02  0.25447109108E+02 -0.10986223086E+03  0.12384924136E+03  0.00000000000E+00 0.  1.
         11    1    1    2    0    0 -0.55166454026E+01 -0.27370477002E+02 -0.32872970618E+01  0.28113745923E+02  0.00000000000E+00 0. -1.
</event>
<event>
 7    1  0.2530765E-009  0.1410323E+03  0.7561462E-02  0.1211947E+00
         -2   -1    0    0    0  501 -0.00000000000E+00  0.00000000000E+00  0.26991347810E+02  0.26991347810E+02  0.00000000000E+00 0.  1.
          2   -1    0    0  501    0  0.00000000000E+00 -0.00000000000E+00 -0.85403656386E+03  0.85403656386E+03  0.00000000000E+00 0. -1.
         25    2    1    2    0    0 -0.77260440052E+02  0.72479949371E+02 -0.40743885183E+03  0.43917745981E+03  0.12509158473E+03 0.  0.
          5    1    3    3  502    0 -0.46702999285E+01  0.70761239628E+02 -0.96392997323E+02  0.11974158454E+03  0.41800000000E+01 0. -1.
         -5    1    3    3    0  502 -0.72590140124E+02  0.17187097430E+01 -0.31104585451E+03  0.31943587528E+03  0.41800000000E+01 0. -1.
        -11    1    1    2    0    0  0.21007307692E+02 -0.78926404266E+02 -0.23823389989E+03  0.25184534009E+03  0.00000000000E+00 0.  1.
         11    1    1    2    0    0  0.56253132361E+02  0.64464548949E+01 -0.18137246433E+03  0.19000511177E+03  0.00000000000E+00 0. -1.
</event>
<event>
 7    1  0.2530765E-009  0.2559042E+03  0.7561462E-02  0.1109629E+00
          2   -1    0    0  501    0  0.00000000000E+00  0.00000000000E+00  0.75621816993E+03  0.75621816993E+03  0.00000000000E+00 0. -1.
         -2   -1    0    0    0  501 -0.00000000000E+00 -0.00000000000E+00 -0.92697758605E+02  0.92697758605E+02  0.00000000000E+00 0.  1.
         25    2    1    2    0    0  0.23328307095E+03 -0.44852705933E+02  0.41070499719E+03  0.49067293046E+03  0.12509425866E+03 0.  0.
          5    1    3    3  502    0  0.23827570825E+03 -0.25789329866E+02  0.33237410202E+03  0.40979314144E+03  0.41800000000E+01 0.  1.
         -5    1    3    3    0  502 -0.49926372981E+01 -0.19063376067E+02  0.78330895172E+02  0.80879789025E+02  0.41800000000E+01 0.  1.
        -11    1    1    2    0    0 -0.78082245088E+02 -0.24687258249E+02  0.10308873149E+03  0.13165707075E+03  0.00000000000E+00 0.  1.
         11    1    1    2    0    0 -0.15520082586E+03  0.69539964183E+02  0.14972668265E+03  0.22658592733E+03  0.00000000000E+00 0. -1.
</event>
<event>
 7    1  0.2660504E-009  0.1334937E+03  0.7561462E-02  0.1222362E+00
          1   -1    0    0  501    0  0.00000000000E+00  0.00000000000E+00  0.10879917708E+04  0.10879917708E+04  0.00000000000E+00 0. -1.
         -1   -1    0    0    0  501 -0.00000000000E+00 -0.00000000000E+00 -0.19311692049E+02  0.19311692049E+02  0.00000000000E+00 0.  1.
         25    2    1    2    0    0  0.44006708515E+02 -0.84411060923E+02  0.61919665170E+03  0.63883765618E+03  0.12508892785E+03 0.  0.
          5    1    3    3  502    0 -0.36522917278E+02 -0.58079850514E+02  0.34649505206E+03  0.35324706089E+03  0.41800000000E+01 0. -1.
         -5    1    3    3    0  502  0.80529625793E+02 -0.26331210409E+02  0.27270159964E+03  0.28559059529E+03  0.41800000000E+01 0. -1.
        -11    1    1    2    0    0 -0.10422465093E+02 -0.92422127127E+01  0.83266021395E+01  0.16228942591E+02  0.00000000000E+00 0.  1.
         11    1    1    2    0    0 -0.33584243423E+02  0.93653273636E+02  0.44115682490E+03  0.45223686407E+03  0.00000000000E+00 0. -1.
</event>
<event>
 7    1  0.2530765E-009  0.6801590E+02  0.7561462E-02  0.1366973E+00
          1   -1    0    0  501    0  0.00000000000E+00  0.00000000000E+00  0.93353651244E+02  0.93353651244E+02  0.00000000000E+00 0. -1.
         -1   -1    0    0    0  501 -0.00000000000E+00 -0.00000000000E+00 -0.12069865336E+03  0.12069865336E+03  0.00000000000E+00 0.  1.
         25    2    1    2    0    0  0.59328381441E+01 -0.98297295977E+01 -0.12210665959E+02  0.12620296526E+03  0.12508503478E+03 0.  0.
          5    1    3    3  502    0  0.25081664417E+02  0.14959228896E+02  0.49069062692E+02  0.57254814056E+02  0.41800000000E+01 0. -1.
         -5    1    3    3    0  502 -0.19148826273E+02 -0.24788958493E+02 -0.61279728652E+02  0.68948151204E+02  0.41800000000E+01 0. -1.
        -11    1    1    2    0    0  0.33957398823E+02  0.85544648904E+01  0.14742152934E+02  0.37994932261E+02  0.00000000000E+00 0. -1.
         11    1    1    2    0    0 -0.39890236967E+02  0.12752647072E+01 -0.29876489094E+02  0.49854407087E+02  0.00000000000E+00 0.  1.
</event>
<event>
 7    1  0.2530765E-009  0.1136582E+03  0.7561462E-02  0.1253942E+00
          1   -1    0    0  501    0  0.00000000000E+00  0.00000000000E+00  0.56126609454E+03  0.56126609454E+03  0.00000000000E+00 0. -1.
         -1   -1    0    0    0  501 -0.00000000000E+00 -0.00000000000E+00 -0.39374530962E+02  0.39374530962E+02  0.00000000000E+00 0.  1.
         25    2    1    2    0    0 -0.74998602155E+02 -0.64952931843E+02  0.33236743016E+03  0.36872935012E+03  0.12509816678E+03 0.  0.
          5    1    3    3  502    0 -0.63148089086E+02 -0.70098732426E+02  0.10605266072E+03  0.14200757969E+03  0.41800000000E+01 0.  1.
         -5    1    3    3    0  502 -0.11850513069E+02  0.51458005830E+01  0.22631476944E+03  0.22672177043E+03  0.41800000000E+01 0.  1.
        -11    1    1    2    0    0  0.21632295346E+02  0.62206209004E+02  0.50567521131E+02  0.83033986018E+02  0.00000000000E+00 0. -1.
         11    1    1    2    0    0  0.53366306809E+02  0.27467228384E+01  0.13895661229E+03  0.14887728936E+03  0.00000000000E+00 0.  1.
</event>
<event>
 7    1  0.2530765E-009  0.1093688E+03  0.7561462E-02  0.1261743E+00
         -4   -1    0    0    0  501 -0.00000000000E+00  0.00000000000E+00  0.90968404114E+03  0.90968404114E+03  0.00000000000E+00 0.  1.
          4   -1    0    0  501    0  0.00000000000E+00 -0.00000000000E+00 -0.13619330933E+03  0.13619330933E+03  0.00000000000E+00 0. -1.
         25    2    1    2    0    0  0.15124458904E+02 -0.20963356166E+02  0.88818315260E+03  0.89732041504E+03  0.12508558323E+03 0.  0.
          5    1    3    3  502    0  0.81025383319E+01 -0.72834575001E+02  0.59004316112E+03  0.59459139821E+03  0.41800000000E+01 0. -1.
         -5    1    3    3    0  502  0.70219205724E+01  0.51871218835E+02  0.29813999148E+03  0.30272901683E+03  0.41800000000E+01 0. -1.
        -11    1    1    2    0    0  0.16035095713E+02 -0.29464709677E+02 -0.28901736315E+02  0.44278705637E+02  0.00000000000E+00 0. -1.
         11    1    1    2    0    0 -0.31159554617E+02  0.50428065843E+02 -0.85790684468E+02  0.10427822980E+03  0.00000000000E+00 0.  1.
</event>
<event>
 7    1  0.2530765E-009  0.1522544E+03  0.7561462E-02  0.1197730E+00
         -2   -1    0    0    0  501 -0.00000000000E+00  0.00000000000E+00  0.77698678366E+02  0.77698678366E+02  0.00000000000E+00 0. -1.
          2   -1    0    0  501    0  0.00000000000E+00 -0.00000000000E+00 -0.32457203185E+03  0.32457203185E+03  0.00000000000E+00 0.  1.
         25    2    1    2    0    0  0.54374649078E+02  0.10376262316E+03 -0.10792823230E+03  0.20253239537E+03  0.12509030106E+03 0.  0.
          5    1    3    3  502    0  0.39199153505E+02  0.12723628998E+03 -0.11193110793E+03  0.17398762153E+03  0.41800000000E+01 0. -1.
         -5    1    3    3    0  502  0.15175495574E+02 -0.23473666822E+02  0.40028756309E+01  0.28544773835E+02  0.41800000000E+01 0. -1.
        -11    1    1    2    0    0  0.17500894476E+02 -0.85795058030E+00 -0.22540598749E+02  0.28549885789E+02  0.00000000000E+00 0. -1.
         11    1    1    2    0    0 -0.71875543554E+02 -0.10290467258E+03 -0.11640452244E+03  0.17118842906E+03  0.00000000000E+00 0.  1.
</event>
<event>
 7    1  0.2530765E-009  0.8757153E+02  0.7561462E-02  0.1308841E+00
         -1   -1    0    0    0  501 -0.00000000000E+00  0.00000000000E+00  0.38700099911E+02  0.38700099911E+02  0.00000000000E+00 0.  1.
          1   -1    0    0  501    0  0.00000000000E+00 -0.00000000000E+00 -0.35438321939E+03  0.35438321939E+03  0.00000000000E+00 0. -1.
         25    2    1    2    0    0  0.26659079286E+02 -0.30219699027E+02 -0.19227613314E+03  0.23289809491E+03  0.12508986579E+03 0.  0.
          5    1    3    3  502    0 -0.12487448000E+02 -0.62659413651E+02 -0.48449903310E+02  0.80293237619E+02  0.41800000000E+01 0.  1.
         -5    1    3    3    0  502  0.39146527286E+02  0.32439714624E+02 -0.14382622982E+03  0.15260485729E+03  0.41800000000E+01 0.  1.
        -11    1    1    2    0    0 -0.23459686786E+02 -0.56174343743E+01  0.68288345838E+01  0.25070808818E+02  0.00000000000E+00 0.  1.
         11    1    1    2    0    0 -0.31993925001E+01  0.35837133401E+02 -0.13023582093E+03  0.13511441557E+03  0.00000000000E+00 0. -1.
</event>
<event>
 7    1  0.2530765E-009  0.2844913E+03  0.7561462E-02  0.1093261E+00
         -2   -1    0    0    0  501 -0.00000000000E+00  0.00000000000E+00  0.18290376744E+03  0.18290376744E+03  0.00000000000E+00 0.  1.
          2   -1    0    0  501    0  0.00000000000E+00 -0.00000000000E+00 -0.44395418355E+03  0.44395418355E+03  0.00000000000E+00 0. -1.
         25    2    1    2    0    0 -0.25549593800E+03 -0.61662297143E+02 -0.12278769120E+03  0.31591891986E+03  0.12509010190E+03 0.  0.
          5    1    3    3  502    0 -0.26087661033E+03 -0.78378925387E+02 -0.11986395446E+03  0.29763182246E+03  0.41800000000E+01 0. -1.
         -5    1    3    3    0  502  0.53806723361E+01  0.16716628244E+02 -0.29237367374E+01  0.18287097395E+02  0.41800000000E+01 0. -1.
        -11    1    1    2    0    0  0.22866339893E+03  0.20786613430E+02 -0.11472979912E+03  0.25667481394E+03  0.00000000000E+00 0. -1.
         11    1    1    2    0    0  0.26832539068E+02  0.40875683713E+02 -0.23532925790E+02  0.54264217197E+02  0.00000000000E+00 0.  1.
</event>
<event>
 7    1  0.2530765E-009  0.2228288E+03  0.7561462E-02  0.1131791E+00
          1   -1    0    0  501    0  0.00000000000E+00  0.00000000000E+00  0.12536948153E+04  0.12536948153E+04  0.00000000000E+00 0. -1.
         -1   -1    0    0    0  501 -0.00000000000E+00 -0.00000000000E+00 -0.45559839014E+02  0.45559839014E+02  0.00000000000E+00 0.  1.
         25    2    1    2    0    0  0.18586925421E+03 -0.10368824162E+03  0.62151553411E+03  0.66874727101E+03  0.12507086888E+03 0.  0.
          5    1    3    3  502    0 -0.20945955318E+01  0.10775531780E+02  0.28436423018E+01  0.12085450638E+02  0.41800000000E+01 0. -1.
         -5    1    3    3    0  502  0.18796384974E+03 -0.11446377340E+03  0.61867189180E+03  0.65666182038E+03  0.41800000000E+01 0. -1.
        -11    1    1    2    0    0 -0.62395599067E+02  0.45964264828E+02  0.10846904531E+03  0.13330963286E+03  0.00000000000E+00 0.  1.
         11    1    1    2    0    0 -0.12347365514E+03  0.57723976788E+02  0.47815039685E+03  0.49719775042E+03  0.00000000000E+00 0. -1.
</event>
<event>
 7    1  0.2530765E-009  0.2219023E+03  0.7561462E-02  0.1132473E+00
         -1   -1    0    0    0  501 -0.00000000000E+00  0.00000000000E+00  0.13558045792E+03  0.13558045792E+03  0.00000000000E+00 0. -1.
          1   -1    0    0  501    0  0.00000000000E+00 -0.00000000000E+00 -0.43246008797E+03  0.43246008797E+03  0.00000000000E+00 0.  1.
         25    2    1    2    0    0 -0.20954399814E+03 -0.22076735756E+01 -0.21516319416E+03  0.32535582844E+03  0.12509058319E+03 0.  0.
          5    1    3    3  502    0 -0.15170939493E+03  0.26750389541E+02 -0.20980455048E+03  0.26032046722E+03  0.41800000000E+01 0. -1.
         -5    1    3    3    0  502 -0.57834603208E+02 -0.28958063117E+02 -0.53586436837E+01  0.65035361227E+02  0.41800000000E+01 0. -1.
        -11    1    1    2    0    0  0.15235239889E+03  0.38509474221E+02 -0.36766517917E+02  0.16138776252E+03  0.00000000000E+00 0. -1.
         11    1    1    2    0    0  0.57191599245E+02 -0.36301800645E+02 -0.44949917971E+02  0.81296954924E+02  0.00000000000E+00 0.  1.
</event>
<event>
 7    1  0.2530765E-009  0.1582758E+03  0.7561462E-02  0.1190657E+00
          2   -1    0    0  501    0  0.00000000000E+00  0.00000000000E+00  0.69216576737E+03  0.69216576737E+03  0.00000000000E+00 0. -1.
         -2   -1    0    0    0  501 -0.00000000000E+00 -0.00000000000E+00 -0.39273531761E+02  0.39273531761E+02  0.00000000000E+00 0.  1.
         25    2    1    2    0    0  0.12288370892E+03 -0.80214104680E+01  0.35541151794E+03  0.39639574540E+03  0.12508993142E+03 0.  0.
          5    1    3    3  502    0  0.28625011100E+02 -0.51090813164E+02  0.20817831850E+03  0.21629920745E+03  0.41800000000E+01 0.  1.
         -5    1    3    3    0  502  0.94258697823E+02  0.43069402696E+02  0.14723319944E+03  0.18009653795E+03  0.41800000000E+01 0.  1.
        -11    1    1    2    0    0 -0.13042242616E+03  0.27452522491E+02  0.25898920653E+03  0.29127145301E+03  0.00000000000E+00 0.  1.
         11    1    1    2    0    0  0.75387172381E+01 -0.19431112023E+02  0.38491511143E+02  0.43772100728E+02  0.00000000000E+00 0. -1.
</event>
<event>
 7    1  0.2530765E-009  0.1550635E+03  0.7561462E-02  0.1194386E+00
         -2   -1    0    0    0  501 -0.00000000000E+00  0.00000000000E+00  0.35120271243E+02  0.35120271243E+02  0.00000000000E+00 0.  1.
          2   -1    0    0  501    0  0.00000000000E+00 -0.00000000000E+00 -0.85323002823E+03  0.85323002823E+03  0.00000000000E+00 0. -1.
         25    2    1    2    0    0 -0.11879121651E+03  0.47586556411E+02 -0.53881465056E+03  0.56775374793E+03  0.12508899696E+03 0.  0.
          5    1    3    3  502    0 -0.92755835940E+02  0.78082398602E+02 -0.48818729039E+03  0.50303559414E+03  0.41800000000E+01 0. -1.
         -5    1    3    3    0  502 -0.26035380565E+02 -0.30495842192E+02 -0.50627360167E+02  0.64718153787E+02  0.41800000000E+01 0. -1.
        -11    1    1    2    0    0  0.53363248556E+00 -0.28739120763E+02 -0.10686131464E+03  0.11065966922E+03  0.00000000000E+00 0.  1.
         11    1    1    2    0    0  0.11825758402E+03 -0.18847435648E+02 -0.17243379179E+03  0.20993688232E+03  0.00000000000E+00 0. -1.
</event>
<event>
 7    1  0.2530765E-009  0.1508428E+03  0.7561462E-02  0.1199441E+00
         -1   -1    0    0    0  501 -0.00000000000E+00  0.00000000000E+00  0.60463754550E+02  0.60463754550E+02  0.00000000000E+00 0.  1.
          1   -1    0    0  501    0  0.00000000000E+00 -0.00000000000E+00 -0.59237254031E+03  0.59237254031E+03  0.00000000000E+00 0. -1.
         25    2    1    2    0    0  0.12167690943E+03  0.29653466145E+02 -0.43221873186E+03  0.46706020053E+03  0.12509036897E+03 0.  0.
          5    1    3    3  502    0  0.52110387256E+02  0.64333038310E+02 -0.31946905460E+03  0.33004875629E+03  0.41800000000E+01 0. -1.
         -5    1    3    3    0  502  0.69566522176E+02 -0.34679572165E+02 -0.11274967725E+03  0.13701144424E+03  0.41800000000E+01 0. -1.
        -11    1    1    2    0    0 -0.25914060138E+01  0.13904868537E+02  0.10636105155E+02  0.17697103917E+02  0.00000000000E+00 0.  1.
         11    1    1    2    0    0 -0.11908550342E+03 -0.43558334682E+02 -0.11032615906E+03  0.16807899041E+03  0.00000000000E+00 0. -1.
</event>
<event>
 7    1  0.2530765E-009  0.9914015E+02  0.7561462E-02  0.1282115E+00
         -1   -1    0    0    0  501 -0.00000000000E+00  0.00000000000E+00  0.10531192943E+03  0.10531192943E+03  0.00000000000E+00 0.  1.
          1   -1    0    0  501    0  0.00000000000E+00 -0.00000000000E+00 -0.18736547334E+03  0.18736547334E+03  0.00000000000E+00 0. -1.
         25    2    1    2    0    0 -0.21784245069E+02 -0.40750938921E+02 -0.12616433846E+03  0.18357847209E+03  0.12509365595E+03 0.  0.
          5    1    3    3  502    0 -0.10059458278E+02  0.39127134563E+02 -0.96175552113E+01  0.41738413101E+02  0.41800000000E+01 0.  1.
         -5    1    3    3    0  502 -0.11724786790E+02 -0.79878073484E+02 -0.11654678325E+03  0.14184005899E+03  0.41800000000E+01 0.  1.
        -11    1    1    2    0    0 -0.19275463240E+02  0.27685279893E+02  0.55122304278E+02  0.64625742818E+02  0.00000000000E+00 0.  1.
         11    1    1    2    0    0  0.41059708308E+02  0.13065659028E+02 -0.11011509729E+02  0.44473187863E+02  0.00000000000E+00 0. -1.
</event>
<event>
 7    1  0.2530765E-009  0.1150842E+03  0.7561462E-02  0.1251434E+00
          1   -1    0    0  501    0  0.00000000000E+00  0.00000000000E+00  0.71483221660E+02  0.71483221660E+02  0.00000000000E+00 0. -1.
         -1   -1    0    0    0  501 -0.00000000000E+00 -0.00000000000E+00 -0.27551200999E+03  0.27551200999E+03  0.00000000000E+00 0.  1.
         25    2    1    2    0    0  0.76784040844E+02 -0.80500422234E+01 -0.16470926400E+03  0.22076478679E+03  0.12508939736E+03 0.  0.
          5    1    3    3  502    0  0.99170614639E+02  0.25767351216E+02 -0.93837338191E+02  0.13900246629E+03  0.41800000000E+01 0.  1.
         -5    1    3    3    0  502 -0.22386573795E+02 -0.33817393440E+02 -0.70871925808E+02  0.81762320497E+02  0.41800000000E+01 0.  1.
        -11    1    1    2    0    0 -0.73189985390E+01 -0.12432774493E+02 -0.50885133149E+02  0.52890815807E+02  0.00000000000E+00 0.  1.
         11    1    1    2    0    0 -0.69465042305E+02  0.20482816716E+02  0.11565608812E+02  0.73339629058E+02  0.00000000000E+00 0. -1.
</event>
<event>
 7    1  0.2530765E-009  0.1126075E+03  0.7561462E-02  0.1255816E+00
         -2   -1    0    0    0  501 -0.00000000000E+00  0.00000000000E+00  0.23389638588E+02  0.23389638588E+02  0.00000000000E+00 0.  1.
          2   -1    0    0  501    0  0.00000000000E+00 -0.00000000000E+00 -0.87366002705E+03  0.87366002705E+03  0.00000000000E+00 0. -1.
         25    2    1    2    0    0 -0.29850548262E+02 -0.33197456566E+02 -0.72833087291E+03  0.74034108259E+03  0.12508369905E+03 0.  0.
          5    1    3    3  502    0  0.38345374682E+02 -0.49300967992E+02 -0.33711845524E+03  0.34288085171E+03  0.41800000000E+01 0.  1.
         -5    1    3    3    0  502 -0.68195922944E+02  0.16103511426E+02 -0.39121241767E+03  0.39746023087E+03  0.41800000000E+01 0.  1.
        -11    1    1    2    0    0 -0.25840509485E+02 -0.29795783631E+01 -0.12893251878E+02  0.29031806035E+02  0.00000000000E+00 0. -1.
         11    1    1    2    0    0  0.55691057747E+02  0.36177034929E+02 -0.10904626367E+03  0.12767677702E+03  0.00000000000E+00 0.  1.
</event>
<event>
 7    1  0.2530765E-009  0.1626697E+03  0.7561462E-02  0.1185715E+00
         -2   -1    0    0    0  501 -0.00000000000E+00  0.00000000000E+00  0.93774599550E+02  0.93774599550E+02  0.00000000000E+00 0. -1.
          2   -1    0    0  501    0  0.00000000000E+00 -0.00000000000E+00 -0.30622637813E+03  0.30622637813E+03  0.00000000000E+00 0.  1.
         25    2    1    2    0    0 -0.95323847564E+02  0.87358829155E+02 -0.10812121014E+03  0.20989528163E+03  0.12509049614E+03 0.  0.
          5    1    3    3  502    0  0.29553309392E+02  0.30222786575E+02 -0.23734720795E+02  0.48658239750E+02  0.41800000000E+01 0. -1.
         -5    1    3    3    0  502 -0.12487715696E+03  0.57136042580E+02 -0.84386489344E+02  0.16123704188E+03  0.41800000000E+01 0. -1.
        -11    1    1    2    0    0  0.10552928309E+03 -0.75117300210E+02 -0.11305926827E+03  0.17193439599E+03  0.00000000000E+00 0.  1.
         11    1    1    2    0    0 -0.10205435531E+02 -0.12241528945E+02  0.87286998282E+01  0.18171300063E+02  0.00000000000E+00 0. -1.
</event>
<event>
 7    1  0.2530765E-009  0.2020848E+03  0.7561462E-02  0.1147992E+00
         -2   -1    0    0    0  501 -0.00000000000E+00  0.00000000000E+00  0.32296314261E+03  0.32296314261E+03  0.00000000000E+00 0.  1.
          2   -1    0    0  501    0  0.00000000000E+00 -0.00000000000E+00 -0.14806938081E+03  0.14806938081E+03  0.00000000000E+00 0. -1.
         25    2    1    2    0    0 -0.11323430740E+03  0.14036397509E+03  0.15273745952E+03  0.26739559484E+03  0.12509044216E+03 0.  0.
          5    1    3    3  502    0 -0.85536985578E+02  0.10871061683E+02  0.70532733200E+02  0.11147687983E+03  0.41800000000E+01 0. -1.
         -5    1    3    3    0  502 -0.27697321818E+02  0.12949291341E+03  0.82204726325E+02  0.15591871501E+03  0.41800000000E+01 0. -1.
        -11    1    1    2    0    0  0.22290024881E+02 -0.59944758713E+02  0.47443002400E+02  0.79630759026E+02  0.00000000000E+00 0.  1.
         11    1    1    2    0    0  0.90944282515E+02 -0.80419216381E+02 -0.25286700115E+02  0.12400616956E+03  0.00000000000E+00 0. -1.
</event>
<event>
 7    1  0.2530765E-009  0.9136687E+02  0.7561462E-02  0.1299575E+00
         -2   -1    0    0    0  501 -0.00000000000E+00  0.00000000000E+00  0.72258930191E+02  0.72258930191E+02  0.00000000000E+00 0.  1.
          2   -1    0    0  501    0  0.00000000000E+00 -0.00000000000E+00 -0.19662360114E+03  0.19662360114E+03  0.00000000000E+00 0. -1.
         25    2    1    2    0    0 -0.40356823054E+01 -0.34726695784E+02 -0.10921123823E+03  0.16969686697E+03  0.12509077493E+03 0.  0.
          5    1    3    3  502    0  0.33517460224E+02  0.79397586746E+01 -0.10719283992E+03  0.11266870567E+03  0.41800000000E+01 0. -1.
         -5    1    3    3    0  502 -0.37553142530E+02 -0.42666454459E+02 -0.20183983096E+01  0.57028161304E+02  0.41800000000E+01 0. -1.
        -11    1    1    2    0    0 -0.40052307550E+02  0.15534637940E+02  0.11142450861E+02  0.44380925263E+02  0.00000000000E+00 0.  1.
         11    1    1    2    0    0  0.44087989855E+02  0.19192057844E+02 -0.26295883580E+02  0.54804739092E+02  0.00000000000E+00 0. -1.
</event>
<event>
 7    1  0.2530765E-009  0.6000479E+02  0.7561462E-02  0.1397812E+00
          1   -1    0    0  501    0  0.00000000000E+00  0.00000000000E+00  0.43125283015E+02  0.43125283015E+02  0.00000000000E+00 0. -1.
         -1   -1    0    0    0  501 -0.00000000000E+00 -0.00000000000E+00 -0.31807869224E+03  0.31807869224E+03  0.00000000000E+00 0.  1.
         25    2    1    2    0    0 -0.14349647970E+02  0.15841522547E+02 -0.21689144884E+03  0.25128792709E+03  0.12508739140E+03 0.  0.
          5    1    3    3  502    0  0.99581804988E+01 -0.24278178888E+02 -0.19922379938E+03  0.20098803439E+03  0.41800000000E+01 0.  1.
         -5    1    3    3    0  502 -0.24307828469E+02  0.40119701434E+02 -0.17667649463E+02  0.50299892699E+02  0.41800000000E+01 0.  1.
        -11    1    1    2    0    0 -0.14515114281E+02 -0.72589035360E+01  0.20286729917E+02  0.25979446373E+02  0.00000000000E+00 0. -1.
         11    1    1    2    0    0  0.28864762251E+02 -0.85826190105E+01 -0.78348690307E+02  0.83936601800E+02  0.00000000000E+00 0.  1.
</event>
<event>
 7    1  0.2530765E-009  0.1525194E+03  0.7561462E-02  0.1197411E+00
          3   -1    0    0  501    0  0.00000000000E+00  0.00000000000E+00  0.86548519222E+02  0.86548519222E+02  0.00000000000E+00 0. -1.
         -3   -1    0    0    0  501 -0.00000000000E+00 -0.00000000000E+00 -0.41416296833E+03  0.41416296833E+03  0.00000000000E+00 0.  1.
         25    2    1    2    0    0  0.11423888661E+03  0.24718376634E+02 -0.37842911682E+02  0.17533256419E+03  0.12509156944E+03 0.  0.
          5    1    3    3  502    0  0.73799760042E+02 -0.37959054290E+02  0.14179937050E+02  0.84296129209E+02  0.41800000000E+01 0.  1.
         -5    1    3    3    0  502  0.40439126567E+02  0.62677430924E+02 -0.52022848733E+02  0.91036434986E+02  0.41800000000E+01 0.  1.
        -11    1    1    2    0    0 -0.25530703196E+02  0.32760419647E+02 -0.97264670478E+02  0.10576142030E+03  0.00000000000E+00 0.  1.
         11    1    1    2    0    0 -0.88708183412E+02 -0.57478796281E+02 -0.19250686694E+03  0.21961750305E+03  0.00000000000E+00 0. -1.
</event>
<event>
 7    1  0.2530765E-009  0.1135076E+03  0.7561462E-02  0.1254209E+00
         -2   -1    0    0    0  501 -0.00000000000E+00  0.00000000000E+00  0.93984172874E+02  0.93984172874E+02  0.00000000000E+00 0.  1.
          2   -1    0    0  501    0  0.00000000000E+00 -0.00000000000E+00 -0.19771197262E+03  0.19771197262E+03  0.00000000000E+00 0. -1.
         25    2    1    2    0    0 -0.43068193246E+02 -0.47130133052E+02 -0.11236986861E+03  0.17986250736E+03  0.12508962976E+03 0.  0.
          5    1    3    3  502    0 -0.46192640108E+02  0.33013171077E+02 -0.65855966576E+02  0.87052341716E+02  0.41800000000E+01 0. -1.
         -5    1    3    3    0  502  0.31244468614E+01 -0.80143304129E+02 -0.46513902031E+02  0.92810165645E+02  0.41800000000E+01 0. -1.
        -11    1    1    2    0    0  0.27054550238E+02 -0.11201490341E+02  0.35185783026E+02  0.45776209996E+02  0.00000000000E+00 0.  1.
         11    1    1    2    0    0  0.16013643008E+02  0.58331623393E+02 -0.26543714162E+02  0.66057428133E+02  0.00000000000E+00 0. -1.
</event>
<event>
 7    1  0.2530765E-009  0.2186445E+03  0.7561462E-02  0.1134898E+00
          2   -1    0    0  501    0  0.00000000000E+00  0.00000000000E+00  0.11157312007E+04  0.11157312007E+04  0.00000000000E+00 0. -1.
         -2   -1    0    0    0  501 -0.00000000000E+00 -0.00000000000E+00 -0.45149508255E+02  0.45149508255E+02  0.00000000000E+00 0.  1.
         25    2    1    2    0    0 -0.14347930909E+03 -0.12301940453E+03  0.42586870103E+03  0.48242257735E+03  0.12508919456E+03 0.  0.
          5    1    3    3  502    0 -0.57819173597E+02  0.18244873941E+02  0.99328945360E+02  0.11644588463E+03  0.41800000000E+01 0. -1.
         -5    1    3    3    0  502 -0.85660135496E+02 -0.14126427847E+03  0.32653975567E+03  0.36597669272E+03  0.41800000000E+01 0. -1.
        -11    1    1    2    0    0  0.14206804728E+03  0.13690581900E+03  0.60568118544E+03  0.63700567637E+03  0.00000000000E+00 0. -1.
         11    1    1    2    0    0  0.14112618133E+01 -0.13886414473E+02  0.39031805945E+02  0.41452455200E+02  0.00000000000E+00 0.  1.
</event>
<event>
 7    1  0.2530765E-009  0.1140617E+03  0.7561462E-02  0.1253228E+00
         -3   -1    0    0    0  501 -0.00000000000E+00  0.00000000000E+00  0.49016095890E+02  0.49016095890E+02  0.00000000000E+00 0.  1.
          3   -1    0    0  501    0  0.00000000000E+00 -0.00000000000E+00 -0.46611905429E+03  0.46611905429E+03  0.00000000000E+00 0. -1.
         25    2    1    2    0    0  0.16101634683E+02 -0.99057509210E+02 -0.17726447362E+03  0.23904349622E+03  0.12508975460E+03 0.  0.
          5    1    3    3  502    0 -0.11236873475E+02 -0.33530554435E+02 -0.16256087900E+03  0.16641537546E+03  0.41800000000E+01 0.  1.
         -5    1    3    3    0  502  0.27338508157E+02 -0.65526954775E+02 -0.14703594618E+02  0.72628120759E+02  0.41800000000E+01 0.  1.
        -11    1    1    2    0    0  0.26558980764E+02  0.28653612596E+02 -0.14658269524E+03  0.15170001819E+03  0.00000000000E+00 0.  1.
         11    1    1    2    0    0 -0.42660615447E+02  0.70403896615E+02 -0.93255789543E+02  0.12439163578E+03  0.00000000000E+00 0. -1.
</event>
<event>
 7    1  0.2530765E-009  0.1268806E+03  0.7561462E-02  0.1232159E+00
          1   -1    0    0  501    0  0.00000000000E+00  0.00000000000E+00  0.76024607741E+02  0.76024607741E+02  0.00000000000E+00 0. -1.
         -1   -1    0    0    0  501 -0.00000000000E+00 -0.00000000000E+00 -0.26395869330E+03  0.26395869330E+03  0.00000000000E+00 0.  1.
         25    2    1    2    0    0  0.37839370953E+02  0.75723000272E+02 -0.15285346701E+03  0.21489165746E+03  0.12509377004E+03 0.  0.
          5    1    3    3  502    0 -0.43105335087E+02  0.48140129473E+02 -0.55882484105E+02  0.85532838187E+02  0.41800000000E+01 0.  1.
         -5    1    3    3    0  502  0.80944706040E+02  0.27582870798E+02 -0.96970982905E+02  0.12935881927E+03  0.41800000000E+01 0.  1.
        -11    1    1    2    0    0  0.99216650689E+01 -0.46173092800E+02  0.15299264249E+02  0.49643342182E+02  0.00000000000E+00 0.  1.
         11    1    1    2    0    0 -0.47761036022E+02 -0.29549907472E+02 -0.50379882796E+02  0.75448301399E+02  0.00000000000E+00 0. -1.
</event>
<event>
 7    1  0.2530765E-009  0.1219160E+03  0.7561462E-02  0.1239969E+00
         -4   -1    0    0    0  501 -0.00000000000E+00  0.00000000000E+00  0.22790765127E+03  0.22790765127E+03  0.00000000000E+00 0.  1.
          4   -1    0    0  501    0  0.00000000000E+00 -0.00000000000E+00 -0.99745696607E+02  0.99745696607E+02  0.00000000000E+00 0. -1.
         25    2    1    2    0    0 -0.10850159151E+01  0.74513609533E+02 -0.11101843555E+02  0.14602698765E+03  0.12508866826E+03 0.  0.
          5    1    3    3  502    0  0.67361745023E+01  0.10111157601E+03 -0.36900636952E+02  0.10792616114E+03  0.41800000000E+01 0. -1.
         -5    1    3    3    0  502 -0.78211904174E+01 -0.26597966477E+02  0.25798793397E+02  0.38100826513E+02  0.41800000000E+01 0. -1.
        -11    1    1    2    0    0 -0.38186336576E+02 -0.11070662104E+02  0.32383185152E+02  0.51277934252E+02  0.00000000000E+00 0. -1.
         11    1    1    2    0    0  0.39271352491E+02 -0.63442947429E+02  0.10688061307E+03  0.13034842598E+03  0.00000000000E+00 0.  1.
</event>
<event>
 7    1  0.2530765E-009  0.1353015E+03  0.7561462E-02  0.1219795E+00
          2   -1    0    0  501    0  0.00000000000E+00  0.00000000000E+00  0.54296591523E+03  0.54296591523E+03  0.00000000000E+00 0. -1.
         -2   -1    0    0    0  501 -0.00000000000E+00 -0.00000000000E+00 -0.40010373100E+02  0.40010373100E+02  0.00000000000E+00 0.  1.
         25    2    1    2    0    0  0.27509168725E+02 -0.86978362656E+02  0.35188343543E+03  0.38443640367E+03  0.12508959348E+03 0.  0.
          5    1    3    3  502    0  0.57720910102E+02 -0.10045281899E+03  0.22330549452E+03  0.25160542242E+03  0.41800000000E+01 0.  1.
         -5    1    3    3    0  502 -0.30211741377E+02  0.13474456336E+02  0.12857794091E+03  0.13283098125E+03  0.41800000000E+01 0.  1.
        -11    1    1    2    0    0 -0.23416858455E+02 -0.91297141898E+01  0.84636257418E+01  0.26520443092E+02  0.00000000000E+00 0.  1.
         11    1    1    2    0    0 -0.40923102698E+01  0.96108076846E+02  0.14260848096E+03  0.17201944158E+03  0.00000000000E+00 0. -1.
</event>
<event>
 7    1  0.2530765E-009  0.1107329E+03  0.7561462E-02  0.1259219E+00
         -2   -1    0    0    0  501 -0.00000000000E+00  0.00000000000E+00  0.10852792172E+03  0.10852792172E+03  0.00000000000E+00 0.  1.
          2   -1    0    0  501    0  0.00000000000E+00 -0.00000000000E+00 -0.14117154763E+03  0.14117154763E+03  0.00000000000E+00 0. -1.
         25    2    1    2    0    0  0.50870407502E+02 -0.23699367909E+02  0.60443343026E+00  0.13710737644E+03  0.12509440009E+03 0.  0.
          5    1    3    3  502    0  0.58625792013E+02  0.30857911049E+02 -0.31195475012E+02  0.73347285053E+02  0.41800000000E+01 0. -1.
         -5    1    3    3    0  502 -0.77553845105E+01 -0.54557278958E+02  0.31799908442E+02  0.63760091383E+02  0.41800000000E+01 0. -1.
        -11    1    1    2    0    0 -0.63342976915E+02  0.43199261920E+02 -0.60975545197E+01  0.76913517186E+02  0.00000000000E+00 0.  1.
         11    1    1    2    0    0  0.12472569412E+02 -0.19499894011E+02 -0.27150504819E+02  0.35678575730E+02  0.00000000000E+00 0. -1.
</event>
<event>
 7    1  0.2530765E-009  0.1016387E+03  0.7561462E-02  0.1276887E+00
          1   -1    0    0  501    0  0.00000000000E+00  0.00000000000E+00  0.61348678584E+03  0.61348678584E+03  0.00000000000E+00 0. -1.
         -1   -1    0    0    0  501 -0.00000000000E+00 -0.00000000000E+00 -0.24792198873E+02  0.24792198873E+02  0.00000000000E+00 0.  1.
         25    2    1    2    0    0  0.81856137596E+01 -0.15230981401E+02  0.18239930600E+03  0.22184723675E+03  0.12509077726E+03 0.  0.
          5    1    3    3  502    0  0.11911856507E+02  0.49526036911E+02  0.38625545901E+02  0.64063451778E+02  0.41800000000E+01 0.  1.
         -5    1    3    3    0  502 -0.37262427475E+01 -0.64757018312E+02  0.14377376010E+03  0.15778378497E+03  0.41800000000E+01 0.  1.
        -11    1    1    2    0    0  0.37585916457E+02 -0.34250973506E+01  0.11677516550E+03  0.12272274314E+03  0.00000000000E+00 0.  1.
         11    1    1    2    0    0 -0.45771530217E+02  0.18656078751E+02  0.28952011547E+03  0.29370900482E+03  0.00000000000E+00 0. -1.
</event>
<event>
 7    1  0.2530765E-009  0.1201468E+03  0.7561462E-02  0.1242855E+00
          1   -1    0    0  501    0  0.00000000000E+00  0.00000000000E+00  0.40315049564E+03  0.40315049564E+03  0.00000000000E+00 0. -1.
         -1   -1    0    0    0  501 -0.00000000000E+00 -0.00000000000E+00 -0.10480431457E+03  0.10480431457E+03  0.00000000000E+00 0.  1.
         25    2    1    2    0    0  0.75041770814E+01  0.97536296948E+02  0.33341698840E+03  0.36930649794E+03  0.12510299506E+03 0.  0.
          5    1    3    3  502    0  0.42081101655E+02  0.68950162168E+02  0.86950482025E+02  0.11875522180E+03  0.41800000000E+01 0.  1.
         -5    1    3    3    0  502 -0.34576924574E+02  0.28586134780E+02  0.24646650637E+03  0.25055127615E+03  0.41800000000E+01 0.  1.
        -11    1    1    2    0    0 -0.32881909523E+02 -0.67089425963E+02  0.13534882328E+02  0.75930258063E+02  0.00000000000E+00 0. -1.
         11    1    1    2    0    0  0.25377732442E+02 -0.30446870985E+02 -0.48605689653E+02  0.62718054205E+02  0.00000000000E+00 0.  1.
</event>
<event>
 7    1  0.2530765E-009  0.1167195E+03  0.7561462E-02  0.1248609E+00
          2   -1    0    0  501    0  0.00000000000E+00  0.00000000000E+00  0.70145238200E+03  0.70145238200E+03  0.00000000000E+00 0. -1.
         -2   -1    0    0    0  501 -0.00000000000E+00 -0.00000000000E+00 -0.21017550131E+02  0.21017550131E+02  0.00000000000E+00 0.  1.
         25    2    1    2    0    0  0.43999183364E+02  0.22710563274E+02  0.31699665075E+03  0.34436243407E+03  0.12508761564E+03 0.  0.
          5    1    3    3  502    0  0.77799249778E+02 -0.14060572404E+02  0.14492266587E+03  0.16513774386E+03  0.41800000000E+01 0.  1.
         -5    1    3    3    0  502 -0.33800066413E+02  0.36771135678E+02  0.17207398488E+03  0.17922469021E+03  0.41800000000E+01 0.  1.
        -11    1    1    2    0    0 -0.70567118460E+02 -0.22286767572E+01  0.23675454403E+03  0.24705748183E+03  0.00000000000E+00 0. -1.
         11    1    1    2    0    0  0.26567935095E+02 -0.20481886516E+02  0.12668363709E+03  0.13105001624E+03  0.00000000000E+00 0.  1.
</event>
<event>
 7    1  0.2530765E-009  0.9796464E+02  0.7561462E-02  0.1284635E+00
         -1   -1    0    0    0  501 -0.00000000000E+00  0.00000000000E+00  0.17097707781E+03  0.17097707781E+03  0.00000000000E+00 0.  1.
          1   -1    0    0  501    0  0.00000000000E+00 -0.00000000000E+00 -0.11380865551E+03  0.11380865551E+03  0.00000000000E+00 0. -1.
         25    2    1    2    0    0 -0.54225106245E+02 -0.22781542873E+02  0.98125957038E+02  0.16951654226E+03  0.12509114203E+03 0.  0.
          5    1    3    3  502    0 -0.73547190032E+02 -0.33538196266E+02  0.13637642104E+02  0.82082016621E+02  0.41800000000E+01 0.  1.
         -5    1    3    3    0  502  0.19322083787E+02  0.10756653393E+02  0.84488314934E+02  0.87434525643E+02  0.41800000000E+01 0.  1.
        -11    1    1    2    0    0  0.19335993898E+02 -0.26065685555E+02 -0.44568653360E+02  0.55133161398E+02  0.00000000000E+00 0. -1.
         11    1    1    2    0    0  0.34889112347E+02  0.48847228428E+02  0.36111186143E+01  0.60136029659E+02  0.00000000000E+00 0.  1.
</event>
<event>
 7    1  0.2530765E-009  0.1863034E+03  0.7561462E-02  0.1161838E+00
          2   -1    0    0  501    0  0.00000000000E+00  0.00000000000E+00  0.33599388366E+03  0.33599388366E+03  0.00000000000E+00 0. -1.
         -2   -1    0    0    0  501 -0.00000000000E+00 -0.00000000000E+00 -0.14248552633E+03  0.14248552633E+03  0.00000000000E+00 0.  1.
         25    2    1    2    0    0  0.16863362179E+03  0.67362060633E+02  0.15964859697E+03  0.27223054670E+03  0.12508737120E+03 0.  0.
          5    1    3    3  502    0  0.61669144704E+02 -0.13022060104E+01 -0.74165841042E+01  0.62267626170E+02  0.41800000000E+01 0.  1.
         -5    1    3    3    0  502  0.10696447708E+03  0.68664266643E+02  0.16706518107E+03  0.20996292053E+03  0.41800000000E+01 0.  1.
        -11    1    1    2    0    0 -0.79301448941E+02 -0.17167221092E+02  0.59505742196E+02  0.10061991174E+03  0.00000000000E+00 0. -1.
         11    1    1    2    0    0 -0.89332172844E+02 -0.50194839541E+02 -0.25645981840E+02  0.10562895155E+03  0.00000000000E+00 0.  1.
</event>
<event>
 7    1  0.2530765E-009  0.1113885E+03  0.7561462E-02  0.1258020E+00
         -2   -1    0    0    0  501 -0.00000000000E+00  0.00000000000E+00  0.15449741447E+03  0.15449741447E+03  0.00000000000E+00 0.  1.
          2   -1    0    0  501    0  0.00000000000E+00 -0.00000000000E+00 -0.92025138208E+02  0.92025138208E+02  0.00000000000E+00 0. -1.
         25    2    1    2    0    0 -0.59930311766E+01  0.18808913694E+01  0.73657808411E+02  0.14530046347E+03  0.12508915928E+03 0.  0.
          5    1    3    3  502    0 -0.33700653160E+02  0.55240297920E+02  0.41525525156E+02  0.77000429720E+02  0.41800000000E+01 0.  1.
         -5    1    3    3    0  502  0.27707621984E+02 -0.53359406550E+02  0.32132283256E+02  0.68300033753E+02  0.41800000000E+01 0.  1.
        -11    1    1    2    0    0  0.44909847962E+02  0.24006252074E+02  0.63136730990E+01  0.51313322350E+02  0.00000000000E+00 0. -1.
         11    1    1    2    0    0 -0.38916816785E+02 -0.25887143443E+02 -0.17499205251E+02  0.49908766853E+02  0.00000000000E+00 0.  1.
</event>
<event>
 7    1  0.2530765E-009  0.2165029E+03  0.7561462E-02  0.1136517E+00
          2   -1    0    0  501    0  0.00000000000E+00  0.00000000000E+00  0.95154452465E+03  0.95154452465E+03  0.00000000000E+00 0. -1.
         -2   -1    0    0    0  501 -0.00000000000E+00 -0.00000000000E+00 -0.54239041357E+02  0.54239041357E+02  0.00000000000E+00 0.  1.
         25    2    1    2    0    0  0.11966007166E+03  0.14506842230E+03  0.58275252493E+03  0.62499034847E+03  0.12509616490E+03 0.  0.
          5    1    3    3  502    0  0.10656216849E+03  0.16648089471E+03  0.54212739049E+03  0.57705369245E+03  0.41800000000E+01 0. -1.
         -5    1    3    3    0  502  0.13097903162E+02 -0.21412472408E+02  0.40625134447E+02  0.47936656023E+02  0.41800000000E+01 0. -1.
        -11    1    1    2    0    0 -0.67796064960E+02 -0.14459783378E+02  0.68612028405E+02  0.97534620527E+02  0.00000000000E+00 0.  1.
         11    1    1    2    0    0 -0.51864006696E+02 -0.13060863892E+03  0.24594092996E+03  0.28325859701E+03  0.00000000000E+00 0. -1.
</event>
<event>
 7    1  0.2530765E-009  0.1368533E+03  0.7561462E-02  0.1217627E+00
         -2   -1    0    0    0  501 -0.00000000000E+00  0.00000000000E+00  0.22692971084E+02  0.22692971084E+02  0.00000000000E+00 0.  1.
          2   -1    0    0  501    0  0.00000000000E+00 -0.00000000000E+00 -0.12618470364E+04  0.12618470364E+04  0.00000000000E+00 0. -1.
         25    2    1    2    0    0  0.93083130194E+02  0.50009633853E+02 -0.94897145910E+03  0.96299370517E+03  0.12507842904E+03 0.  0.
          5    1    3    3  502    0  0.29892902492E+02  0.66912072267E+02 -0.23938961334E+03  0.25039103500E+03  0.41800000000E+01 0.  1.
         -5    1    3    3    0  502  0.63190227703E+02 -0.16902438415E+02 -0.70958184576E+03  0.71260267017E+03  0.41800000000E+01 0.  1.
        -11    1    1    2    0    0  0.16005266119E+02 -0.75444802405E+01 -0.17917131413E+02  0.25181567142E+02  0.00000000000E+00 0.  1.
         11    1    1    2    0    0 -0.10908839631E+03 -0.42465153612E+02 -0.27226547480E+03  0.29636473516E+03  0.00000000000E+00 0. -1.
</event>
<event>
 7    1  0.2530765E-009  0.1061285E+03  0.7561462E-02  0.1267912E+00
          2   -1    0    0  501    0  0.00000000000E+00  0.00000000000E+00  0.11931769468E+03  0.11931769468E+03  0.00000000000E+00 0. -1.
         -2   -1    0    0    0  501 -0.00000000000E+00 -0.00000000000E+00 -0.14599303297E+03  0.14599303297E+03  0.00000000000E+00 0.  1.
         25    2    1    2    0    0 -0.65633787238E+02  0.61663637573E+00  0.17962291894E+02  0.14240662867E+03  0.12509528245E+03 0.  0.
          5    1    3    3  502    0  0.11521897330E+02  0.35571940819E+02 -0.27102203506E+02  0.46369374879E+02  0.41800000000E+01 0. -1.
         -5    1    3    3    0  502 -0.77155684569E+02 -0.34955304444E+02  0.45064495400E+02  0.96037253791E+02  0.41800000000E+01 0. -1.
        -11    1    1    2    0    0  0.86057013804E+01 -0.26011542787E+02  0.19324129809E+02  0.33527308978E+02  0.00000000000E+00 0. -1.
         11    1    1    2    0    0  0.57028085858E+02  0.25394906411E+02 -0.63961759992E+02  0.89376789994E+02  0.00000000000E+00 0.  1.
</event>
<event>
 7    1  0.3264940E-009  0.1186248E+03  0.7561462E-02  0.1245383E+00
          1   -1    0    0  501    0  0.00000000000E+00  0.00000000000E+00  0.27182213221E+03  0.27182213221E+03  0.00000000000E+00 0. -1.
         -1   -1    0    0    0  501 -0.00000000000E+00 -0.00000000000E+00 -0.82913948060E+02  0.82913948060E+02  0.00000000000E+00 0.  1.
         25    2    1    2    0    0 -0.74623575053E+02 -0.83203871146E+01  0.18576095211E+03  0.23620317660E+03  0.12508757936E+03 0.  0.
          5    1    3    3  502    0 -0.13355261083E+02  0.47417382437E+02  0.25206447037E+02  0.55494220672E+02  0.41800000000E+01 0.  1.
         -5    1    3    3    0  502 -0.61268313969E+02 -0.55737769552E+02  0.16055450508E+03  0.18070895593E+03  0.41800000000E+01 0.  1.
        -11    1    1    2    0    0  0.12759994684E+02  0.35188466119E+02  0.27903524859E+02  0.46686746638E+02  0.00000000000E+00 0. -1.
         11    1    1    2    0    0  0.61863580369E+02 -0.26868079004E+02 -0.24756292827E+02  0.71846157030E+02  0.00000000000E+00 0.  1.
</event>
<event>
 7    1  0.2530765E-009  0.1381029E+03  0.7561462E-02  0.1215905E+00
         -2   -1    0    0    0  501 -0.00000000000E+00  0.00000000000E+00  0.25137857605E+02  0.25137857605E+02  0.00000000000E+00 0.  1.
          2   -1    0    0  501    0  0.00000000000E+00 -0.00000000000E+00 -0.10485495468E+04  0.10485495468E+04  0.00000000000E+00 0. -1.
         25    2    1    2    0    0 -0.10574988622E+03 -0.52763959919E+02 -0.47093974336E+03  0.50139634857E+03  0.12508789940E+03 0.  0.
          5    1    3    3  502    0 -0.25355118000E+02  0.18383066040E+02 -0.28424214260E+03  0.28599280962E+03  0.41800000000E+01 0. -1.
         -5    1    3    3    0  502 -0.80394768220E+02 -0.71147025959E+02 -0.18669760076E+03  0.21540353895E+03  0.41800000000E+01 0. -1.
        -11    1    1    2    0    0 -0.42664306607E+01 -0.97454486410E+01 -0.80041717356E+01  0.13313262747E+02  0.00000000000E+00 0.  1.
         11    1    1    2    0    0  0.11001631688E+03  0.62509408560E+02 -0.54446777410E+03  0.55897779310E+03  0.00000000000E+00 0. -1.
</event>
<event>
 7    1  0.2530765E-009  0.1266009E+03  0.7561462E-02  0.1232588E+00
         -2   -1    0    0    0  501 -0.00000000000E+00  0.00000000000E+00  0.92772109676E+02  0.92772109676E+02  0.00000000000E+00 0.  1.
          2   -1    0    0  501    0  0.00000000000E+00 -0.00000000000E+00 -0.18597736024E+03  0.18597736024E+03  0.00000000000E+00 0. -1.
         25    2    1    2    0    0 -0.65492184743E+02 -0.31529263294E+02 -0.39416883828E+02  0.14994747616E+03  0.12508890506E+03 0.  0.
          5    1    3    3  502    0 -0.96737900366E+02 -0.48676425466E+02 -0.34456533217E+02  0.11372045042E+03  0.41800000000E+01 0.  1.
         -5    1    3    3    0  502  0.31245715623E+02  0.17147162172E+02 -0.49603506107E+01  0.36227025734E+02  0.41800000000E+01 0.  1.
        -11    1    1    2    0    0  0.15802160342E+02  0.52634031084E+02 -0.50631652569E+02  0.74723582232E+02  0.00000000000E+00 0.  1.
         11    1    1    2    0    0  0.49690024401E+02 -0.21104767790E+02 -0.31567141639E+01  0.54078411522E+02  0.00000000000E+00 0. -1.
</event>
<event>
 7    1  0.2530765E-009  0.1088478E+03  0.7561462E-02  0.1262719E+00
          2   -1    0    0  501    0  0.00000000000E+00  0.00000000000E+00  0.30448153298E+03  0.30448153298E+03  0.00000000000E+00 0.  1.
         -2   -1    0    0    0  501 -0.00000000000E+00 -0.00000000000E+00 -0.70347576694E+02  0.70347576694E+02  0.00000000000E+00 0. -1.
         25    2    1    2    0    0  0.33854028415E+02  0.46010490533E+02  0.22232181913E+02  0.13930136178E+03  0.12509012352E+03 0.  0.
          5    1    3    3  502    0 -0.25901202289E+02  0.61117133654E+02  0.36543464358E+02  0.75888559701E+02  0.41800000000E+01 0.  1.
         -5    1    3    3    0  502  0.59755230704E+02 -0.15106643121E+02 -0.14311282445E+02  0.63412802084E+02  0.41800000000E+01 0.  1.
        -11    1    1    2    0    0  0.15801398959E+02 -0.35208060904E+02  0.15272921491E+03  0.15752937773E+03  0.00000000000E+00 0.  1.
         11    1    1    2    0    0 -0.49655427374E+02 -0.10802429629E+02  0.59172559462E+02  0.77998370155E+02  0.00000000000E+00 0. -1.
</event>
<event>
 7    1  0.2530765E-009  0.1144327E+03  0.7561462E-02  0.1252575E+00
         -1   -1    0    0    0  501 -0.00000000000E+00  0.00000000000E+00  0.29279177727E+02  0.29279177727E+02  0.00000000000E+00 0.  1.
          1   -1    0    0  501    0  0.00000000000E+00 -0.00000000000E+00 -0.60270149782E+03  0.60270149782E+03  0.00000000000E+00 0. -1.
         25    2    1    2    0    0  0.30193112087E+02 -0.60220113431E+02 -0.42242824994E+03  0.44567869950E+03  0.12508313539E+03 0.  0.
          5    1    3    3  502    0  0.32027296894E+02 -0.95028162076E+02 -0.24411735757E+03  0.26394479726E+03  0.41800000000E+01 0.  1.
         -5    1    3    3    0  502 -0.18341848073E+01  0.34808048645E+02 -0.17831089238E+03  0.18173390224E+03  0.41800000000E+01 0.  1.
        -11    1    1    2    0    0 -0.50267883843E+02  0.35459467742E+02 -0.46668238926E+02  0.77215014881E+02  0.00000000000E+00 0.  1.
         11    1    1    2    0    0  0.20074771756E+02  0.24760645688E+02 -0.10432583122E+03  0.10908696117E+03  0.00000000000E+00 0. -1.
</event>
<event>
 7    1  0.2530765E-009  0.1828396E+03  0.7561462E-02  0.1165083E+00
         -2   -1    0    0    0  501 -0.00000000000E+00  0.00000000000E+00  0.24902288761E+03  0.24902288761E+03  0.00000000000E+00 0.  1.
          2   -1    0    0  501    0  0.00000000000E+00 -0.00000000000E+00 -0.16238292863E+03  0.16238292863E+03  0.00000000000E+00 0. -1.
         25    2    1    2    0    0 -0.10425421091E+03 -0.10795288701E+03  0.12429425869E+03  0.23155798717E+03  0.12508905777E+03 0.  0.
          5    1    3    3  502    0 -0.13028899444E+03 -0.84032379830E+02  0.79327165933E+02  0.17420371577E+03  0.41800000000E+01 0. -1.
         -5    1    3    3    0  502  0.26034783533E+02 -0.23920507176E+02  0.44967092762E+02  0.57354271407E+02  0.41800000000E+01 0. -1.
        -11    1    1    2    0    0  0.75012344413E+01  0.71029691315E+02 -0.24228562085E+02  0.75422203542E+02  0.00000000000E+00 0.  1.
         11    1    1    2    0    0  0.96752976466E+02  0.36923195691E+02 -0.13425737623E+02  0.10442562552E+03  0.00000000000E+00 0. -1.
</event>
<event>
 7    1  0.2530765E-009  0.1135406E+03  0.7561462E-02  0.1254150E+00
         -1   -1    0    0    0  501 -0.00000000000E+00  0.00000000000E+00  0.49453354849E+03  0.49453354849E+03  0.00000000000E+00 0. -1.
          1   -1    0    0  501    0  0.00000000000E+00 -0.00000000000E+00 -0.26280280358E+02  0.26280280358E+02  0.00000000000E+00 0.  1.
         25    2    1    2    0    0  0.80075762272E+01 -0.32160069592E+02  0.25276738977E+03  0.28396883921E+03  0.12509419234E+03 0.  0.
          5    1    3    3  502    0  0.38330187397E+02  0.36853026873E+02  0.11802804791E+03  0.12952004227E+03  0.41800000000E+01 0. -1.
         -5    1    3    3    0  502 -0.30322611170E+02 -0.69013096466E+02  0.13473934185E+03  0.15444879694E+03  0.41800000000E+01 0. -1.
        -11    1    1    2    0    0 -0.48339603395E+02  0.31896935963E+02  0.12349736965E+03  0.13640283022E+03  0.00000000000E+00 0.  1.
         11    1    1    2    0    0  0.40332027168E+02  0.26313362955E+00  0.91988508717E+02  0.10044215943E+03  0.00000000000E+00 0. -1.
</event>
<event>
 7    1  0.4349150E-009  0.1266170E+03  0.7561462E-02  0.1232564E+00
         -2   -1    0    0    0  501 -0.00000000000E+00  0.00000000000E+00  0.16537700558E+02  0.16537700558E+02  0.00000000000E+00 0.  1.
          2   -1    0    0  501    0  0.00000000000E+00 -0.00000000000E+00 -0.10918640370E+04  0.10918640370E+04  0.00000000000E+00 0. -1.
         25    2    1    2    0    0 -0.77971719133E+02 -0.11339397583E+02 -0.63688874775E+03  0.65382224657E+03  0.12509229460E+03 0.  0.
          5    1    3    3  502    0 -0.42208545617E+02 -0.66418120643E+02 -0.27815443958E+03  0.28910256438E+03  0.41800000000E+01 0.  1.
         -5    1    3    3    0  502 -0.35763173516E+02  0.55078723060E+02 -0.35873430817E+03  0.36471968219E+03  0.41800000000E+01 0.  1.
        -11    1    1    2    0    0  0.31243360207E+02  0.42286974583E+02 -0.11670476903E+03  0.12800132378E+03  0.00000000000E+00 0.  1.
         11    1    1    2    0    0  0.46728358926E+02 -0.30947577000E+02 -0.32173281964E+03  0.32657816719E+03  0.00000000000E+00 0. -1.
</event>
<event>
 7    1  0.2530765E-009  0.9069040E+02  0.7561462E-02  0.1301188E+00
          2   -1    0    0  501    0  0.00000000000E+00  0.00000000000E+00  0.30361167661E+03  0.30361167661E+03  0.00000000000E+00 0.  1.
         -2   -1    0    0    0  501 -0.00000000000E+00 -0.00000000000E+00 -0.45438473229E+02  0.45438473229E+02  0.00000000000E+00 0. -1.
         25    2    1    2    0    0  0.25090370863E+02  0.36798529731E+02  0.13263153767E+03  0.18767549941E+03  0.12508920734E+03 0.  0.
          5    1    3    3  502    0  0.46229817090E+02 -0.34796859401E+02  0.58281087678E+02  0.82232444894E+02  0.41800000000E+01 0. -1.
         -5    1    3    3    0  502 -0.21139446227E+02  0.71595389132E+02  0.74350449989E+02  0.10544305451E+03  0.41800000000E+01 0. -1.
        -11    1    1    2    0    0 -0.13585956023E+02 -0.34208549753E+02  0.13881944598E+03  0.14361630012E+03  0.00000000000E+00 0.  1.
         11    1    1    2    0    0 -0.11504414840E+02 -0.25899799777E+01 -0.13277780265E+02  0.17758350314E+02  0.00000000000E+00 0. -1.
</event>
<event>
 7    1  0.2530765E-009  0.2891025E+03  0.7561462E-02  0.1090819E+00
          1   -1    0    0  501    0  0.00000000000E+00  0.00000000000E+00  0.14205317795E+04  0.14205317795E+04  0.00000000000E+00 0. -1.
         -1   -1    0    0    0  501 -0.00000000000E+00 -0.00000000000E+00 -0.95390255512E+02  0.95390255512E+02  0.00000000000E+00 0.  1.
         25    2    1    2    0    0 -0.84737237821E+02  0.26743975059E+03  0.11092229214E+04  0.11509666943E+04  0.12507766580E+03 0.  0.
          5    1    3    3  502    0 -0.92626534772E+02  0.13889447475E+03  0.77446413760E+03  0.79226480604E+03  0.41800000000E+01 0.  1.
         -5    1    3    3    0  502  0.78892969512E+01  0.12854527584E+03  0.33475878376E+03  0.35870188828E+03  0.41800000000E+01 0.  1.
        -11    1    1    2    0    0  0.32957652107E+02 -0.59055449033E+02  0.10062153923E+03  0.12123715211E+03  0.00000000000E+00 0. -1.
         11    1    1    2    0    0  0.51779585714E+02 -0.20838430156E+03  0.11529706343E+03  0.24371818863E+03  0.00000000000E+00 0.  1.
</event>
<event>
 7    1  0.2530765E-009  0.1355292E+03  0.7561462E-02  0.1219475E+00
          1   -1    0    0  501    0  0.00000000000E+00  0.00000000000E+00  0.88922373027E+03  0.88922373027E+03  0.00000000000E+00 0. -1.
         -1   -1    0    0    0  501 -0.00000000000E+00 -0.00000000000E+00 -0.27455836831E+02  0.27455836831E+02  0.00000000000E+00 0.  1.
         25    2    1    2    0    0 -0.10685950593E+01 -0.95551365550E+02  0.63328383058E+03  0.65255052699E+03  0.12507027961E+03 0.  0.
          5    1    3    3  502    0 -0.39505481541E+02 -0.20499763379E+01  0.33968885880E+03  0.34201005639E+03  0.41800000000E+01 0.  1.
         -5    1    3    3    0  502  0.38436886482E+02 -0.93501389212E+02  0.29359497178E+03  0.31054047060E+03  0.41800000000E+01 0.  1.
        -11    1    1    2    0    0  0.44445728352E+02  0.41640043733E+02  0.13225512409E+03  0.14560471785E+03  0.00000000000E+00 0. -1.
         11    1    1    2    0    0 -0.43377133293E+02  0.53911321817E+02  0.96228938769E+02  0.11852432227E+03  0.00000000000E+00 0.  1.
</event>
<event>
 7    1  0.2530765E-009  0.1947703E+03  0.7561462E-02  0.1154228E+00
          2   -1    0    0  501    0  0.00000000000E+00  0.00000000000E+00  0.97753000422E+03  0.97753000422E+03  0.00000000000E+00 0.  1.
         -2   -1    0    0    0  501 -0.00000000000E+00 -0.00000000000E+00 -0.47812267559E+02  0.47812267559E+02  0.00000000000E+00 0. -1.
         25    2    1    2    0    0 -0.38864937516E+02  0.16538354747E+03  0.30325741146E+03  0.36942527527E+03  0.12509106785E+03 0.  0.
          5    1    3    3  502    0  0.26152495632E+02 -0.16613573200E+01  0.72449996155E+02  0.77156901692E+02  0.41800000000E+01 0.  1.
         -5    1    3    3    0  502 -0.65017433148E+02  0.16704490479E+03  0.23080741531E+03  0.29226837357E+03  0.41800000000E+01 0.  1.
        -11    1    1    2    0    0  0.50168554328E+02 -0.62238293414E+02  0.17066041080E+03  0.18845547173E+03  0.00000000000E+00 0. -1.
         11    1    1    2    0    0 -0.11303616812E+02 -0.10314525406E+03  0.45579991440E+03  0.46746152478E+03  0.00000000000E+00 0.  1.
</event>
<event>
 7    1  0.2530765E-009  0.1085486E+03  0.7561462E-02  0.1263282E+00
          1   -1    0    0  501    0  0.00000000000E+00  0.00000000000E+00  0.64102037072E+02  0.64102037072E+02  0.00000000000E+00 0. -1.
         -1   -1    0    0    0  501 -0.00000000000E+00 -0.00000000000E+00 -0.26857778993E+03  0.26857778993E+03  0.00000000000E+00 0.  1.
         25    2    1    2    0    0  0.52557733253E+02  0.30853585797E+02 -0.59245938176E+02  0.15123749446E+03  0.12509372271E+03 0.  0.
          5    1    3    3  502    0 -0.58077941983E+00  0.56838382835E+02 -0.70730822083E+02  0.90836450066E+02  0.41800000000E+01 0.  1.
         -5    1    3    3    0  502  0.53138512673E+02 -0.25984797038E+02  0.11484883907E+02  0.60401044399E+02  0.41800000000E+01 0.  1.
        -11    1    1    2    0    0 -0.40352562558E+02 -0.58220755747E+02 -0.12947780210E+03  0.14758891199E+03  0.00000000000E+00 0.  1.
         11    1    1    2    0    0 -0.12205170694E+02  0.27367169951E+02 -0.15752012588E+02  0.33853420557E+02  0.00000000000E+00 0. -1.
</event>
<event>
 7    1  0.2530765E-009  0.7597359E+02  0.7561462E-02  0.1340882E+00
          2   -1    0    0  501    0  0.00000000000E+00  0.00000000000E+00  0.19873029371E+03  0.19873029371E+03  0.00000000000E+00 0. -1.
         -2   -1    0    0    0  501 -0.00000000000E+00 -0.00000000000E+00 -0.74124753216E+02  0.74124753216E+02  0.00000000000E+00 0.  1.
         25    2    1    2    0    0 -0.12119660236E+02  0.51992870717E+02  0.52681995436E+02  0.14585325373E+03  0.12509050408E+03 0.  0.
          5    1    3    3  502    0 -0.17288705076E+02  0.42551981891E+02 -0.34697315375E+02  0.57714353330E+02  0.41800000000E+01 0. -1.
         -5    1    3    3    0  502  0.51690448409E+01  0.94408888266E+01  0.87379310811E+02  0.88138900403E+02  0.41800000000E+01 0. -1.
        -11    1    1    2    0    0  0.16137956328E+02  0.17998631237E+02 -0.30396355822E+01  0.24364395033E+02  0.00000000000E+00 0.  1.
         11    1    1    2    0    0 -0.40182960924E+01 -0.69991501954E+02  0.74963180638E+02  0.10263739816E+03  0.00000000000E+00 0. -1.
</event>
<event>
 7    1  0.2530765E-009  0.8476397E+02  0.7561462E-02  0.1316051E+00
          2   -1    0    0  501    0  0.00000000000E+00  0.00000000000E+00  0.33288948784E+03  0.33288948784E+03  0.00000000000E+00 0. -1.
         -2   -1    0    0    0  501 -0.00000000000E+00 -0.00000000000E+00 -0.38001206003E+02  0.38001206003E+02  0.00000000000E+00 0.  1.
         25    2    1    2    0    0  0.99035684738E+01  0.59576928777E+01  0.12123680203E+03  0.17458188375E+03  0.12508755811E+03 0.  0.
          5    1    3    3  502    0 -0.31862470039E+01  0.43941638124E+02  0.12634102813E+03  0.13386764927E+03  0.41800000000E+01 0. -1.
         -5    1    3    3    0  502  0.13089815478E+02 -0.37983945246E+02 -0.51042260990E+01  0.40714234486E+02  0.41800000000E+01 0. -1.
        -11    1    1    2    0    0  0.36781118868E+01 -0.44171551587E+02  0.53379373583E+02  0.69383081517E+02  0.00000000000E+00 0.  1.
         11    1    1    2    0    0 -0.13581680361E+02  0.38213858709E+02  0.12027210622E+03  0.12692572857E+03  0.00000000000E+00 0. -1.
</event>
<event>
 7    1  0.2530765E-009  0.1016446E+03  0.7561462E-02  0.1276875E+00
         -2   -1    0    0    0  501 -0.00000000000E+00  0.00000000000E+00  0.93478163966E+02  0.93478163966E+02  0.00000000000E+00 0.  1.
          2   -1    0    0  501    0  0.00000000000E+00 -0.00000000000E+00 -0.25120124854E+03  0.25120124854E+03  0.00000000000E+00 0. -1.
         25    2    1    2    0    0 -0.66812533198E+01 -0.83686465647E+02 -0.33481330920E+02  0.15432707373E+03  0.12509109676E+03 0.  0.
          5    1    3    3  502    0 -0.39353645041E+02 -0.63310253426E+02 -0.69082605520E+02  0.10171910515E+03  0.41800000000E+01 0.  1.
         -5    1    3    3    0  502  0.32672391721E+02 -0.20376212222E+02  0.35601274600E+02  0.52607968583E+02  0.41800000000E+01 0.  1.
        -11    1    1    2    0    0 -0.12041417676E+02  0.49229702670E+02  0.89874828436E+01  0.51471683599E+02  0.00000000000E+00 0.  1.
         11    1    1    2    0    0  0.18722670996E+02  0.34456762977E+02 -0.13322923650E+03  0.13888065517E+03  0.00000000000E+00 0. -1.
</event>
<event>
 7    1  0.2530765E-009  0.1779122E+03  0.7561462E-02  0.1169839E+00
         -2   -1    0    0    0  501 -0.00000000000E+00  0.00000000000E+00  0.33761050925E+02  0.33761050925E+02  0.00000000000E+00 0.  1.
          2   -1    0    0  501    0  0.00000000000E+00 -0.00000000000E+00 -0.10689519253E+04  0.10689519253E+04  0.00000000000E+00 0. -1.
         25    2    1    2    0    0 -0.99914690867E+02 -0.11562489336E+03 -0.62649359767E+03  0.65688033495E+03  0.12508191356E+03 0.  0.
          5    1    3    3  502    0  0.77832379598E+01 -0.51795384999E+02 -0.34225324247E+03  0.34626304319E+03  0.41800000000E+01 0.  1.
         -5    1    3    3    0  502 -0.10769792883E+03 -0.63829508357E+02 -0.28424035520E+03  0.31061729175E+03  0.41800000000E+01 0.  1.
        -11    1    1    2    0    0  0.83617168044E+02  0.26940893415E+02 -0.19353781349E+03  0.21254300220E+03  0.00000000000E+00 0.  1.
         11    1    1    2    0    0  0.16297522823E+02  0.88683999941E+02 -0.21515946321E+03  0.23328963908E+03  0.00000000000E+00 0. -1.
</event>
<event>
 7    1  0.2530765E-009  0.1719008E+03  0.7561462E-02  0.1175880E+00
         -1   -1    0    0    0  501 -0.00000000000E+00  0.00000000000E+00  0.33252094968E+02  0.33252094968E+02  0.00000000000E+00 0.  1.
          1   -1    0    0  501    0  0.00000000000E+00 -0.00000000000E+00 -0.11458117468E+04  0.11458117468E+04  0.00000000000E+00 0. -1.
         25    2    1    2    0    0 -0.12963327641E+03  0.92625525224E+02 -0.66116504057E+03  0.69149925979E+03  0.12509093149E+03 0.  0.
          5    1    3    3  502    0 -0.31688867248E+01 -0.80795848324E+01  0.11734732709E+01  0.97041730021E+01  0.41800000000E+01 0. -1.
         -5    1    3    3    0  502 -0.12646438968E+03  0.10070511006E+03 -0.66233851384E+03  0.68179508678E+03  0.41800000000E+01 0. -1.
        -11    1    1    2    0    0  0.77286367295E+02 -0.14848396823E+02 -0.29411729125E+03  0.30446451102E+03  0.00000000000E+00 0.  1.
         11    1    1    2    0    0  0.52346909113E+02 -0.77777128401E+02 -0.15727732003E+03  0.18310007097E+03  0.00000000000E+00 0. -1.
</event>
<event>
 7    1  0.2530765E-009  0.1260605E+03  0.7561462E-02  0.1233421E+00
         -1   -1    0    0    0  501 -0.00000000000E+00  0.00000000000E+00  0.28068017682E+02  0.28068017682E+02  0.00000000000E+00 0.  1.
          1   -1    0    0  501    0  0.00000000000E+00 -0.00000000000E+00 -0.63310332424E+03  0.63310332424E+03  0.00000000000E+00 0. -1.
         25    2    1    2    0    0  0.41658600344E+02  0.52961979721E+02 -0.42139098668E+03  0.44470229335E+03  0.12509738516E+03 0.  0.
          5    1    3    3  502    0  0.72525562625E+02  0.73655801809E+02 -0.33375358051E+03  0.34941960346E+03  0.41800000000E+01 0.  1.
         -5    1    3    3    0  502 -0.30866962282E+02 -0.20693822089E+02 -0.87637406168E+02  0.95282689892E+02  0.41800000000E+01 0.  1.
        -11    1    1    2    0    0  0.22254827967E+02 -0.40416102510E+02 -0.10259093838E+03  0.11248839650E+03  0.00000000000E+00 0.  1.
         11    1    1    2    0    0 -0.63913428311E+02 -0.12545877211E+02 -0.81053381505E+02  0.10398065208E+03  0.00000000000E+00 0. -1.
</event>
<event>
 7    1  0.2530765E-009  0.9189564E+02  0.7561462E-02  0.1298325E+00
         -2   -1    0    0    0  501 -0.00000000000E+00  0.00000000000E+00  0.46432252076E+02  0.46432252076E+02  0.00000000000E+00 0.  1.
          2   -1    0    0  501    0  0.00000000000E+00 -0.00000000000E+00 -0.27002291010E+03  0.27002291010E+03  0.00000000000E+00 0. -1.
         25    2    1    2    0    0 -0.26246558779E+02  0.17384903211E+02 -0.12909943372E+03  0.18250064976E+03  0.12509479073E+03 0.  0.
          5    1    3    3  502    0  0.32931882254E+02  0.78226958067E+01 -0.11611787060E+03  0.12102287268E+03  0.41800000000E+01 0.  1.
         -5    1    3    3    0  502 -0.59178441034E+02  0.95622074042E+01 -0.12981563120E+02  0.61477777080E+02  0.41800000000E+01 0.  1.
        -11    1    1    2    0    0  0.28180252087E+02  0.30583503502E+02 -0.66353745659E+02  0.78308983246E+02  0.00000000000E+00 0.  1.
         11    1    1    2    0    0 -0.19336933082E+01 -0.47968406713E+02 -0.28137478646E+02  0.55645529173E+02  0.00000000000E+00 0. -1.
</event>
<event>
 7    1  0.2530765E-009  0.1983874E+03  0.7561462E-02  0.1151107E+00
         -2   -1    0    0    0  501 -0.00000000000E+00  0.00000000000E+00  0.48776785670E+02  0.48776785670E+02  0.00000000000E+00 0.  1.
          2   -1    0    0  501    0  0.00000000000E+00 -0.00000000000E+00 -0.96590412342E+03  0.96590412342E+03  0.00000000000E+00 0. -1.
         25    2    1    2    0    0  0.15844171492E+03 -0.97581953943E+02 -0.42733243641E+03  0.48258298587E+03  0.12508921728E+03 0.  0.
          5    1    3    3  502    0  0.90538707275E+02 -0.98737442496E+02 -0.37026995880E+03  0.39378122715E+03  0.41800000000E+01 0. -1.
         -5    1    3    3    0  502  0.67903007646E+02  0.11554885531E+01 -0.57062477618E+02  0.88801758727E+02  0.41800000000E+01 0. -1.
        -11    1    1    2    0    0 -0.95272907907E+02  0.25029729217E+02 -0.34076341402E+03  0.35471554612E+03  0.00000000000E+00 0. -1.
         11    1    1    2    0    0 -0.63168807014E+02  0.72552224726E+02 -0.14903148732E+03  0.17738237710E+03  0.00000000000E+00 0.  1.
</event>
<event>
 7    1  0.2530765E-009  0.1071676E+03  0.7561462E-02  0.1265907E+00
          2   -1    0    0  501    0  0.00000000000E+00  0.00000000000E+00  0.64910332135E+03  0.64910332135E+03  0.00000000000E+00 0. -1.
         -2   -1    0    0    0  501 -0.00000000000E+00 -0.00000000000E+00 -0.19223636132E+02  0.19223636132E+02  0.00000000000E+00 0.  1.
         25    2    1    2    0    0  0.14844987540E+02 -0.14084587920E+02  0.29733327346E+03  0.32322427469E+03  0.12509239375E+03 0.  0.
          5    1    3    3  502    0 -0.33174705416E+02  0.39302942581E+02  0.16119156489E+03  0.16924974259E+03  0.41800000000E+01 0. -1.
         -5    1    3    3    0  502  0.48019692955E+02 -0.53387530501E+02  0.13614170857E+03  0.15397453211E+03  0.41800000000E+01 0. -1.
        -11    1    1    2    0    0  0.28245763670E+02  0.33264737525E+02  0.12969505802E+03  0.13683995762E+03  0.00000000000E+00 0.  1.
         11    1    1    2    0    0 -0.43090751210E+02 -0.19180149606E+02  0.20285135374E+03  0.20826272516E+03  0.00000000000E+00 0. -1.
</event>
<event>
 7    1  0.4305557E-009  0.1069754E+03  0.7561462E-02  0.1266276E+00
          1   -1    0    0  501    0  0.00000000000E+00  0.00000000000E+00  0.16604243218E+04  0.16604243218E+04  0.00000000000E+00 0. -1.
         -1   -1    0    0    0  501 -0.00000000000E+00 -0.00000000000E+00 -0.12405301837E+02  0.12405301837E+02  0.00000000000E+00 0.  1.
         25    2    1    2    0    0 -0.14566779419E+01  0.80262392330E+02  0.11759775369E+04  0.11853331659E+04  0.12508946089E+03 0.  0.
          5    1    3    3  502    0 -0.22664404052E+02  0.26872066645E+02  0.99016507094E+03  0.99079772067E+03  0.41800000000E+01 0.  1.
         -5    1    3    3    0  502  0.21207726110E+02  0.53390325686E+02  0.18581246600E+03  0.19453544521E+03  0.41800000000E+01 0.  1.
        -11    1    1    2    0    0  0.45583520404E+02 -0.48643995377E+02  0.23162773321E+03  0.24103008611E+03  0.00000000000E+00 0.  1.
         11    1    1    2    0    0 -0.44126842462E+02 -0.31618396954E+02  0.24041374985E+03  0.24646637168E+03  0.00000000000E+00 0. -1.
</event>
<event>
 7    1  0.2530765E-009  0.2413573E+03  0.7561462E-02  0.1118892E+00
         -2   -1    0    0    0  501 -0.00000000000E+00  0.00000000000E+00  0.18501067914E+03  0.18501067914E+03  0.00000000000E+00 0.  1.
          2   -1    0    0  501    0  0.00000000000E+00 -0.00000000000E+00 -0.37083066802E+03  0.37083066802E+03  0.00000000000E+00 0. -1.
         25    2    1    2    0    0 -0.20871279610E+03  0.11392838482E+03 -0.93007528756E+02  0.28432125585E+03  0.12508983973E+03 0.  0.
          5    1    3    3  502    0 -0.19028246855E+03  0.95516222406E+02 -0.28782279983E+02  0.21488754878E+03  0.41800000000E+01 0. -1.
         -5    1    3    3    0  502 -0.18430327550E+02  0.18412162414E+02 -0.64225248774E+02  0.69433707077E+02  0.41800000000E+01 0.  1.
        -11    1    1    2    0    0  0.97671022128E+02 -0.82829983402E+02 -0.78848863135E+01  0.12830668785E+03  0.00000000000E+00 0.  1.
         11    1    1    2    0    0  0.11104177397E+03 -0.31098401419E+02 -0.84927573816E+02  0.14321340346E+03  0.00000000000E+00 0. -1.
</event>
<event>
 7    1  0.2530765E-009  0.1999569E+03  0.7561462E-02  0.1149775E+00
          1   -1    0    0  501    0  0.00000000000E+00  0.00000000000E+00  0.70332009720E+02  0.70332009720E+02  0.00000000000E+00 0. -1.
         -1   -1    0    0    0  501 -0.00000000000E+00 -0.00000000000E+00 -0.58510001578E+03  0.58510001578E+03  0.00000000000E+00 0.  1.
         25    2    1    2    0    0 -0.52129132222E+02 -0.16256076189E+03 -0.30854895159E+03  0.37415674944E+03  0.12508944759E+03 0.  0.
          5    1    3    3  502    0 -0.91545320275E+02 -0.10221667400E+03 -0.17587192547E+03  0.22310804709E+03  0.41800000000E+01 0. -1.
         -5    1    3    3    0  502  0.39416188053E+02 -0.60344087888E+02 -0.13267702611E+03  0.15104870235E+03  0.41800000000E+01 0. -1.
        -11    1    1    2    0    0  0.12916235646E+01  0.13012362156E+03 -0.12825628081E+03  0.18271151783E+03  0.00000000000E+00 0.  1.
         11    1    1    2    0    0  0.50837508657E+02  0.32437140324E+02 -0.77962773666E+02  0.98563758231E+02  0.00000000000E+00 0. -1.
</event>
<event>
 7    1  0.2530765E-009  0.2796067E+03  0.7561462E-02  0.1095904E+00
          2   -1    0    0  501    0  0.00000000000E+00  0.00000000000E+00  0.12280742401E+04  0.12280742401E+04  0.00000000000E+00 0. -1.
         -2   -1    0    0    0  501 -0.00000000000E+00 -0.00000000000E+00 -0.78559158369E+02  0.78559158369E+02  0.00000000000E+00 0.  1.
         25    2    1    2    0    0  0.55031295042E+02  0.26335716322E+03  0.81937897849E+03  0.87144594251E+03  0.12510268373E+03 0.  0.
          5    1    3    3  502    0  0.43045267450E+02  0.41332423406E+02  0.30874273159E+03  0.31448499326E+03  0.41800000000E+01 0.  1.
         -5    1    3    3    0  502  0.11986027593E+02  0.22202473981E+03  0.51063624690E+03  0.55696094925E+03  0.41800000000E+01 0.  1.
        -11    1    1    2    0    0  0.14195170987E+02 -0.74915333170E+02  0.13601084558E+03  0.15592549548E+03  0.00000000000E+00 0.  1.
         11    1    1    2    0    0 -0.69226466029E+02 -0.18844183005E+03  0.19412525765E+03  0.27926196047E+03  0.00000000000E+00 0. -1.
</event>
<event>
 7    1  0.2530765E-009  0.1135638E+03  0.7561462E-02  0.1254109E+00
         -3   -1    0    0    0  501 -0.00000000000E+00  0.00000000000E+00  0.52192795418E+02  0.52192795418E+02  0.00000000000E+00 0.  1.
          3   -1    0    0  501    0  0.00000000000E+00 -0.00000000000E+00 -0.34018112626E+03  0.34018112626E+03  0.00000000000E+00 0. -1.
         25    2    1    2    0    0 -0.42126747395E+02  0.63611784254E+02 -0.16371543966E+03  0.21970453157E+03  0.12508482748E+03 0.  0.
          5    1    3    3  502    0 -0.62088402684E+02 -0.12548360710E+02 -0.99466940409E+02  0.11799820227E+03  0.41800000000E+01 0. -1.
         -5    1    3    3    0  502  0.19961655289E+02  0.76160144964E+02 -0.64248499255E+02  0.10170632930E+03  0.41800000000E+01 0. -1.
        -11    1    1    2    0    0  0.46084800569E+02 -0.40493052432E+02 -0.13392403939E+03  0.14730629472E+03  0.00000000000E+00 0. -1.
         11    1    1    2    0    0 -0.39580531744E+01 -0.23118731822E+02  0.96511482088E+01  0.25363095389E+02  0.00000000000E+00 0.  1.
</event>
<event>
 7    1  0.2530765E-009  0.1475577E+03  0.7561462E-02  0.1203507E+00
         -4   -1    0    0    0  501 -0.00000000000E+00  0.00000000000E+00  0.16868498208E+03  0.16868498208E+03  0.00000000000E+00 0.  1.
          4   -1    0    0  501    0  0.00000000000E+00 -0.00000000000E+00 -0.13982067916E+03  0.13982067916E+03  0.00000000000E+00 0. -1.
         25    2    1    2    0    0  0.79146668590E+02  0.74077381329E+02  0.16697822112E+02  0.16636231605E+03  0.12508376939E+03 0.  0.
          5    1    3    3  502    0  0.39038481183E+02  0.10084269874E+03  0.36302567726E+02  0.11414290046E+03  0.41800000000E+01 0.  1.
         -5    1    3    3    0  502  0.40108187407E+02 -0.26765317415E+02 -0.19604745614E+02  0.52219415584E+02  0.41800000000E+01 0.  1.
        -11    1    1    2    0    0 -0.86196968302E+02 -0.87820145727E+02  0.95532875853E+00  0.12305774252E+03  0.00000000000E+00 0.  1.
         11    1    1    2    0    0  0.70502997120E+01  0.13742764399E+02  0.11211152051E+02  0.19085602680E+02  0.00000000000E+00 0. -1.
</event>
<event>
 7    1  0.2530765E-009  0.1187587E+03  0.7561462E-02  0.1245159E+00
         -1   -1    0    0    0  501 -0.00000000000E+00  0.00000000000E+00  0.68861685025E+02  0.68861685025E+02  0.00000000000E+00 0.  1.
          1   -1    0    0  501    0  0.00000000000E+00 -0.00000000000E+00 -0.35340340997E+03  0.35340340997E+03  0.00000000000E+00 0. -1.
         25    2    1    2    0    0  0.39522369309E+02 -0.93409017405E+02 -0.86509614106E+02  0.18280802268E+03  0.12509035780E+03 0.  0.
          5    1    3    3  502    0  0.33728029005E+02 -0.19521486513E+02 -0.99958153787E+02  0.10736746847E+03  0.41800000000E+01 0.  1.
         -5    1    3    3    0  502  0.57943403042E+01 -0.73887530892E+02  0.13448539680E+02  0.75440554216E+02  0.41800000000E+01 0.  1.
        -11    1    1    2    0    0  0.77205001873E+01  0.71674338116E+02 -0.66733855601E+02  0.98235555431E+02  0.00000000000E+00 0.  1.
         11    1    1    2    0    0 -0.47242869496E+02  0.21734679289E+02 -0.13129825524E+03  0.14122151688E+03  0.00000000000E+00 0. -1.
</event>
<event>
 7    1  0.2530765E-009  0.1242558E+03  0.7561462E-02  0.1236237E+00
         -1   -1    0    0    0  501 -0.00000000000E+00  0.00000000000E+00  0.16124500077E+03  0.16124500077E+03  0.00000000000E+00 0.  1.
          1   -1    0    0  501    0  0.00000000000E+00 -0.00000000000E+00 -0.13089390451E+03  0.13089390451E+03  0.00000000000E+00 0. -1.
         25    2    1    2    0    0 -0.58110113688E+02 -0.42113096860E+02  0.83130558568E+02  0.16647019792E+03  0.12510531079E+03 0.  0.
          5    1    3    3  502    0 -0.58574387878E+02  0.30266927193E+02  0.62850895074E+02  0.91185268594E+02  0.41800000000E+01 0. -1.
         -5    1    3    3    0  502  0.46427418965E+00 -0.72380024053E+02  0.20279663493E+02  0.75284929327E+02  0.41800000000E+01 0. -1.
        -11    1    1    2    0    0 -0.14363992007E+02  0.34133663485E+02 -0.25317387076E+01  0.37119280033E+02  0.00000000000E+00 0.  1.
         11    1    1    2    0    0  0.72474105694E+02  0.79794333750E+01 -0.50247723603E+02  0.88549427330E+02  0.00000000000E+00 0. -1.
</event>
<event>
 7    1  0.2530765E-009  0.2606459E+03  0.7561462E-02  0.1106756E+00
          2   -1    0    0  501    0  0.00000000000E+00  0.00000000000E+00  0.27750729922E+03  0.27750729922E+03  0.00000000000E+00 0. -1.
         -2   -1    0    0    0  501 -0.00000000000E+00 -0.00000000000E+00 -0.26732997666E+03  0.26732997666E+03  0.00000000000E+00 0.  1.
         25    2    1    2    0    0 -0.17059879247E+03 -0.17951763984E+03 -0.20400485160E+02  0.27819849245E+03  0.12509072869E+03 0.  0.
          5    1    3    3  502    0 -0.82120933428E+02 -0.14226997878E+03  0.33963610229E+02  0.16779628658E+03  0.41800000000E+01 0.  1.
         -5    1    3    3    0  502 -0.88477859045E+02 -0.37247661057E+02 -0.54364095389E+02  0.11040220588E+03  0.41800000000E+01 0.  1.
        -11    1    1    2    0    0  0.83671120109E+02  0.14487875394E+03  0.41651109404E+02  0.17241091786E+03  0.00000000000E+00 0.  1.
         11    1    1    2    0    0  0.86927672363E+02  0.34638885897E+02 -0.11073301691E+02  0.94227865565E+02  0.00000000000E+00 0. -1.
</event>
<event>
 7    1  0.2530765E-009  0.9451594E+02  0.7561462E-02  0.1292270E+00
         -2   -1    0    0    0  501 -0.00000000000E+00  0.00000000000E+00  0.58985695522E+02  0.58985695522E+02  0.00000000000E+00 0.  1.
          2   -1    0    0  501    0  0.00000000000E+00 -0.00000000000E+00 -0.27003760789E+03  0.27003760789E+03  0.00000000000E+00 0. -1.
         25    2    1    2    0    0  0.25780641940E+02 -0.52211049748E+02 -0.85925918268E+02  0.16254327801E+03  0.12508564499E+03 0.  0.
          5    1    3    3  502    0 -0.46729551453E+02 -0.25541466234E+02 -0.10401948280E+02  0.54421414943E+02  0.41800000000E+01 0. -1.
         -5    1    3    3    0  502  0.72510193393E+02 -0.26669583514E+02 -0.75523969987E+02  0.10812186307E+03  0.41800000000E+01 0. -1.
        -11    1    1    2    0    0 -0.16493280860E+02  0.34687584138E+02 -0.13772733198E+03  0.14298277792E+03  0.00000000000E+00 0. -1.
         11    1    1    2    0    0 -0.92873610802E+01  0.17523465610E+02  0.12601337880E+02  0.23497247481E+02  0.00000000000E+00 0.  1.
</event>
<event>
 7    1  0.2530765E-009  0.1704521E+03  0.7561462E-02  0.1177377E+00
         -1   -1    0    0    0  501 -0.00000000000E+00  0.00000000000E+00  0.13106688950E+03  0.13106688950E+03  0.00000000000E+00 0.  1.
          1   -1    0    0  501    0  0.00000000000E+00 -0.00000000000E+00 -0.25994838152E+03  0.25994838152E+03  0.00000000000E+00 0. -1.
         25    2    1    2    0    0 -0.31566067105E+02 -0.13258947103E+03 -0.35141750884E+01  0.18503057729E+03  0.12509029014E+03 0.  0.
          5    1    3    3  502    0 -0.62653754744E+02 -0.13883329090E+03  0.29458106039E+01  0.15240185644E+03  0.41800000000E+01 0. -1.
         -5    1    3    3    0  502  0.31087687639E+02  0.62438198725E+01 -0.64599856923E+01  0.32628720853E+02  0.41800000000E+01 0. -1.
        -11    1    1    2    0    0 -0.23866629284E+02  0.64335198960E+02 -0.26204339385E+02  0.73452714185E+02  0.00000000000E+00 0.  1.
         11    1    1    2    0    0  0.55432696389E+02  0.68254272069E+02 -0.99162977545E+02  0.13253197954E+03  0.00000000000E+00 0. -1.
</event>
<event>
 7    1  0.2530765E-009  0.1532385E+03  0.7561462E-02  0.1196549E+00
         -2   -1    0    0    0  501 -0.00000000000E+00  0.00000000000E+00  0.53240164815E+02  0.53240164815E+02  0.00000000000E+00 0.  1.
          2   -1    0    0  501    0  0.00000000000E+00 -0.00000000000E+00 -0.53000286508E+03  0.53000286508E+03  0.00000000000E+00 0. -1.
         25    2    1    2    0    0  0.36721284028E+02  0.11731854154E+03 -0.31968860519E+03  0.36463765198E+03  0.12509084725E+03 0.  0.
          5    1    3    3  502    0 -0.32235955518E+02  0.97492551353E+02 -0.20439178601E+03  0.22877375065E+03  0.41800000000E+01 0.  1.
         -5    1    3    3    0  502  0.68957239546E+02  0.19825990184E+02 -0.11529681918E+03  0.13586390133E+03  0.41800000000E+01 0.  1.
        -11    1    1    2    0    0  0.11667433015E+02 -0.25677625575E+02 -0.92024217207E+02  0.96249290911E+02  0.00000000000E+00 0. -1.
         11    1    1    2    0    0 -0.48388717043E+02 -0.91640915961E+02 -0.65049877866E+02  0.12235608700E+03  0.00000000000E+00 0.  1.
</event>
<event>
 7    1  0.2530765E-009  0.1051685E+03  0.7561462E-02  0.1269788E+00
         -2   -1    0    0    0  501 -0.00000000000E+00  0.00000000000E+00  0.10761656413E+03  0.10761656413E+03  0.00000000000E+00 0.  1.
          2   -1    0    0  501    0  0.00000000000E+00 -0.00000000000E+00 -0.15713410309E+03  0.15713410309E+03  0.00000000000E+00 0. -1.
         25    2    1    2    0    0  0.44154094525E+02  0.22118763696E+02  0.24471654003E+02  0.13669323647E+03  0.12508938914E+03 0.  0.
          5    1    3    3  502    0 -0.25129197567E+02  0.43188129212E+02  0.37989702406E+02  0.62907717842E+02  0.41800000000E+01 0. -1.
         -5    1    3    3    0  502  0.69283292091E+02 -0.21069365516E+02 -0.13518048403E+02  0.73785518626E+02  0.41800000000E+01 0. -1.
        -11    1    1    2    0    0 -0.37363923387E+02  0.21773080407E+02 -0.71516414053E+02  0.83574680857E+02  0.00000000000E+00 0. -1.
         11    1    1    2    0    0 -0.67901711381E+01 -0.43891844103E+02 -0.24727789029E+01  0.44482749897E+02  0.00000000000E+00 0.  1.
</event>
<event>
 7    1  0.2530765E-009  0.7754048E+02  0.7561462E-02  0.1336180E+00
          1   -1    0    0  501    0  0.00000000000E+00  0.00000000000E+00  0.24943484939E+03  0.24943484939E+03  0.00000000000E+00 0. -1.
         -1   -1    0    0    0  501 -0.00000000000E+00 -0.00000000000E+00 -0.52079485907E+02  0.52079485907E+02  0.00000000000E+00 0.  1.
         25    2    1    2    0    0 -0.76646971222E+01  0.26354431587E+01  0.15995450241E+03  0.20321904655E+03  0.12508734907E+03 0.  0.
          5    1    3    3  502    0 -0.20370634362E+02  0.29437083828E+02 -0.42625137230E+01  0.36292507104E+02  0.41800000000E+01 0.  1.
         -5    1    3    3    0  502  0.12705937240E+02 -0.26801640670E+02  0.16421701613E+03  0.16692653945E+03  0.41800000000E+01 0.  1.
        -11    1    1    2    0    0  0.15371947943E+02 -0.44208199327E+02  0.98492498631E+01  0.47829587016E+02  0.00000000000E+00 0.  1.
         11    1    1    2    0    0 -0.77072508209E+01  0.41572756168E+02  0.27551611205E+02  0.50465701725E+02  0.00000000000E+00 0. -1.
</event>
<event>
 7    1  0.2601889E-009  0.1001234E+03  0.7561462E-02  0.1280037E+00
          2   -1    0    0  501    0  0.00000000000E+00  0.00000000000E+00  0.93558544620E+03  0.93558544620E+03  0.00000000000E+00 0. -1.
         -2   -1    0    0    0  501 -0.00000000000E+00 -0.00000000000E+00 -0.17744438725E+02  0.17744438725E+02  0.00000000000E+00 0.  1.
         25    2    1    2    0    0 -0.48797580089E+02 -0.92389958103E+01  0.69198362703E+03  0.70495041852E+03  0.12508872698E+03 0.  0.
          5    1    3    3  502    0 -0.65669703101E+01  0.35671767715E+02  0.53499925057E+03  0.53624366721E+03  0.41800000000E+01 0.  1.
         -5    1    3    3    0  502 -0.42230609779E+02 -0.44910763525E+02  0.15698437646E+03  0.16870675130E+03  0.41800000000E+01 0.  1.
        -11    1    1    2    0    0  0.37254476672E+01  0.44540182887E+02  0.79164862786E+02  0.90910848372E+02  0.00000000000E+00 0. -1.
         11    1    1    2    0    0  0.45072132422E+02 -0.35301187077E+02  0.14669251766E+03  0.15746861804E+03  0.00000000000E+00 0.  1.
</event>
<event>
 7    1  0.2530765E-009  0.1402425E+03  0.7561462E-02  0.1213003E+00
         -2   -1    0    0    0  501 -0.00000000000E+00  0.00000000000E+00  0.14024132853E+03  0.14024132853E+03  0.00000000000E+00 0.  1.
          2   -1    0    0  501    0  0.00000000000E+00 -0.00000000000E+00 -0.22272773922E+03  0.22272773922E+03  0.00000000000E+00 0. -1.
         25    2    1    2    0    0 -0.10784923838E+03 -0.83263963831E+02 -0.66843140297E+02  0.19666942895E+03  0.12508602235E+03 0.  0.
          5    1    3    3  502    0 -0.72991556861E+02 -0.69594579455E+02 -0.10316886299E+03  0.14433454040E+03  0.41800000000E+01 0. -1.
         -5    1    3    3    0  502 -0.34857681516E+02 -0.13669384376E+02  0.36325722693E+02  0.52334888545E+02  0.41800000000E+01 0. -1.
        -11    1    1    2    0    0  0.81107100426E+02  0.38623496497E+02  0.32377667679E+02  0.95490573281E+02  0.00000000000E+00 0.  1.
         11    1    1    2    0    0  0.26742137952E+02  0.44640467334E+02 -0.48020938077E+02  0.70809065520E+02  0.00000000000E+00 0. -1.
</event>
<event>
 7    1  0.2530765E-009  0.1390110E+03  0.7561462E-02  0.1214666E+00
          2   -1    0    0  501    0  0.00000000000E+00  0.00000000000E+00  0.94960645194E+02  0.94960645194E+02  0.00000000000E+00 0. -1.
         -2   -1    0    0    0  501 -0.00000000000E+00 -0.00000000000E+00 -0.33707329243E+03  0.33707329243E+03  0.00000000000E+00 0.  1.
         25    2    1    2    0    0  0.11985269852E+03 -0.24596506291E+02 -0.21469775288E+03  0.27696750718E+03  0.12508484113E+03 0.  0.
          5    1    3    3  502    0  0.61681560620E+02  0.72495611567E+00 -0.10010154277E+02  0.62632388351E+02  0.41800000000E+01 0. -1.
         -5    1    3    3    0  502  0.58171137898E+02 -0.25321462406E+02 -0.20468759861E+03  0.21433511883E+03  0.41800000000E+01 0. -1.
        -11    1    1    2    0    0  0.13362841488E+02  0.13407154476E+02 -0.39834388065E+01  0.19343864880E+02  0.00000000000E+00 0. -1.
         11    1    1    2    0    0 -0.13321554001E+03  0.11189351815E+02 -0.23431455548E+02  0.13572256556E+03  0.00000000000E+00 0.  1.
</event>
<event>
 7    1  0.3204562E-009  0.1323292E+03  0.7561462E-02  0.1224040E+00
          2   -1    0    0  501    0  0.00000000000E+00  0.00000000000E+00  0.99834680363E+03  0.99834680363E+03  0.00000000000E+00 0.  1.
         -2   -1    0    0    0  501 -0.00000000000E+00 -0.00000000000E+00 -0.22013146137E+02  0.22013146137E+02  0.00000000000E+00 0. -1.
         25    2    1    2    0    0  0.97902987803E+02 -0.10462724921E+02  0.60378453686E+03  0.62441749736E+03  0.12508789080E+03 0.  0.
          5    1    3    3  502    0 -0.20839986350E+02 -0.19255806594E+02  0.23792977071E+03  0.23965212144E+03  0.41800000000E+01 0.  1.
         -5    1    3    3    0  502  0.11874297415E+03  0.87930816739E+01  0.36585476615E+03  0.38476537593E+03  0.41800000000E+01 0.  1.
        -11    1    1    2    0    0 -0.25621487818E+02 -0.25460323772E+02  0.40694041530E+02  0.54412257265E+02  0.00000000000E+00 0. -1.
         11    1    1    2    0    0 -0.72281499984E+02  0.35923048692E+02  0.33185507910E+03  0.34153019514E+03  0.00000000000E+00 0.  1.
</event>
<event>
 7    1  0.2530765E-009  0.1964278E+03  0.7561462E-02  0.1152788E+00
          2   -1    0    0  501    0  0.00000000000E+00  0.00000000000E+00  0.82546840675E+03  0.82546840675E+03  0.00000000000E+00 0. -1.
         -2   -1    0    0    0  501 -0.00000000000E+00 -0.00000000000E+00 -0.53629942639E+02  0.53629942639E+02  0.00000000000E+00 0.  1.
         25    2    1    2    0    0  0.12921268562E+03  0.12020381599E+03  0.32666733542E+03  0.39179462984E+03  0.12508640389E+03 0.  0.
          5    1    3    3  502    0  0.12219449673E+02  0.93205928354E+02  0.17073737954E+03  0.19494969916E+03  0.41800000000E+01 0. -1.
         -5    1    3    3    0  502  0.11699323594E+03  0.26997887641E+02  0.15592995588E+03  0.19684493068E+03  0.41800000000E+01 0. -1.
        -11    1    1    2    0    0 -0.56385539749E+02 -0.71274094276E+02  0.33137591929E+03  0.34361217309E+03  0.00000000000E+00 0.  1.
         11    1    1    2    0    0 -0.72827145866E+02 -0.48929721718E+02  0.11379520939E+03  0.14369154646E+03  0.00000000000E+00 0. -1.
</event>
<event>
 7    1  0.2530765E-009  0.1055021E+03  0.7561462E-02  0.1269133E+00
         -1   -1    0    0    0  501 -0.00000000000E+00  0.00000000000E+00  0.13249183680E+03  0.13249183680E+03  0.00000000000E+00 0.  1.
          1   -1    0    0  501    0  0.00000000000E+00 -0.00000000000E+00 -0.94011341481E+02  0.94011341481E+02  0.00000000000E+00 0. -1.
         25    2    1    2    0    0 -0.18267577883E+01  0.46865102472E+02  0.29401920540E+02  0.13678963857E+03  0.12508899798E+03 0.  0.
          5    1    3    3  502    0  0.70776092336E+01 -0.37235412277E+02 -0.15244564751E+02  0.41066259074E+02  0.41800000000E+01 0.  1.
         -5    1    3    3    0  502 -0.89043670219E+01  0.84100514749E+02  0.44646485292E+02  0.95723379495E+02  0.41800000000E+01 0.  1.
        -11    1    1    2    0    0  0.25753116895E+02 -0.56742728852E+02  0.12646342756E+02  0.63583726633E+02  0.00000000000E+00 0. -1.
         11    1    1    2    0    0 -0.23926359106E+02  0.98776263800E+01 -0.35677679812E+01  0.26129813075E+02  0.00000000000E+00 0.  1.
</event>
<event>
 7    1  0.2530765E-009  0.1693611E+03  0.7561462E-02  0.1178516E+00
          2   -1    0    0  501    0  0.00000000000E+00  0.00000000000E+00  0.43265286826E+03  0.43265286826E+03  0.00000000000E+00 0. -1.
         -2   -1    0    0    0  501 -0.00000000000E+00 -0.00000000000E+00 -0.99879663565E+02  0.99879663565E+02  0.00000000000E+00 0.  1.
         25    2    1    2    0    0 -0.23424932912E+02  0.15374362902E+03  0.64259365997E+02  0.20967514009E+03  0.12509423370E+03 0.  0.
          5    1    3    3  502    0 -0.10608623127E+02  0.16146921523E+03  0.20408280962E+02  0.16315275260E+03  0.41800000000E+01 0.  1.
         -5    1    3    3    0  502 -0.12816309785E+02 -0.77255862016E+01  0.43851085035E+02  0.46522387486E+02  0.41800000000E+01 0.  1.
        -11    1    1    2    0    0  0.32366083657E+02 -0.70309971752E+02  0.20024165284E+03  0.21468063497E+03  0.00000000000E+00 0. -1.
         11    1    1    2    0    0 -0.89411507453E+01 -0.83433657272E+02  0.68272185855E+02  0.10817675676E+03  0.00000000000E+00 0.  1.
</event>
<event>
 7    1  0.2530765E-009  0.1474517E+03  0.7561462E-02  0.1203640E+00
          2   -1    0    0  501    0  0.00000000000E+00  0.00000000000E+00  0.79809117312E+02  0.79809117312E+02  0.00000000000E+00 0. -1.
         -2   -1    0    0    0  501 -0.00000000000E+00 -0.00000000000E+00 -0.28664036846E+03  0.28664036846E+03  0.00000000000E+00 0.  1.
         25    2    1    2    0    0  0.86014443242E+02 -0.56753284966E+02 -0.87442502948E+02  0.18415486388E+03  0.12508957897E+03 0.  0.
          5    1    3    3  502    0  0.97247374736E+02  0.65685331141E+01 -0.55217428213E+02  0.11210100044E+03  0.41800000000E+01 0.  1.
         -5    1    3    3    0  502 -0.11232931494E+02 -0.63321818080E+02 -0.32225074735E+02  0.72053863440E+02  0.41800000000E+01 0.  1.
        -11    1    1    2    0    0 -0.61245267518E+02 -0.96732876510E+01 -0.79926363589E+02  0.10115719887E+03  0.00000000000E+00 0.  1.
         11    1    1    2    0    0 -0.24769175724E+02  0.66426572617E+02 -0.39462384611E+02  0.81137423023E+02  0.00000000000E+00 0. -1.
</event>
<event>
 7    1  0.2530765E-009  0.1186822E+03  0.7561462E-02  0.1245287E+00
         -1   -1    0    0    0  501 -0.00000000000E+00  0.00000000000E+00  0.75023090398E+02  0.75023090398E+02  0.00000000000E+00 0.  1.
          1   -1    0    0  501    0  0.00000000000E+00 -0.00000000000E+00 -0.23339338158E+03  0.23339338158E+03  0.00000000000E+00 0. -1.
         25    2    1    2    0    0 -0.25775362577E+02  0.55435844591E+02 -0.34764195692E+02  0.14350584420E+03  0.12509146988E+03 0.  0.
          5    1    3    3  502    0 -0.71358390943E+02  0.49529610540E+02 -0.42359020066E+02  0.96731387146E+02  0.41800000000E+01 0. -1.
         -5    1    3    3    0  502  0.45583028367E+02  0.59062340512E+01  0.75948243741E+01  0.46774457058E+02  0.41800000000E+01 0. -1.
        -11    1    1    2    0    0  0.31709889998E+02  0.13925050412E+02 -0.66071095480E+02  0.74597679659E+02  0.00000000000E+00 0. -1.
         11    1    1    2    0    0 -0.59345274210E+01 -0.69360895003E+02 -0.57535000011E+02  0.90312948117E+02  0.00000000000E+00 0.  1.
</event>
<event>
 7    1  0.2996158E-009  0.2263983E+03  0.7561462E-02  0.1129201E+00
         -1   -1    0    0    0  501 -0.00000000000E+00  0.00000000000E+00  0.56902917239E+02  0.56902917239E+02  0.00000000000E+00 0.  1.
          1   -1    0    0  501    0  0.00000000000E+00 -0.00000000000E+00 -0.13606493613E+04  0.13606493613E+04  0.00000000000E+00 0. -1.
         25    2    1    2    0    0  0.12959785784E+03  0.17143988929E+03 -0.10203435212E+04  0.10502075502E+04  0.12509099451E+03 0.  0.
          5    1    3    3  502    0  0.14330422241E+03  0.13086383936E+03 -0.68026838458E+03  0.70742066133E+03  0.41800000000E+01 0.  1.
         -5    1    3    3    0  502 -0.13706364562E+02  0.40576049931E+02 -0.34007513662E+03  0.34278688891E+03  0.41800000000E+01 0.  1.
        -11    1    1    2    0    0 -0.84871590602E+02 -0.97757381195E+02 -0.23548842157E+03  0.26872753704E+03  0.00000000000E+00 0. -1.
         11    1    1    2    0    0 -0.44726267242E+02 -0.73682508098E+02 -0.47914501300E+02  0.98617191279E+02  0.00000000000E+00 0.  1.
</event>
<event>
 7    1  0.2530765E-009  0.8537772E+02  0.7561462E-02  0.1314448E+00
         -1   -1    0    0    0  501 -0.00000000000E+00  0.00000000000E+00  0.28265169427E+02  0.28265169427E+02  0.00000000000E+00 0.  1.
          1   -1    0    0  501    0  0.00000000000E+00 -0.00000000000E+00 -0.42006962151E+03  0.42006962151E+03  0.00000000000E+00 0. -1.
         25    2    1    2    0    0 -0.77147310400E+01 -0.17101580997E+02 -0.19646237051E+03  0.23366097752E+03  0.12509199912E+03 0.  0.
          5    1    3    3  502    0 -0.40388800129E+02  0.25435604035E+02 -0.25178139159E+02  0.54126114030E+02  0.41800000000E+01 0. -1.
         -5    1    3    3    0  502  0.32674069089E+02 -0.42537185032E+02 -0.17128423135E+03  0.17953486349E+03  0.41800000000E+01 0. -1.
        -11    1    1    2    0    0 -0.27740147691E+02  0.18858270615E+02 -0.16375979633E+03  0.16715986677E+03  0.00000000000E+00 0. -1.
         11    1    1    2    0    0  0.35454878731E+02 -0.17566896181E+01 -0.31582285246E+02  0.47513946643E+02  0.00000000000E+00 0.  1.
</event>
<event>
 7    1  0.2530765E-009  0.1380364E+03  0.7561462E-02  0.1215996E+00
          2   -1    0    0  501    0  0.00000000000E+00  0.00000000000E+00  0.17095880690E+04  0.17095880690E+04  0.00000000000E+00 0. -1.
         -2   -1    0    0    0  501 -0.00000000000E+00 -0.00000000000E+00 -0.13907921250E+02  0.13907921250E+02  0.00000000000E+00 0.  1.
         25    2    1    2    0    0  0.48005687735E+02 -0.92899916877E+02  0.11479646806E+04  0.11594855814E+04  0.12509582354E+03 0.  0.
          5    1    3    3  502    0  0.10052917024E+01  0.24769930813E+02  0.76002216291E+02  0.80052291442E+02  0.41800000000E+01 0.  1.
         -5    1    3    3    0  502  0.47000396032E+02 -0.11766984769E+03  0.10719624643E+04  0.10794332900E+04  0.41800000000E+01 0.  1.
        -11    1    1    2    0    0  0.15532275851E+02  0.34582959768E+02  0.81510914234E+02  0.89895838828E+02  0.00000000000E+00 0.  1.
         11    1    1    2    0    0 -0.63537963586E+02  0.58316957110E+02  0.46620455288E+03  0.47411456994E+03  0.00000000000E+00 0. -1.
</event>
<event>
 7    1  0.2530765E-009  0.1566653E+03  0.7561462E-02  0.1192514E+00
         -1   -1    0    0    0  501 -0.00000000000E+00  0.00000000000E+00  0.36564027315E+02  0.36564027315E+02  0.00000000000E+00 0.  1.
          1   -1    0    0  501    0  0.00000000000E+00 -0.00000000000E+00 -0.77940673409E+03  0.77940673409E+03  0.00000000000E+00 0. -1.
         25    2    1    2    0    0 -0.51908832928E+02  0.11718739658E+03 -0.42487766087E+03  0.46108098289E+03  0.12508890126E+03 0.  0.
          5    1    3    3  502    0  0.30071033353E+02  0.59049658411E+02 -0.25641667616E+03  0.26487376884E+03  0.41800000000E+01 0.  1.
         -5    1    3    3    0  502 -0.81979866281E+02  0.58137738172E+02 -0.16846098471E+03  0.19620721405E+03  0.41800000000E+01 0.  1.
        -11    1    1    2    0    0 -0.17690153070E+02 -0.29436232121E+02 -0.28898804012E+02  0.44884007736E+02  0.00000000000E+00 0.  1.
         11    1    1    2    0    0  0.69598985998E+02 -0.87751164463E+02 -0.28906624189E+03  0.31000577078E+03  0.00000000000E+00 0. -1.
</event>
<event>
 7    1  0.2530765E-009  0.1410282E+03  0.7561462E-02  0.1211952E+00
          4   -1    0    0  501    0  0.00000000000E+00  0.00000000000E+00  0.14146743785E+03  0.14146743785E+03  0.00000000000E+00 0. -1.
         -4   -1    0    0    0  501 -0.00000000000E+00 -0.00000000000E+00 -0.21091585398E+03  0.21091585398E+03  0.00000000000E+00 0.  1.
         25    2    1    2    0    0 -0.75142430502E+02 -0.11252222964E+03 -0.30568070801E+02  0.18678719770E+03  0.12508962086E+03 0.  0.
          5    1    3    3  502    0 -0.19415041240E+02 -0.25761886351E+02 -0.69302630951E+02  0.76556813357E+02  0.41800000000E+01 0. -1.
         -5    1    3    3    0  502 -0.55727389262E+02 -0.86760343288E+02  0.38734560149E+02  0.11023038434E+03  0.41800000000E+01 0. -1.
        -11    1    1    2    0    0  0.55838792127E+02  0.33797367663E+02  0.16627136552E+02  0.67354988212E+02  0.00000000000E+00 0. -1.
         11    1    1    2    0    0  0.19303638375E+02  0.78724861976E+02 -0.55507481885E+02  0.98241105922E+02  0.00000000000E+00 0.  1.
</event>
<event>
 7    1  0.2530765E-009  0.2723655E+03  0.7561462E-02  0.1099933E+00
         -1   -1    0    0    0  501 -0.00000000000E+00  0.00000000000E+00  0.55015733386E+02  0.55015733386E+02  0.00000000000E+00 0.  1.
          1   -1    0    0  501    0  0.00000000000E+00 -0.00000000000E+00 -0.14441442308E+04  0.14441442308E+04  0.00000000000E+00 0. -1.
         25    2    1    2    0    0 -0.24841345098E+03  0.12417338944E+02 -0.89077061854E+03  0.93326746687E+03  0.12510969960E+03 0.  0.
          5    1    3    3  502    0 -0.25797736697E+03  0.26234656459E+02 -0.80422427358E+03  0.84500575956E+03  0.41800000000E+01 0.  1.
         -5    1    3    3    0  502  0.95639159902E+01 -0.13817317516E+02 -0.86546344956E+02  0.88261707312E+02  0.41800000000E+01 0.  1.
        -11    1    1    2    0    0  0.34110954119E+02 -0.39359121987E+02 -0.94124838838E+02  0.10757408127E+03  0.00000000000E+00 0.  1.
         11    1    1    2    0    0  0.21430249686E+03  0.26941783044E+02 -0.40423304009E+03  0.45831841610E+03  0.00000000000E+00 0. -1.
</event>
<event>
 7    1  0.2530765E-009  0.1025482E+03  0.7561462E-02  0.1275027E+00
         -2   -1    0    0    0  501 -0.00000000000E+00  0.00000000000E+00  0.42809431242E+02  0.42809431242E+02  0.00000000000E+00 0.  1.
          2   -1    0    0  501    0  0.00000000000E+00 -0.00000000000E+00 -0.29676697487E+03  0.29676697487E+03  0.00000000000E+00 0. -1.
         25    2    1    2    0    0  0.59549278565E+01 -0.76850889576E+01 -0.20078217587E+03  0.23676264806E+03  0.12509415499E+03 0.  0.
          5    1    3    3  502    0  0.20172851296E+01 -0.62537832620E+02 -0.65546797082E+02  0.90713311899E+02  0.41800000000E+01 0. -1.
         -5    1    3    3    0  502  0.39376427268E+01  0.54852743663E+02 -0.13523537879E+03  0.14604933616E+03  0.41800000000E+01 0. -1.
        -11    1    1    2    0    0  0.29532186499E+01 -0.39300572666E+02 -0.30781524840E+02  0.50007587262E+02  0.00000000000E+00 0.  1.
         11    1    1    2    0    0 -0.89081465064E+01  0.46985661624E+02 -0.22393842914E+02  0.52806170784E+02  0.00000000000E+00 0. -1.
</event>
<event>
 7    1  0.2530765E-009  0.1478638E+03  0.7561462E-02  0.1203123E+00
         -2   -1    0    0    0  501 -0.00000000000E+00  0.00000000000E+00  0.34835619313E+02  0.34835619313E+02  0.00000000000E+00 0. -1.
          2   -1    0    0  501    0  0.00000000000E+00 -0.00000000000E+00 -0.86495435766E+03  0.86495435766E+03  0.00000000000E+00 0.  1.
         25    2    1    2    0    0  0.64879745832E+02 -0.11983620811E+03 -0.50239358700E+03  0.53536505064E+03  0.12508526290E+03 0.  0.
          5    1    3    3  502    0  0.60004976733E+02 -0.85498426486E+02 -0.48537914015E+03  0.49650877158E+03  0.41800000000E+01 0. -1.
         -5    1    3    3    0  502  0.48747690987E+01 -0.34337781627E+02 -0.17014446852E+02  0.38856279062E+02  0.41800000000E+01 0. -1.
        -11    1    1    2    0    0 -0.81971076667E+02  0.10746207118E+03 -0.25376284496E+03  0.28751162695E+03  0.00000000000E+00 0. -1.
         11    1    1    2    0    0  0.17091330835E+02  0.12374136929E+02 -0.73962306391E+02  0.76913299378E+02  0.00000000000E+00 0.  1.
</event>
<event>
 7    1  0.2530765E-009  0.1011726E+03  0.7561462E-02  0.1277849E+00
         -1   -1    0    0    0  501 -0.00000000000E+00  0.00000000000E+00  0.69306065245E+02  0.69306065245E+02  0.00000000000E+00 0.  1.
          1   -1    0    0  501    0  0.00000000000E+00 -0.00000000000E+00 -0.21549102330E+03  0.21549102330E+03  0.00000000000E+00 0. -1.
         25    2    1    2    0    0  0.38753486157E+02  0.41333058513E+02 -0.77050738427E+02  0.15746404700E+03  0.12509138815E+03 0.  0.
          5    1    3    3  502    0  0.25690764044E+02  0.76512331649E+02 -0.86665128985E+02  0.11850092503E+03  0.41800000000E+01 0. -1.
         -5    1    3    3    0  502  0.13062722113E+02 -0.35179273137E+02  0.96143905582E+01  0.38963121965E+02  0.41800000000E+01 0. -1.
        -11    1    1    2    0    0  0.79581668262E+01 -0.35865519154E+02  0.74264154195E+01  0.37480922206E+02  0.00000000000E+00 0.  1.
         11    1    1    2    0    0 -0.46711652983E+02 -0.54675393587E+01 -0.76560635045E+02  0.89852119338E+02  0.00000000000E+00 0. -1.
</event>
<event>
 7    1  0.2530765E-009  0.1561386E+03  0.7561462E-02  0.1193126E+00
          2   -1    0    0  501    0  0.00000000000E+00  0.00000000000E+00  0.56261619765E+03  0.56261619765E+03  0.00000000000E+00 0. -1.
         -2   -1    0    0    0  501 -0.00000000000E+00 -0.00000000000E+00 -0.57315137993E+02  0.57315137993E+02  0.00000000000E+00 0.  1.
         25    2    1    2    0    0 -0.67338509565E+02  0.12534582887E+03  0.24324052785E+03  0.30832049445E+03  0.12509804645E+03 0.  0.
          5    1    3    3  502    0 -0.63750589110E+02  0.13930540342E+03  0.15198891859E+03  0.21584308376E+03  0.41800000000E+01 0.  1.
         -5    1    3    3    0  502 -0.35879204545E+01 -0.13959574554E+02  0.91251609264E+02  0.92477410691E+02  0.41800000000E+01 0.  1.
        -11    1    1    2    0    0  0.53587175492E+02 -0.77439250019E+02  0.82294048776E+02  0.12506291730E+03  0.00000000000E+00 0.  1.
         11    1    1    2    0    0  0.13751334073E+02 -0.47906578848E+02  0.17976648303E+03  0.18654792389E+03  0.00000000000E+00 0. -1.
</event>
<event>
 7    1  0.2626167E-009  0.2481342E+03  0.7561462E-02  0.1114490E+00
          2   -1    0    0  501    0  0.00000000000E+00  0.00000000000E+00  0.55751910501E+03  0.55751910501E+03  0.00000000000E+00 0. -1.
         -2   -1    0    0    0  501 -0.00000000000E+00 -0.00000000000E+00 -0.12083347569E+03  0.12083347569E+03  0.00000000000E+00 0.  1.
         25    2    1    2    0    0 -0.20936305417E+03 -0.93293928172E+02  0.15405092790E+03  0.30317525152E+03  0.12508756637E+03 0.  0.
          5    1    3    3  502    0 -0.71535817495E+02  0.28293499254E+02  0.39646078080E+02  0.86643979548E+02  0.41800000000E+01 0.  1.
         -5    1    3    3    0  502 -0.13782723668E+03 -0.12158742743E+03  0.11440484982E+03  0.21653127197E+03  0.41800000000E+01 0.  1.
        -11    1    1    2    0    0  0.10154269110E+03  0.74498717524E+02  0.94230935125E+02  0.15729096021E+03  0.00000000000E+00 0.  1.
         11    1    1    2    0    0  0.10782036307E+03  0.18795210648E+02  0.18840376629E+03  0.21788636898E+03  0.00000000000E+00 0. -1.
</event>
<event>
 7    1  0.2530765E-009  0.1752045E+03  0.7561462E-02  0.1172527E+00
         -2   -1    0    0    0  501 -0.00000000000E+00  0.00000000000E+00  0.14701289347E+03  0.14701289347E+03  0.00000000000E+00 0.  1.
          2   -1    0    0  501    0  0.00000000000E+00 -0.00000000000E+00 -0.26045090062E+03  0.26045090062E+03  0.00000000000E+00 0. -1.
         25    2    1    2    0    0  0.15561620430E+03  0.27895064698E+02 -0.20938468939E+02  0.20268581489E+03  0.12509429403E+03 0.  0.
          5    1    3    3  502    0  0.16410980112E+03  0.40521156301E+02 -0.44019246649E+02  0.17472594944E+03  0.41800000000E+01 0. -1.
         -5    1    3    3    0  502 -0.84935968215E+01 -0.12626091603E+02  0.23080777710E+02  0.27959865447E+02  0.41800000000E+01 0. -1.
        -11    1    1    2    0    0 -0.10163206441E+03 -0.41640165974E+02 -0.17289112788E+02  0.11118405173E+03  0.00000000000E+00 0.  1.
         11    1    1    2    0    0 -0.53984139895E+02  0.13745101275E+02 -0.75210425420E+02  0.93593927480E+02  0.00000000000E+00 0. -1.
</event>
<event>
 7    1  0.2530765E-009  0.1137230E+03  0.7561462E-02  0.1253827E+00
         -1   -1    0    0    0  501 -0.00000000000E+00  0.00000000000E+00  0.57339425713E+03  0.57339425713E+03  0.00000000000E+00 0. -1.
          1   -1    0    0  501    0  0.00000000000E+00 -0.00000000000E+00 -0.38087969290E+02  0.38087969290E+02  0.00000000000E+00 0.  1.
         25    2    1    2    0    0  0.39568447992E+02  0.31718663902E+02  0.11360030879E+03  0.17642042738E+03  0.12508957321E+03 0.  0.
          5    1    3    3  502    0  0.76680518546E+02  0.36103125613E+02  0.10959149155E+03  0.13860413062E+03  0.41800000000E+01 0.  1.
         -5    1    3    3    0  502 -0.37112070554E+02 -0.43844617106E+01  0.40088172335E+01  0.37816296764E+02  0.41800000000E+01 0.  1.
        -11    1    1    2    0    0  0.30130779673E+02 -0.13004417303E+02  0.17352446572E+03  0.17660045005E+03  0.00000000000E+00 0. -1.
         11    1    1    2    0    0 -0.69699227664E+02 -0.18714246599E+02  0.24818151333E+03  0.25846134899E+03  0.00000000000E+00 0.  1.
</event>
<event>
 7    1  0.2530765E-009  0.8751551E+02  0.7561462E-02  0.1308982E+00
          2   -1    0    0  501    0  0.00000000000E+00  0.00000000000E+00  0.19464962431E+03  0.19464962431E+03  0.00000000000E+00 0. -1.
         -2   -1    0    0    0  501 -0.00000000000E+00 -0.00000000000E+00 -0.75509842003E+02  0.75509842003E+02  0.00000000000E+00 0.  1.
         25    2    1    2    0    0  0.22103363043E+02 -0.89462262232E+01  0.13517859384E+02  0.12805464361E+03  0.12508663240E+03 0.  0.
          5    1    3    3  502    0 -0.33068523461E+02 -0.23447107962E+02 -0.34482730789E+02  0.53383754442E+02  0.41800000000E+01 0. -1.
         -5    1    3    3    0  502  0.55171886504E+02  0.14500881739E+02  0.48000590174E+02  0.74670889164E+02  0.41800000000E+01 0. -1.
        -11    1    1    2    0    0 -0.30152703244E+01 -0.31874461553E+02  0.88130686589E+02  0.93766150999E+02  0.00000000000E+00 0. -1.
         11    1    1    2    0    0 -0.19088092718E+02  0.40820687777E+02  0.17491236336E+02  0.48338671710E+02  0.00000000000E+00 0.  1.
</event>
<event>
 7    1  0.2530765E-009  0.1089210E+03  0.7561462E-02  0.1262581E+00
          1   -1    0    0  501    0  0.00000000000E+00  0.00000000000E+00  0.42793539219E+03  0.42793539219E+03  0.00000000000E+00 0. -1.
         -1   -1    0    0    0  501 -0.00000000000E+00 -0.00000000000E+00 -0.56701243629E+02  0.56701243629E+02  0.00000000000E+00 0.  1.
         25    2    1    2    0    0 -0.42182447896E+02 -0.87523067702E+02  0.13410220737E+03  0.20753357228E+03  0.12508850991E+03 0.  0.
          5    1    3    3  502    0  0.58716983542E+01 -0.68311406168E+02  0.55762776413E+01  0.68916560612E+02  0.41800000000E+01 0.  1.
         -5    1    3    3    0  502 -0.48054146250E+02 -0.19211661534E+02  0.12852592973E+03  0.13861701167E+03  0.41800000000E+01 0.  1.
        -11    1    1    2    0    0  0.22569296744E+02  0.51111339786E+02  0.22800356856E+03  0.23474958890E+03  0.00000000000E+00 0. -1.
         11    1    1    2    0    0  0.19613151151E+02  0.36411727916E+02  0.91283726344E+01  0.42353474650E+02  0.00000000000E+00 0.  1.
</event>
<event>
 7    1  0.2530765E-009  0.2426559E+03  0.7561462E-02  0.1118036E+00
         -1   -1    0    0    0  501 -0.00000000000E+00  0.00000000000E+00  0.52281100044E+03  0.52281100044E+03  0.00000000000E+00 0.  1.
          1   -1    0    0  501    0  0.00000000000E+00 -0.00000000000E+00 -0.11768745067E+03  0.11768745067E+03  0.00000000000E+00 0. -1.
         25    2    1    2    0    0 -0.21708399199E+03 -0.30075727316E+02  0.15728841351E+03  0.29735156379E+03  0.12509315933E+03 0.  0.
          5    1    3    3  502    0 -0.12800139473E+03 -0.78413123333E+02  0.82627051010E+02  0.17139917422E+03  0.41800000000E+01 0.  1.
         -5    1    3    3    0  502 -0.89082597258E+02  0.48337396018E+02  0.74661362500E+02  0.12595238957E+03  0.41800000000E+01 0.  1.
        -11    1    1    2    0    0  0.75685165226E+02  0.50289191747E+02  0.12636107132E+03  0.15564179190E+03  0.00000000000E+00 0.  1.
         11    1    1    2    0    0  0.14139882677E+03 -0.20213464432E+02  0.12147406493E+03  0.18750509542E+03  0.00000000000E+00 0. -1.
</event>
<event>
 7    1  0.2530765E-009  0.9113667E+02  0.7561462E-02  0.1300122E+00
         -4   -1    0    0    0  501 -0.00000000000E+00  0.00000000000E+00  0.13195970655E+03  0.13195970655E+03  0.00000000000E+00 0.  1.
          4   -1    0    0  501    0  0.00000000000E+00 -0.00000000000E+00 -0.11913888915E+03  0.11913888915E+03  0.00000000000E+00 0. -1.
         25    2    1    2    0    0 -0.58122804403E+02 -0.20911241860E+02 -0.97214506383E+01  0.13984819995E+03  0.12508985570E+03 0.  0.
          5    1    3    3  502    0 -0.36035453923E+02 -0.32163089692E+02 -0.63848019943E+02  0.80168948655E+02  0.41800000000E+01 0. -1.
         -5    1    3    3    0  502 -0.22087350480E+02  0.11251847832E+02  0.54126569304E+02  0.59679251298E+02  0.41800000000E+01 0. -1.
        -11    1    1    2    0    0 -0.19509198652E+02  0.24037722371E+02  0.10108157992E+02  0.32566789631E+02  0.00000000000E+00 0.  1.
         11    1    1    2    0    0  0.77632003055E+02 -0.31264805115E+01  0.12434110054E+02  0.78683606117E+02  0.00000000000E+00 0. -1.
</event>
<event>
 7    1  0.2530765E-009  0.1097247E+03  0.7561462E-02  0.1261081E+00
         -1   -1    0    0    0  501 -0.00000000000E+00  0.00000000000E+00  0.78082497161E+02  0.78082497161E+02  0.00000000000E+00 0.  1.
          1   -1    0    0  501    0  0.00000000000E+00 -0.00000000000E+00 -0.19574365009E+03  0.19574365009E+03  0.00000000000E+00 0. -1.
         25    2    1    2    0    0  0.31078226908E+01  0.18968468641E+02 -0.38555250373E+01  0.12661471586E+03  0.12508780850E+03 0.  0.
          5    1    3    3  502    0 -0.37793229877E+02  0.58334001550E+02 -0.25242144843E+01  0.69678031115E+02  0.41800000000E+01 0. -1.
         -5    1    3    3    0  502  0.40901052568E+02 -0.39365532909E+02 -0.13313105529E+01  0.56936684749E+02  0.41800000000E+01 0. -1.
        -11    1    1    2    0    0  0.21356861785E+02 -0.49418255973E+02 -0.58483876293E+02  0.79489894672E+02  0.00000000000E+00 0.  1.
         11    1    1    2    0    0 -0.24464684476E+02  0.30449787332E+02 -0.55321751602E+02  0.67721536718E+02  0.00000000000E+00 0. -1.
</event>
<event>
 7    1  0.2530765E-009  0.1210489E+03  0.7561462E-02  0.1241377E+00
          1   -1    0    0  501    0  0.00000000000E+00  0.00000000000E+00  0.80240971370E+03  0.80240971370E+03  0.00000000000E+00 0. -1.
         -1   -1    0    0    0  501 -0.00000000000E+00 -0.00000000000E+00 -0.21285413224E+02  0.21285413224E+02  0.00000000000E+00 0.  1.
         25    2    1    2    0    0  0.66760702433E+02 -0.11774327949E+02  0.51913346119E+03  0.53827722405E+03  0.12508874137E+03 0.  0.
          5    1    3    3  502    0  0.61986351815E+02  0.42295016178E+02  0.40387447076E+03  0.41080802905E+03  0.41800000000E+01 0.  1.
         -5    1    3    3    0  502  0.47743506180E+01 -0.54069344127E+02  0.11525899043E+03  0.12746919500E+03  0.41800000000E+01 0.  1.
        -11    1    1    2    0    0 -0.58532524167E+02  0.47785072247E+02  0.19073120754E+03  0.20515326721E+03  0.00000000000E+00 0. -1.
         11    1    1    2    0    0 -0.82281782661E+01 -0.36010744297E+02  0.71259631751E+02  0.80264635673E+02  0.00000000000E+00 0.  1.
</event>
<event>
 7    1  0.2530765E-009  0.8296199E+02  0.7561462E-02  0.1320850E+00
          2   -1    0    0  501    0  0.00000000000E+00  0.00000000000E+00  0.51365304136E+03  0.51365304136E+03  0.00000000000E+00 0. -1.
         -2   -1    0    0    0  501 -0.00000000000E+00 -0.00000000000E+00 -0.35834178551E+02  0.35834178551E+02  0.00000000000E+00 0.  1.
         25    2    1    2    0    0 -0.72321471108E+02  0.61429432994E+00  0.40282338093E+03  0.42795337066E+03  0.12508652481E+03 0.  0.
          5    1    3    3  502    0 -0.37591402389E+02 -0.23731233782E+02  0.37364440658E+03  0.37630293643E+03  0.41800000000E+01 0.  1.
         -5    1    3    3    0  502 -0.34730068719E+02  0.24345528112E+02  0.29178974348E+02  0.51650434231E+02  0.41800000000E+01 0.  1.
        -11    1    1    2    0    0  0.67805560970E+02 -0.97113554119E+01  0.28920098663E+02  0.74352381462E+02  0.00000000000E+00 0.  1.
         11    1    1    2    0    0  0.45159101379E+01  0.90970610820E+01  0.46075383219E+02  0.47181467797E+02  0.00000000000E+00 0. -1.
</event>
<event>
 7    1  0.2530765E-009  0.1220704E+03  0.7561462E-02  0.1239720E+00
         -2   -1    0    0    0  501 -0.00000000000E+00  0.00000000000E+00  0.58475614212E+02  0.58475614212E+02  0.00000000000E+00 0.  1.
          2   -1    0    0  501    0  0.00000000000E+00 -0.00000000000E+00 -0.44278597203E+03  0.44278597203E+03  0.00000000000E+00 0. -1.
         25    2    1    2    0    0  0.68824330696E+02  0.24645550934E+01 -0.55553898307E+02  0.15321747151E+03  0.12508595217E+03 0.  0.
          5    1    3    3  502    0  0.21241099809E+02 -0.57471201405E+02 -0.54569639646E+01  0.61655284994E+02  0.41800000000E+01 0. -1.
         -5    1    3    3    0  502  0.47583230888E+02  0.59935756498E+02 -0.50096934342E+02  0.91562186514E+02  0.41800000000E+01 0. -1.
        -11    1    1    2    0    0 -0.36784558013E+02 -0.41585039654E+02 -0.10644106314E+03  0.12005048585E+03  0.00000000000E+00 0.  1.
         11    1    1    2    0    0 -0.32039772683E+02  0.39120484561E+02 -0.22231539638E+03  0.22799362888E+03  0.00000000000E+00 0. -1.
</event>
<event>
 7    1  0.2530765E-009  0.8729009E+02  0.7561462E-02  0.1309550E+00
          2   -1    0    0  501    0  0.00000000000E+00  0.00000000000E+00  0.71669125218E+02  0.71669125218E+02  0.00000000000E+00 0. -1.
         -2   -1    0    0    0  501 -0.00000000000E+00 -0.00000000000E+00 -0.28280464426E+03  0.28280464426E+03  0.00000000000E+00 0.  1.
         25    2    1    2    0    0  0.36042525199E+02 -0.48537761181E+02 -0.20534851549E+03  0.24793304808E+03  0.12509118927E+03 0.  0.
          5    1    3    3  502    0  0.22235574192E+02 -0.52009652354E+01 -0.20068224871E+03  0.20202056367E+03  0.41800000000E+01 0.  1.
         -5    1    3    3    0  502  0.13806951007E+02 -0.43336795946E+02 -0.46662667817E+01  0.45912484409E+02  0.41800000000E+01 0.  1.
        -11    1    1    2    0    0  0.18757617112E+02 -0.13353116186E+02  0.37454585699E+01  0.23327716808E+02  0.00000000000E+00 0. -1.
         11    1    1    2    0    0 -0.54800142311E+02  0.61890877367E+02 -0.95324621198E+01  0.83213004588E+02  0.00000000000E+00 0.  1.
</event>
<event>
 7    1  0.2530765E-009  0.1519571E+03  0.7561462E-02  0.1198089E+00
          2   -1    0    0  501    0  0.00000000000E+00  0.00000000000E+00  0.31045286028E+02  0.31045286028E+02  0.00000000000E+00 0. -1.
         -2   -1    0    0    0  501 -0.00000000000E+00 -0.00000000000E+00 -0.82397241955E+03  0.82397241955E+03  0.00000000000E+00 0.  1.
         25    2    1    2    0    0  0.68913550489E+02  0.85095784859E+02 -0.54067451719E+03  0.56565310469E+03  0.12507650163E+03 0.  0.
          5    1    3    3  502    0  0.18295915479E+02 -0.30567187928E+02 -0.74793080276E+02  0.82949205893E+02  0.41800000000E+01 0.  1.
         -5    1    3    3    0  502  0.50617635009E+02  0.11566297279E+03 -0.46588143692E+03  0.48270389879E+03  0.41800000000E+01 0.  1.
        -11    1    1    2    0    0  0.59102781881E+01 -0.63597152579E+02 -0.10972506185E+03  0.12696109011E+03  0.00000000000E+00 0.  1.
         11    1    1    2    0    0 -0.74823828677E+02 -0.21498632280E+02 -0.14252755448E+03  0.16240351078E+03  0.00000000000E+00 0. -1.
</event>
<event>
 7    1  0.2530765E-009  0.1270203E+03  0.7561462E-02  0.1231945E+00
          1   -1    0    0  501    0  0.00000000000E+00  0.00000000000E+00  0.80999991476E+03  0.80999991476E+03  0.00000000000E+00 0. -1.
         -1   -1    0    0    0  501 -0.00000000000E+00 -0.00000000000E+00 -0.20347720648E+02  0.20347720648E+02  0.00000000000E+00 0.  1.
         25    2    1    2    0    0  0.57053757794E+02 -0.36418642831E+02  0.38902462298E+03  0.41420982661E+03  0.12509266305E+03 0.  0.
          5    1    3    3  502    0  0.96830273591E+02 -0.24321253735E+02  0.25757976053E+03  0.27628324362E+03  0.41800000000E+01 0. -1.
         -5    1    3    3    0  502 -0.39776515798E+02 -0.12097389096E+02  0.13144486245E+03  0.13792658300E+03  0.41800000000E+01 0. -1.
        -11    1    1    2    0    0 -0.87643460808E+01  0.58555962611E+02  0.19804779840E+03  0.20670884106E+03  0.00000000000E+00 0. -1.
         11    1    1    2    0    0 -0.48289411713E+02 -0.22137319780E+02  0.20257977272E+03  0.20942896773E+03  0.00000000000E+00 0.  1.
</event>
<event>
 7    1  0.2530765E-009  0.8412138E+02  0.7561462E-02  0.1317746E+00
         -1   -1    0    0    0  501 -0.00000000000E+00  0.00000000000E+00  0.33252184932E+03  0.33252184932E+03  0.00000000000E+00 0.  1.
          1   -1    0    0  501    0  0.00000000000E+00 -0.00000000000E+00 -0.49803513597E+02  0.49803513597E+02  0.00000000000E+00 0. -1.
         25    2    1    2    0    0  0.58177224073E+02 -0.27903357133E+02  0.11867456929E+03  0.18411287277E+03  0.12510279687E+03 0.  0.
          5    1    3    3  502    0  0.35711593523E+02 -0.18680098674E+02 -0.18643128280E+02  0.44601598968E+02  0.41800000000E+01 0. -1.
         -5    1    3    3    0  502  0.22465630550E+02 -0.92232584585E+01  0.13731769757E+03  0.13951127380E+03  0.41800000000E+01 0. -1.
        -11    1    1    2    0    0 -0.27493109642E+02 -0.28044134486E+02  0.28894411419E+02  0.48756861754E+02  0.00000000000E+00 0. -1.
         11    1    1    2    0    0 -0.30684114432E+02  0.55947491618E+02  0.13514935502E+03  0.14945562839E+03  0.00000000000E+00 0.  1.
</event>
<event>
 7    1  0.2530765E-009  0.1426405E+03  0.7561462E-02  0.1209819E+00
          1   -1    0    0  501    0  0.00000000000E+00  0.00000000000E+00  0.23728009575E+03  0.23728009575E+03  0.00000000000E+00 0. -1.
         -1   -1    0    0    0  501 -0.00000000000E+00 -0.00000000000E+00 -0.96566617108E+02  0.96566617108E+02  0.00000000000E+00 0.  1.
         25    2    1    2    0    0  0.57740623760E+02 -0.80413638678E+02  0.64577486994E+02  0.17210121161E+03  0.12509293463E+03 0.  0.
          5    1    3    3  502    0  0.76484682556E+02  0.57355385363E-01  0.35314709970E+02  0.84347561290E+02  0.41800000000E+01 0. -1.
         -5    1    3    3    0  502 -0.18744058796E+02 -0.80470994064E+02  0.29262777024E+02  0.87753650322E+02  0.41800000000E+01 0. -1.
        -11    1    1    2    0    0 -0.72175543343E+02  0.38881415743E+02  0.10370457127E+02  0.82635464106E+02  0.00000000000E+00 0.  1.
         11    1    1    2    0    0  0.14434919583E+02  0.41532222935E+02  0.65765534516E+02  0.79110037135E+02  0.00000000000E+00 0. -1.
</event>
<event>
 7    1  0.2530765E-009  0.7999604E+02  0.7561462E-02  0.1329063E+00
          2   -1    0    0  501    0  0.00000000000E+00  0.00000000000E+00  0.33212925368E+03  0.33212925368E+03  0.00000000000E+00 0. -1.
         -2   -1    0    0    0  501 -0.00000000000E+00 -0.00000000000E+00 -0.44366274784E+02  0.44366274784E+02  0.00000000000E+00 0.  1.
         25    2    1    2    0    0 -0.43177865357E+02 -0.17763973957E+02  0.10703021086E+03  0.17112083883E+03  0.12508792355E+03 0.  0.
          5    1    3    3  502    0 -0.66656664745E+02 -0.28058494369E+02  0.13038697132E+02  0.73606182377E+02  0.41800000000E+01 0.  1.
         -5    1    3    3    0  502  0.23478799388E+02  0.10294520412E+02  0.93991513725E+02  0.97514656455E+02  0.41800000000E+01 0.  1.
        -11    1    1    2    0    0  0.29209361484E+02 -0.96874635707E+01  0.10709690951E+02  0.32584217484E+02  0.00000000000E+00 0.  1.
         11    1    1    2    0    0  0.13968503873E+02  0.27451437528E+02  0.17002307709E+03  0.17279047215E+03  0.00000000000E+00 0. -1.
</event>
<event>
 7    1  0.2530765E-009  0.9282369E+02  0.7561462E-02  0.1296154E+00
          2   -1    0    0  501    0  0.00000000000E+00  0.00000000000E+00  0.62767352604E+02  0.62767352604E+02  0.00000000000E+00 0. -1.
         -2   -1    0    0    0  501 -0.00000000000E+00 -0.00000000000E+00 -0.36981307356E+03  0.36981307356E+03  0.00000000000E+00 0.  1.
         25    2    1    2    0    0 -0.87064071050E+02  0.51629735642E+01 -0.77969362183E+02  0.17127266556E+03  0.12509314836E+03 0.  0.
          5    1    3    3  502    0 -0.67456239700E+02 -0.20195072075E+01  0.20398663361E+02  0.70625778231E+02  0.41800000000E+01 0.  1.
         -5    1    3    3    0  502 -0.19607831350E+02  0.71824807717E+01 -0.98368025545E+02  0.10064688733E+03  0.41800000000E+01 0.  1.
        -11    1    1    2    0    0  0.15019633886E+02 -0.18119476031E+02 -0.30600788780E+01  0.23733286676E+02  0.00000000000E+00 0. -1.
         11    1    1    2    0    0  0.72044437165E+02  0.12956502467E+02 -0.22601627989E+03  0.23757447392E+03  0.00000000000E+00 0.  1.
</event>
<event>
 7    1  0.2530765E-009  0.2709428E+03  0.7561462E-02  0.1100741E+00
         -3   -1    0    0    0  501 -0.00000000000E+00  0.00000000000E+00  0.19125548579E+03  0.19125548579E+03  0.00000000000E+00 0.  1.
          3   -1    0    0  501    0  0.00000000000E+00 -0.00000000000E+00 -0.42168693904E+03  0.42168693904E+03  0.00000000000E+00 0. -1.
         25    2    1    2    0    0  0.48679848852E+02  0.25241290629E+03 -0.66612737077E+02  0.29354190639E+03  0.12509033185E+03 0.  0.
          5    1    3    3  502    0  0.85182183125E+02  0.18751109032E+03 -0.23328501448E+02  0.20731161254E+03  0.41800000000E+01 0.  1.
         -5    1    3    3    0  502 -0.36502334274E+02  0.64901815976E+02 -0.43284235629E+02  0.86230293856E+02  0.41800000000E+01 0.  1.
        -11    1    1    2    0    0  0.31170090732E+01 -0.10529528840E+03 -0.11503358924E+03  0.15597929400E+03  0.00000000000E+00 0. -1.
         11    1    1    2    0    0 -0.51796857925E+02 -0.14711761789E+03 -0.48785126936E+02  0.16342122444E+03  0.00000000000E+00 0.  1.
</event>
<event>
 7    1  0.2530765E-009  0.1031608E+03  0.7561462E-02  0.1273786E+00
         -2   -1    0    0    0  501 -0.00000000000E+00  0.00000000000E+00  0.22124608061E+02  0.22124608061E+02  0.00000000000E+00 0.  1.
          2   -1    0    0  501    0  0.00000000000E+00 -0.00000000000E+00 -0.60034392565E+03  0.60034392565E+03  0.00000000000E+00 0. -1.
         25    2    1    2    0    0  0.32672324174E+02 -0.73221991796E+01 -0.38270143370E+03  0.40401644834E+03  0.12509119793E+03 0.  0.
          5    1    3    3  502    0 -0.31604928605E+02 -0.26856424984E+02 -0.26639888305E+03  0.26964045758E+03  0.41800000000E+01 0.  1.
         -5    1    3    3    0  502  0.64277252779E+02  0.19534225805E+02 -0.11630255065E+03  0.13437599075E+03  0.41800000000E+01 0.  1.
        -11    1    1    2    0    0 -0.61137939278E+02  0.22403117235E+02 -0.12583609347E+03  0.14168440175E+03  0.00000000000E+00 0.  1.
         11    1    1    2    0    0  0.28465615104E+02 -0.15080918055E+02 -0.69681790416E+02  0.76767683619E+02  0.00000000000E+00 0. -1.
</event>
<event>
 7    1  0.2530765E-009  0.1548898E+03  0.7561462E-02  0.1194590E+00
          2   -1    0    0  501    0  0.00000000000E+00  0.00000000000E+00  0.99077012345E+03  0.99077012345E+03  0.00000000000E+00 0. -1.
         -2   -1    0    0    0  501 -0.00000000000E+00 -0.00000000000E+00 -0.36228310066E+02  0.36228310066E+02  0.00000000000E+00 0.  1.
         25    2    1    2    0    0  0.10325594771E+03  0.11101986919E+03  0.39804337054E+03  0.44392985782E+03  0.12509193316E+03 0.  0.
          5    1    3    3  502    0  0.10887812092E+02  0.35790783836E+01  0.20007235274E+03  0.20044393976E+03  0.41800000000E+01 0.  1.
         -5    1    3    3    0  502  0.92368135616E+02  0.10744079081E+03  0.19797101779E+03  0.24348591806E+03  0.41800000000E+01 0.  1.
        -11    1    1    2    0    0 -0.10799327055E+02  0.69175441473E+00  0.34994768187E+01  0.11373228522E+02  0.00000000000E+00 0.  1.
         11    1    1    2    0    0 -0.92456620652E+02 -0.11171162361E+03  0.55299896603E+03  0.57169534718E+03  0.00000000000E+00 0. -1.
</event>
<event>
 7    1  0.2530765E-009  0.1431224E+03  0.7561462E-02  0.1209188E+00
          1   -1    0    0  501    0  0.00000000000E+00  0.00000000000E+00  0.63128230603E+02  0.63128230603E+02  0.00000000000E+00 0. -1.
         -1   -1    0    0    0  501 -0.00000000000E+00 -0.00000000000E+00 -0.35374184945E+03  0.35374184945E+03  0.00000000000E+00 0.  1.
         25    2    1    2    0    0 -0.71460133447E+02 -0.67050783565E+02 -0.19875789149E+03  0.25446885529E+03  0.12508933062E+03 0.  0.
          5    1    3    3  502    0 -0.58876803688E+02 -0.10042627965E+03 -0.11666322676E+03  0.16486265961E+03  0.41800000000E+01 0. -1.
         -5    1    3    3    0  502 -0.12583329759E+02  0.33375496082E+02 -0.82094664734E+02  0.89606195680E+02  0.41800000000E+01 0. -1.
        -11    1    1    2    0    0 -0.17341689801E+02  0.35667716588E+02 -0.24620525754E+02  0.46680729430E+02  0.00000000000E+00 0.  1.
         11    1    1    2    0    0  0.88801823248E+02  0.31383066977E+02 -0.67235201602E+02  0.11572049533E+03  0.00000000000E+00 0. -1.
</event>
<event>
 7    1  0.2530765E-009  0.1139783E+03  0.7561462E-02  0.1253375E+00
          1   -1    0    0  501    0  0.00000000000E+00  0.00000000000E+00  0.13427274192E+03  0.13427274192E+03  0.00000000000E+00 0. -1.
         -1   -1    0    0    0  501 -0.00000000000E+00 -0.00000000000E+00 -0.11864118044E+03  0.11864118044E+03  0.00000000000E+00 0.  1.
         25    2    1    2    0    0  0.23662564207E+02 -0.51324547337E+02 -0.22079127096E+02  0.13902847539E+03  0.12508918023E+03 0.  0.
          5    1    3    3  502    0  0.66337633960E+02 -0.29443671339E+02  0.19664109676E+02  0.75311095270E+02  0.41800000000E+01 0.  1.
         -5    1    3    3    0  502 -0.42675069753E+02 -0.21880875998E+02 -0.41743236773E+02  0.63717380118E+02  0.41800000000E+01 0.  1.
        -11    1    1    2    0    0 -0.47533011225E+02 -0.31563849430E+01  0.12271208019E+02  0.49192809111E+02  0.00000000000E+00 0.  1.
         11    1    1    2    0    0  0.23870447018E+02  0.54480932280E+02  0.25439480550E+02  0.64692637862E+02  0.00000000000E+00 0. -1.
</event>
<event>
 7    1  0.2530765E-009  0.9299716E+02  0.7561462E-02  0.1295752E+00
         -1   -1    0    0    0  501 -0.00000000000E+00  0.00000000000E+00  0.13862873912E+02  0.13862873912E+02  0.00000000000E+00 0.  1.
          1   -1    0    0  501    0  0.00000000000E+00 -0.00000000000E+00 -0.93793902828E+03  0.93793902828E+03  0.00000000000E+00 0. -1.
         25    2    1    2    0    0  0.24989744410E+02 -0.31197663240E+02 -0.52750753835E+03  0.54360811559E+03  0.12509116198E+03 0.  0.
          5    1    3    3  502    0  0.54765487564E+02 -0.32481898719E+02 -0.12854155288E+03  0.14350866033E+03  0.41800000000E+01 0. -1.
         -5    1    3    3    0  502 -0.29775743154E+02  0.12842354799E+01 -0.39896598546E+03  0.40009945526E+03  0.41800000000E+01 0. -1.
        -11    1    1    2    0    0  0.17503559721E+02 -0.19323758122E+02 -0.63471176216E+02  0.68617581137E+02  0.00000000000E+00 0. -1.
         11    1    1    2    0    0 -0.42493304132E+02  0.50521421362E+02 -0.33309743980E+03  0.33957620546E+03  0.00000000000E+00 0.  1.
</event>
<event>
 7    1  0.2530765E-009  0.1062371E+03  0.7561462E-02  0.1267701E+00
          2   -1    0    0  501    0  0.00000000000E+00  0.00000000000E+00  0.14887668684E+03  0.14887668684E+03  0.00000000000E+00 0. -1.
         -2   -1    0    0    0  501 -0.00000000000E+00 -0.00000000000E+00 -0.10837635015E+03  0.10837635015E+03  0.00000000000E+00 0.  1.
         25    2    1    2    0    0  0.19903654241E+02  0.65703647051E+01 -0.40517387203E+02  0.13315116336E+03  0.12509295941E+03 0.  0.
          5    1    3    3  502    0 -0.40882031088E+02  0.32407882354E+02 -0.41765049372E+02  0.66958218716E+02  0.41800000000E+01 0. -1.
         -5    1    3    3    0  502  0.60785685329E+02 -0.25837517649E+02  0.12476621688E+01  0.66192944640E+02  0.41800000000E+01 0. -1.
        -11    1    1    2    0    0  0.64967212942E+01  0.39945961366E+02  0.36921151371E+02  0.54781918875E+02  0.00000000000E+00 0. -1.
         11    1    1    2    0    0 -0.26400375535E+02 -0.46516326071E+02  0.44096572527E+02  0.69319954761E+02  0.00000000000E+00 0.  1.
</event>
<event>
 7    1  0.2530765E-009  0.1533916E+03  0.7561462E-02  0.1196366E+00
         -1   -1    0    0    0  501 -0.00000000000E+00  0.00000000000E+00  0.10144201892E+03  0.10144201892E+03  0.00000000000E+00 0.  1.
          1   -1    0    0  501    0  0.00000000000E+00 -0.00000000000E+00 -0.24250567400E+03  0.24250567400E+03  0.00000000000E+00 0. -1.
         25    2    1    2    0    0 -0.48386763086E+02 -0.10111404372E+03 -0.85021427610E+02  0.18825964511E+03  0.12509085556E+03 0.  0.
          5    1    3    3  502    0  0.40110800593E+02 -0.25090885302E+02 -0.74051364425E+01  0.48070128928E+02  0.41800000000E+01 0. -1.
         -5    1    3    3    0  502 -0.88497563679E+02 -0.76023158416E+02 -0.77616291167E+02  0.14018951618E+03  0.41800000000E+01 0. -1.
        -11    1    1    2    0    0  0.68125301353E+02  0.10214500140E+03 -0.58069859672E+02  0.13581887423E+03  0.00000000000E+00 0. -1.
         11    1    1    2    0    0 -0.19738538268E+02 -0.10309576812E+01  0.20276322030E+01  0.19869173587E+02  0.00000000000E+00 0.  1.
</event>
<event>
 7    1  0.2530765E-009  0.1698767E+03  0.7561462E-02  0.1177977E+00
         -1   -1    0    0    0  501 -0.00000000000E+00  0.00000000000E+00  0.10697086593E+04  0.10697086593E+04  0.00000000000E+00 0.  1.
          1   -1    0    0  501    0  0.00000000000E+00 -0.00000000000E+00 -0.32281240258E+02  0.32281240258E+02  0.00000000000E+00 0. -1.
         25    2    1    2    0    0 -0.13805031285E+03 -0.54686682407E+02  0.47246859837E+03  0.51080647372E+03  0.12509258587E+03 0.  0.
          5    1    3    3  502    0  0.19700775290E+02 -0.30792464261E+01  0.11332858510E+03  0.11514531213E+03  0.41800000000E+01 0. -1.
         -5    1    3    3    0  502 -0.15775108814E+03 -0.51607435981E+02  0.35914001327E+03  0.39566116159E+03  0.41800000000E+01 0. -1.
        -11    1    1    2    0    0  0.70367121366E+02  0.48334953350E+02  0.16800034364E+03  0.18844605315E+03  0.00000000000E+00 0. -1.
         11    1    1    2    0    0  0.67683191483E+02  0.63517290568E+01  0.39695847701E+03  0.40273737267E+03  0.00000000000E+00 0.  1.
</event>
<event>
 7    1  0.2530765E-009  0.1006358E+03  0.7561462E-02  0.1278965E+00
         -3   -1    0    0    0  501 -0.00000000000E+00  0.00000000000E+00  0.74810433655E+02  0.74810433655E+02  0.00000000000E+00 0.  1.
          3   -1    0    0  501    0  0.00000000000E+00 -0.00000000000E+00 -0.23133757597E+03  0.23133757597E+03  0.00000000000E+00 0. -1.
         25    2    1    2    0    0 -0.30468472877E+02 -0.35105889889E+02 -0.23843410326E+02  0.13556312944E+03  0.12509237587E+03 0.  0.
          5    1    3    3  502    0  0.42196288304E+02 -0.37090985458E+02 -0.27438079665E+02  0.62662497274E+02  0.41800000000E+01 0. -1.
         -5    1    3    3    0  502 -0.72664761181E+02  0.19850955688E+01  0.35946693390E+01  0.72900632162E+02  0.41800000000E+01 0. -1.
        -11    1    1    2    0    0  0.16459151043E+02 -0.13657591888E+02  0.65719377351E+01  0.22374624798E+02  0.00000000000E+00 0.  1.
         11    1    1    2    0    0  0.14009321833E+02  0.48763481777E+02 -0.13925566972E+03  0.14821025539E+03  0.00000000000E+00 0. -1.
</event>
<event>
 7    1  0.2530765E-009  0.1391629E+03  0.7561462E-02  0.1214460E+00
          1   -1    0    0  501    0  0.00000000000E+00  0.00000000000E+00  0.19401111955E+03  0.19401111955E+03  0.00000000000E+00 0. -1.
         -1   -1    0    0    0  501 -0.00000000000E+00 -0.00000000000E+00 -0.16778900042E+03  0.16778900042E+03  0.00000000000E+00 0.  1.
         25    2    1    2    0    0  0.41989495295E+02  0.12835615913E+03 -0.35502237576E+02  0.18747237939E+03  0.12508822031E+03 0.  0.
          5    1    3    3  502    0  0.33402000534E+02  0.66029815828E+02  0.43852271513E+02  0.86116922465E+02  0.41800000000E+01 0. -1.
         -5    1    3    3    0  502  0.85874947610E+01  0.62326343304E+02 -0.79354509089E+02  0.10135545693E+03  0.41800000000E+01 0. -1.
        -11    1    1    2    0    0 -0.26983059918E+01 -0.74196512986E+02 -0.11506448397E+02  0.75131895684E+02  0.00000000000E+00 0.  1.
         11    1    1    2    0    0 -0.39291189304E+02 -0.54159646146E+02  0.73230805109E+02  0.99195844896E+02  0.00000000000E+00 0. -1.
</event>
<event>
 7    1  0.2530765E-009  0.9211217E+02  0.7561462E-02  0.1297816E+00
          2   -1    0    0  501    0  0.00000000000E+00  0.00000000000E+00  0.35381987382E+03  0.35381987382E+03  0.00000000000E+00 0. -1.
         -2   -1    0    0    0  501 -0.00000000000E+00 -0.00000000000E+00 -0.68123867797E+02  0.68123867797E+02  0.00000000000E+00 0.  1.
         25    2    1    2    0    0 -0.49990221513E+02 -0.25034075952E+01  0.28682371729E+03  0.31689175010E+03  0.12508895710E+03 0.  0.
          5    1    3    3  502    0 -0.32198430242E+02 -0.63045115438E+02  0.16616350546E+03  0.18066324595E+03  0.41800000000E+01 0. -1.
         -5    1    3    3    0  502 -0.17791791271E+02  0.60541707843E+02  0.12066021183E+03  0.13622850415E+03  0.41800000000E+01 0. -1.
        -11    1    1    2    0    0  0.29914601251E+02  0.86534506878E+00 -0.46563564958E+02  0.55351583281E+02  0.00000000000E+00 0.  1.
         11    1    1    2    0    0  0.20075620262E+02  0.16380625264E+01  0.45435853700E+02  0.49700408240E+02  0.00000000000E+00 0. -1.
</event>
<event>
 7    1  0.2530765E-009  0.1226386E+03  0.7561462E-02  0.1238807E+00
          1   -1    0    0  501    0  0.00000000000E+00  0.00000000000E+00  0.15412738605E+02  0.15412738605E+02  0.00000000000E+00 0. -1.
         -1   -1    0    0    0  501 -0.00000000000E+00 -0.00000000000E+00 -0.19582968575E+04  0.19582968575E+04  0.00000000000E+00 0.  1.
         25    2    1    2    0    0  0.35858321648E+02 -0.83478543510E+02 -0.17400722823E+04  0.17469268379E+04  0.12508933968E+03 0.  0.
          5    1    3    3  502    0 -0.28548118507E+02 -0.81765605905E+02 -0.11704277197E+04  0.11736350066E+04  0.41800000000E+01 0.  1.
         -5    1    3    3    0  502  0.64406440156E+02 -0.17129376050E+01 -0.56964456262E+03  0.57329183128E+03  0.41800000000E+01 0.  1.
        -11    1    1    2    0    0  0.24631845230E+01  0.17761696535E+02 -0.82584826265E+02  0.84509163237E+02  0.00000000000E+00 0.  1.
         11    1    1    2    0    0 -0.38321506171E+02  0.65716846975E+02 -0.12022701034E+03  0.14227359497E+03  0.00000000000E+00 0. -1.
</event>
<event>
 7    1  0.2530765E-009  0.9597552E+02  0.7561462E-02  0.1288994E+00
         -2   -1    0    0    0  501 -0.00000000000E+00  0.00000000000E+00  0.69714848146E+02  0.69714848146E+02  0.00000000000E+00 0.  1.
          2   -1    0    0  501    0  0.00000000000E+00 -0.00000000000E+00 -0.18039684663E+03  0.18039684663E+03  0.00000000000E+00 0. -1.
         25    2    1    2    0    0 -0.17581900001E+02 -0.90033350507E+01 -0.38701883943E+02  0.13241135631E+03  0.12507896790E+03 0.  0.
          5    1    3    3  502    0  0.44812965685E+02 -0.30955174916E+02 -0.37254969310E+02  0.66119814624E+02  0.41800000000E+01 0. -1.
         -5    1    3    3    0  502 -0.62394865686E+02  0.21951839865E+02 -0.14469146331E+01  0.66291541688E+02  0.41800000000E+01 0. -1.
        -11    1    1    2    0    0 -0.89014205120E+01  0.33689500555E+02  0.24502533611E+01  0.34931668674E+02  0.00000000000E+00 0.  1.
         11    1    1    2    0    0  0.26483320513E+02 -0.24686165505E+02 -0.74430367904E+02  0.82768669791E+02  0.00000000000E+00 0. -1.
</event>
<event>
 7    1  0.2530765E-009  0.8619076E+02  0.7561462E-02  0.1312348E+00
         -3   -1    0    0    0  501 -0.00000000000E+00  0.00000000000E+00  0.14836059422E+03  0.14836059422E+03  0.00000000000E+00 0.  1.
          3   -1    0    0  501    0  0.00000000000E+00 -0.00000000000E+00 -0.12740996471E+03  0.12740996471E+03  0.00000000000E+00 0. -1.
         25    2    1    2    0    0 -0.30823512111E+02  0.51787485864E+02 -0.46062589301E+02  0.14628911945E+03  0.12508681683E+03 0.  0.
          5    1    3    3  502    0 -0.61912910270E+02  0.27954758101E+02  0.18613442927E+02  0.70559263149E+02  0.41800000000E+01 0. -1.
         -5    1    3    3    0  502  0.31089398159E+02  0.23832727763E+02 -0.64676032229E+02  0.75729856301E+02  0.41800000000E+01 0. -1.
        -11    1    1    2    0    0  0.20032050578E+02 -0.11246393744E+02 -0.21540813550E+02  0.31492397035E+02  0.00000000000E+00 0. -1.
         11    1    1    2    0    0  0.10791461532E+02 -0.40541092119E+02  0.88554032360E+02  0.97989042446E+02  0.00000000000E+00 0.  1.
</event>
<event>
 7    1  0.2530765E-009  0.9233897E+02  0.7561462E-02  0.1297284E+00
         -1   -1    0    0    0  501 -0.00000000000E+00  0.00000000000E+00  0.27911484951E+03  0.27911484951E+03  0.00000000000E+00 0.  1.
          1   -1    0    0  501    0  0.00000000000E+00 -0.00000000000E+00 -0.45137811576E+02  0.45137811576E+02  0.00000000000E+00 0. -1.
         25    2    1    2    0    0 -0.35601001091E+02 -0.17653396386E+02  0.11732077032E+03  0.17604193275E+03  0.12509006858E+03 0.  0.
          5    1    3    3  502    0 -0.41443674681E+02 -0.68123968811E+02  0.78397615928E+02  0.11190224252E+03  0.41800000000E+01 0.  1.
         -5    1    3    3    0  502  0.58426735901E+01  0.50470572425E+02  0.38923154393E+02  0.64139690235E+02  0.41800000000E+01 0.  1.
        -11    1    1    2    0    0  0.37711186612E+02  0.16921611849E+01  0.12464625020E+03  0.13023703273E+03  0.00000000000E+00 0.  1.
         11    1    1    2    0    0 -0.21101855205E+01  0.15961235201E+02 -0.79899825827E+01  0.17973695606E+02  0.00000000000E+00 0. -1.
</event>
<event>
 7    1  0.2530765E-009  0.9657502E+02  0.7561462E-02  0.1287668E+00
          1   -1    0    0  501    0  0.00000000000E+00  0.00000000000E+00  0.34931847691E+02  0.34931847691E+02  0.00000000000E+00 0. -1.
         -1   -1    0    0    0  501 -0.00000000000E+00 -0.00000000000E+00 -0.34109029585E+03  0.34109029585E+03  0.00000000000E+00 0.  1.
         25    2    1    2    0    0 -0.58670830774E+01 -0.72500585626E+01 -0.24070876536E+03  0.27143166913E+03  0.12508978883E+03 0.  0.
          5    1    3    3  502    0  0.52023791323E+02 -0.11252627749E+02 -0.17824852639E+03  0.18607285147E+03  0.41800000000E+01 0.  1.
         -5    1    3    3    0  502 -0.57890874400E+02  0.40025691861E+01 -0.62460238970E+02  0.85358817653E+02  0.41800000000E+01 0.  1.
        -11    1    1    2    0    0 -0.34201882947E+02 -0.13117959315E+02 -0.29693701908E+02  0.47154698458E+02  0.00000000000E+00 0.  1.
         11    1    1    2    0    0  0.40068966024E+02  0.20368017877E+02 -0.35755980893E+02  0.57435775960E+02  0.00000000000E+00 0. -1.
</event>
<event>
 7    1  0.2530765E-009  0.1706614E+03  0.7561462E-02  0.1177160E+00
          2   -1    0    0  501    0  0.00000000000E+00  0.00000000000E+00  0.29120961216E+03  0.29120961216E+03  0.00000000000E+00 0. -1.
         -2   -1    0    0    0  501 -0.00000000000E+00 -0.00000000000E+00 -0.16532174044E+03  0.16532174044E+03  0.00000000000E+00 0.  1.
         25    2    1    2    0    0  0.14648342762E+03  0.54361330251E+02  0.17778970983E+03  0.26771112775E+03  0.12509004040E+03 0.  0.
          5    1    3    3  502    0  0.20639114391E+01  0.11977754534E+02  0.95033934285E+02  0.95899152237E+02  0.41800000000E+01 0.  1.
         -5    1    3    3    0  502  0.14441951618E+03  0.42383575718E+02  0.82755775547E+02  0.17181197552E+03  0.41800000000E+01 0.  1.
        -11    1    1    2    0    0 -0.41861752260E+02 -0.59963053325E+02 -0.40055336270E+02  0.83381077170E+02  0.00000000000E+00 0. -1.
         11    1    1    2    0    0 -0.10462167536E+03  0.56017230733E+01 -0.11846501841E+02  0.10543914768E+03  0.00000000000E+00 0.  1.
</event>
<event>
 7    1  0.2530765E-009  0.1716105E+03  0.7561462E-02  0.1176179E+00
          4   -1    0    0  501    0  0.00000000000E+00  0.00000000000E+00  0.52191027606E+02  0.52191027606E+02  0.00000000000E+00 0. -1.
         -4   -1    0    0    0  501 -0.00000000000E+00 -0.00000000000E+00 -0.67496678116E+03  0.67496678116E+03  0.00000000000E+00 0.  1.
         25    2    1    2    0    0  0.76519813492E+01 -0.15179322073E+03 -0.35352640520E+03  0.40463137008E+03  0.12508353930E+03 0.  0.
          5    1    3    3  502    0  0.52090780108E+02 -0.69296859862E+02 -0.25143290175E+03  0.26599150483E+03  0.41800000000E+01 0.  1.
         -5    1    3    3    0  502 -0.44438798759E+02 -0.82496360865E+02 -0.10209350345E+03  0.13863986525E+03  0.41800000000E+01 0.  1.
        -11    1    1    2    0    0 -0.30772650448E+02  0.54104818872E+02 -0.17135269402E+03  0.18230752367E+03  0.00000000000E+00 0.  1.
         11    1    1    2    0    0  0.23120669099E+02  0.97688401855E+02 -0.97896654344E+02  0.14021891502E+03  0.00000000000E+00 0. -1.
</event>
<event>
 7    1  0.2530765E-009  0.1130805E+03  0.7561462E-02  0.1254969E+00
         -2   -1    0    0    0  501 -0.00000000000E+00  0.00000000000E+00  0.36951736291E+03  0.36951736291E+03  0.00000000000E+00 0.  1.
          2   -1    0    0  501    0  0.00000000000E+00 -0.00000000000E+00 -0.44535425247E+02  0.44535425247E+02  0.00000000000E+00 0. -1.
         25    2    1    2    0    0  0.22498076115E+02  0.52370039055E+02  0.11923583653E+03  0.18196946838E+03  0.12508764245E+03 0.  0.
          5    1    3    3  502    0 -0.31752994585E+01 -0.34034896571E+02  0.26450639144E+01  0.34538753226E+02  0.41800000000E+01 0.  1.
         -5    1    3    3    0  502  0.25673375573E+02  0.86404935626E+02  0.11659077261E+03  0.14743071516E+03  0.41800000000E+01 0.  1.
        -11    1    1    2    0    0 -0.52905300283E+02 -0.46676659644E+02  0.10349789724E+03  0.12525771867E+03  0.00000000000E+00 0. -1.
         11    1    1    2    0    0  0.30407224168E+02 -0.56933794113E+01  0.10224820389E+03  0.10682560110E+03  0.00000000000E+00 0.  1.
</event>
<event>
 7    1  0.2530765E-009  0.1324542E+03  0.7561462E-02  0.1223859E+00
         -3   -1    0    0    0  501 -0.00000000000E+00  0.00000000000E+00  0.18907074910E+03  0.18907074910E+03  0.00000000000E+00 0. -1.
          3   -1    0    0  501    0  0.00000000000E+00 -0.00000000000E+00 -0.13174255882E+03  0.13174255882E+03  0.00000000000E+00 0.  1.
         25    2    1    2    0    0  0.98936534199E+02  0.59294365448E+02  0.26754323363E+02  0.17224571828E+03  0.12509410088E+03 0.  0.
          5    1    3    3  502    0  0.76339440305E+02  0.65648346045E+02 -0.34500913052E+02  0.10651385302E+03  0.41800000000E+01 0.  1.
         -5    1    3    3    0  502  0.22597093894E+02 -0.63539805961E+01  0.61255236415E+02  0.65731865256E+02  0.41800000000E+01 0.  1.
        -11    1    1    2    0    0 -0.20703344518E+02 -0.58501664694E+02 -0.57237182827E+01  0.62320415573E+02  0.00000000000E+00 0.  1.
         11    1    1    2    0    0 -0.78233189681E+02 -0.79270075443E+00  0.36297585201E+02  0.86247174061E+02  0.00000000000E+00 0. -1.
</event>
<event>
 7    1  0.2530765E-009  0.1197110E+03  0.7561462E-02  0.1243575E+00
          2   -1    0    0  501    0  0.00000000000E+00  0.00000000000E+00  0.32261992625E+03  0.32261992625E+03  0.00000000000E+00 0.  1.
         -2   -1    0    0    0  501 -0.00000000000E+00 -0.00000000000E+00 -0.50205654840E+02  0.50205654840E+02  0.00000000000E+00 0. -1.
         25    2    1    2    0    0 -0.23354311158E+02  0.56264951288E+02  0.10974826049E+03  0.17720987402E+03  0.12508992835E+03 0.  0.
          5    1    3    3  502    0 -0.15342708463E+02 -0.39191758042E+02  0.24310790782E+02  0.48784009162E+02  0.41800000000E+01 0.  1.
         -5    1    3    3    0  502 -0.80116026953E+01  0.95456709330E+02  0.85437469708E+02  0.12842586486E+03  0.41800000000E+01 0.  1.
        -11    1    1    2    0    0 -0.18308787576E+02 -0.56695333983E+02  0.58815646168E+02  0.83718891728E+02  0.00000000000E+00 0.  1.
         11    1    1    2    0    0  0.41663098734E+02  0.43038269482E+00  0.10385036475E+03  0.11189681535E+03  0.00000000000E+00 0. -1.
</event>
<event>
 7    1  0.2530765E-009  0.1049385E+03  0.7561462E-02  0.1270241E+00
         -2   -1    0    0    0  501 -0.00000000000E+00  0.00000000000E+00  0.90900065485E+01  0.90900065485E+01  0.00000000000E+00 0.  1.
          2   -1    0    0  501    0  0.00000000000E+00 -0.00000000000E+00 -0.16199028663E+04  0.16199028663E+04  0.00000000000E+00 0. -1.
         25    2    1    2    0    0 -0.46388316599E+01 -0.18988225343E+02 -0.12622727713E+04  0.12686065971E+04  0.12509227639E+03 0.  0.
          5    1    3    3  502    0  0.42089696506E+02 -0.47580318223E+02 -0.45040268621E+03  0.45487963395E+03  0.41800000000E+01 0.  1.
         -5    1    3    3    0  502 -0.46728528166E+02  0.28592092880E+02 -0.81187008510E+03  0.81372696318E+03  0.41800000000E+01 0.  1.
        -11    1    1    2    0    0  0.44201766501E+02 -0.58084706880E+01 -0.18639491028E+03  0.19165228167E+03  0.00000000000E+00 0. -1.
         11    1    1    2    0    0 -0.39562934841E+02  0.24796696031E+02 -0.16214517821E+03  0.16873399409E+03  0.00000000000E+00 0.  1.
</event>
<event>
 7    1  0.2530765E-009  0.1031334E+03  0.7561462E-02  0.1273842E+00
          2   -1    0    0  501    0  0.00000000000E+00  0.00000000000E+00  0.13722352477E+04  0.13722352477E+04  0.00000000000E+00 0. -1.
         -2   -1    0    0    0  501 -0.00000000000E+00 -0.00000000000E+00 -0.28095401210E+02  0.28095401210E+02  0.00000000000E+00 0.  1.
         25    2    1    2    0    0 -0.57810444344E+01  0.16209908265E+02  0.12813132436E+04  0.12875198191E+04  0.12508986677E+03 0.  0.
          5    1    3    3  502    0  0.31468838478E+01 -0.50710908133E+02  0.77990344816E+03  0.78156788568E+03  0.41800000000E+01 0. -1.
         -5    1    3    3    0  502 -0.89279282822E+01  0.66920816397E+02  0.50140979544E+03  0.50595193342E+03  0.41800000000E+01 0. -1.
        -11    1    1    2    0    0  0.44419131100E+02 -0.20206869454E+02  0.14703034927E+02  0.50966224275E+02  0.00000000000E+00 0.  1.
         11    1    1    2    0    0 -0.38638086666E+02  0.39969611888E+01  0.48123567984E+02  0.61844605549E+02  0.00000000000E+00 0. -1.
</event>
<event>
 7    1  0.3158681E-009  0.1446299E+03  0.7561462E-02  0.1207231E+00
          1   -1    0    0  501    0  0.00000000000E+00  0.00000000000E+00  0.71825893080E+03  0.71825893080E+03  0.00000000000E+00 0. -1.
         -1   -1    0    0    0  501 -0.00000000000E+00 -0.00000000000E+00 -0.51190904568E+02  0.51190904568E+02  0.00000000000E+00 0.  1.
         25    2    1    2    0    0 -0.35012694142E+02  0.11151685118E+03  0.56188183680E+03  0.58738313147E+03  0.12508336326E+03 0.  0.
          5    1    3    3  502    0  0.38347970506E+02  0.11570730486E+01  0.13032053527E+03  0.13591475260E+03  0.41800000000E+01 0.  1.
         -5    1    3    3    0  502 -0.73360664647E+02  0.11035977813E+03  0.43156130153E+03  0.45146837888E+03  0.41800000000E+01 0.  1.
        -11    1    1    2    0    0  0.26466136509E+01 -0.33701201777E+02  0.90383243037E+02  0.96498218568E+02  0.00000000000E+00 0. -1.
         11    1    1    2    0    0  0.32366080491E+02 -0.77815649405E+02  0.14802946392E+02  0.85568485324E+02  0.00000000000E+00 0.  1.
</event>
<event>
 7    1  0.2530765E-009  0.1034289E+03  0.7561462E-02  0.1273246E+00
         -2   -1    0    0    0  501 -0.00000000000E+00  0.00000000000E+00  0.14533076403E+04  0.14533076403E+04  0.00000000000E+00 0.  1.
          2   -1    0    0  501    0  0.00000000000E+00 -0.00000000000E+00 -0.16352592784E+02  0.16352592784E+02  0.00000000000E+00 0. -1.
         25    2    1    2    0    0  0.32457707706E+02  0.76249573690E+02  0.11171241164E+04  0.11271571711E+04  0.12509794775E+03 0.  0.
          5    1    3    3  502    0  0.37013061981E+02 -0.65058842107E+01  0.74202916815E+03  0.74299195963E+03  0.41800000000E+01 0.  1.
         -5    1    3    3    0  502 -0.45553542746E+01  0.82755457901E+02  0.37509494825E+03  0.38416521142E+03  0.41800000000E+01 0.  1.
        -11    1    1    2    0    0 -0.12810837648E+02 -0.57471689585E+02  0.30673406683E+03  0.31233459690E+03  0.00000000000E+00 0.  1.
         11    1    1    2    0    0 -0.19646870058E+02 -0.18777884105E+02  0.13096864286E+02  0.30168465136E+02  0.00000000000E+00 0. -1.
</event>
<event>
 7    1  0.2530765E-009  0.1289262E+03  0.7561462E-02  0.1229058E+00
          1   -1    0    0  501    0  0.00000000000E+00  0.00000000000E+00  0.20216314975E+03  0.20216314975E+03  0.00000000000E+00 0. -1.
         -1   -1    0    0    0  501 -0.00000000000E+00 -0.00000000000E+00 -0.17822778420E+03  0.17822778420E+03  0.00000000000E+00 0.  1.
         25    2    1    2    0    0  0.44982326469E+02  0.87751876473E+02 -0.11282544800E+03  0.19520030495E+03  0.12509906402E+03 0.  0.
          5    1    3    3  502    0  0.88037304251E+02  0.69706465012E+02 -0.77365668026E+02  0.13642755291E+03  0.41800000000E+01 0.  1.
         -5    1    3    3    0  502 -0.43054977781E+02  0.18045411461E+02 -0.35459779974E+02  0.58772752040E+02  0.41800000000E+01 0.  1.
        -11    1    1    2    0    0 -0.29941853199E+02 -0.59148469499E+02  0.28415463087E+02  0.72128320093E+02  0.00000000000E+00 0.  1.
         11    1    1    2    0    0 -0.15040473270E+02 -0.28603406974E+02  0.10834535047E+03  0.11306230890E+03  0.00000000000E+00 0. -1.
</event>
<event>
 7    1  0.2530765E-009  0.9390015E+02  0.7561462E-02  0.1293673E+00
          3   -1    0    0  501    0  0.00000000000E+00  0.00000000000E+00  0.34908790525E+03  0.34908790525E+03  0.00000000000E+00 0. -1.
         -3   -1    0    0    0  501 -0.00000000000E+00 -0.00000000000E+00 -0.39319497486E+02  0.39319497486E+02  0.00000000000E+00 0.  1.
         25    2    1    2    0    0 -0.31420480300E+02  0.26364293081E+02  0.15205815038E+03  0.20112797278E+03  0.12509379604E+03 0.  0.
          5    1    3    3  502    0  0.10087772108E+02  0.43693715390E+02  0.27342051466E+01  0.45120418753E+02  0.41800000000E+01 0. -1.
         -5    1    3    3    0  502 -0.41508252407E+02 -0.17329422309E+02  0.14932394523E+03  0.15600755403E+03  0.41800000000E+01 0. -1.
        -11    1    1    2    0    0  0.33066653495E+02  0.27921152972E+02  0.94521021940E+02  0.10395777001E+03  0.00000000000E+00 0. -1.
         11    1    1    2    0    0 -0.16461731954E+01 -0.54285446053E+02  0.63189235453E+02  0.83321659948E+02  0.00000000000E+00 0.  1.
</event>
<event>
 7    1  0.2530765E-009  0.7376779E+02  0.7561462E-02  0.1347730E+00
         -3   -1    0    0    0  501 -0.00000000000E+00  0.00000000000E+00  0.15536901557E+03  0.15536901557E+03  0.00000000000E+00 0.  1.
          3   -1    0    0  501    0  0.00000000000E+00 -0.00000000000E+00 -0.77776378914E+02  0.77776378914E+02  0.00000000000E+00 0. -1.
         25    2    1    2    0    0 -0.11454546535E+02  0.42744763534E+01  0.35235693226E+02  0.13053275403E+03  0.12509103890E+03 0.  0.
          5    1    3    3  502    0  0.96695858457E+01 -0.32842821438E+02  0.68197225668E+02  0.76423071119E+02  0.41800000000E+01 0. -1.
         -5    1    3    3    0  502 -0.21124132380E+02  0.37117297792E+02 -0.32961532443E+02  0.54109682915E+02  0.41800000000E+01 0. -1.
        -11    1    1    2    0    0  0.32268011317E+02  0.20150512087E+02  0.56035158141E+02  0.67728920260E+02  0.00000000000E+00 0.  1.
         11    1    1    2    0    0 -0.20813464782E+02 -0.24424988441E+02 -0.13678214711E+02  0.34883720189E+02  0.00000000000E+00 0. -1.
</event>
<event>
 7    1  0.2530765E-009  0.1094920E+03  0.7561462E-02  0.1261514E+00
         -2   -1    0    0    0  501 -0.00000000000E+00  0.00000000000E+00  0.20731860596E+03  0.20731860596E+03  0.00000000000E+00 0.  1.
          2   -1    0    0  501    0  0.00000000000E+00 -0.00000000000E+00 -0.14537333904E+03  0.14537333904E+03  0.00000000000E+00 0. -1.
         25    2    1    2    0    0  0.33669372147E+02  0.14319186542E+02 -0.99012339093E+02  0.16367547200E+03  0.12509017195E+03 0.  0.
          5    1    3    3  502    0 -0.21913641211E+02 -0.41598619189E+02 -0.17905185147E+02  0.50484857578E+02  0.41800000000E+01 0. -1.
         -5    1    3    3    0  502  0.55583013359E+02  0.55917805731E+02 -0.81107153946E+02  0.11319061442E+03  0.41800000000E+01 0. -1.
        -11    1    1    2    0    0 -0.50769142197E+02 -0.38143280303E+02  0.13752833676E+03  0.15148088673E+03  0.00000000000E+00 0.  1.
         11    1    1    2    0    0  0.17099770049E+02  0.23824093761E+02  0.23429269253E+02  0.37535586275E+02  0.00000000000E+00 0. -1.
</event>
<event>
 7    1  0.2530765E-009  0.1004811E+03  0.7561462E-02  0.1279288E+00
         -3   -1    0    0    0  501 -0.00000000000E+00  0.00000000000E+00  0.11446188775E+03  0.11446188775E+03  0.00000000000E+00 0.  1.
          3   -1    0    0  501    0  0.00000000000E+00 -0.00000000000E+00 -0.11461946586E+03  0.11461946586E+03  0.00000000000E+00 0. -1.
         25    2    1    2    0    0 -0.21804021504E+02  0.21116441000E+02  0.21974294422E+02  0.13058179035E+03  0.12508962756E+03 0.  0.
          5    1    3    3  502    0  0.22214220482E+02 -0.40758030247E+02  0.27870565592E+02  0.54304046329E+02  0.41800000000E+01 0.  1.
         -5    1    3    3    0  502 -0.44018241986E+02  0.61874471247E+02 -0.58962711699E+01  0.76277744024E+02  0.41800000000E+01 0.  1.
        -11    1    1    2    0    0 -0.19284715000E+02 -0.30569454509E+02  0.17923388458E+02  0.40344016104E+02  0.00000000000E+00 0.  1.
         11    1    1    2    0    0  0.41088736505E+02  0.94530135086E+01 -0.40055260986E+02  0.58155547152E+02  0.00000000000E+00 0. -1.
</event>
<event>
 7    1  0.2530765E-009  0.1003336E+03  0.7561462E-02  0.1279596E+00
          1   -1    0    0  501    0  0.00000000000E+00  0.00000000000E+00  0.26053141081E+02  0.26053141081E+02  0.00000000000E+00 0.  1.
         -1   -1    0    0    0  501 -0.00000000000E+00 -0.00000000000E+00 -0.66367359964E+03  0.66367359964E+03  0.00000000000E+00 0. -1.
         25    2    1    2    0    0 -0.55278776310E+02 -0.11862202984E+02 -0.47681018596E+03  0.49617600983E+03  0.12508486850E+03 0.  0.
          5    1    3    3  502    0  0.24406279786E+00 -0.44281502447E+02 -0.36031961927E+03  0.36305455713E+03  0.41800000000E+01 0.  1.
         -5    1    3    3    0  502 -0.55522839108E+02  0.32419299463E+02 -0.11649056669E+03  0.13312145270E+03  0.41800000000E+01 0.  1.
        -11    1    1    2    0    0  0.45420946439E+02 -0.26202800165E+02 -0.38438146702E+02  0.65016461252E+02  0.00000000000E+00 0.  1.
         11    1    1    2    0    0  0.98578298716E+01  0.38065003149E+02 -0.12237212590E+03  0.12853426964E+03  0.00000000000E+00 0. -1.
</event>
<event>
 7    1  0.2530765E-009  0.1092606E+03  0.7561462E-02  0.1261945E+00
          3   -1    0    0  501    0  0.00000000000E+00  0.00000000000E+00  0.14304732052E+03  0.14304732052E+03  0.00000000000E+00 0. -1.
         -3   -1    0    0    0  501 -0.00000000000E+00 -0.00000000000E+00 -0.94964189350E+02  0.94964189350E+02  0.00000000000E+00 0.  1.
         25    2    1    2    0    0  0.26205591478E+02 -0.14610443147E+02  0.47235422084E+02  0.13703809528E+03  0.12509219154E+03 0.  0.
          5    1    3    3  502    0  0.32803574203E+02  0.45902595568E+02 -0.48959869241E+01  0.56785260837E+02  0.41800000000E+01 0. -1.
         -5    1    3    3    0  502 -0.65979827247E+01 -0.60513038715E+02  0.52131409008E+02  0.80252834441E+02  0.41800000000E+01 0. -1.
        -11    1    1    2    0    0  0.34710892593E+02  0.19511816572E+02  0.16785554559E+01  0.39854417559E+02  0.00000000000E+00 0.  1.
         11    1    1    2    0    0 -0.60916484071E+02 -0.49013734248E+01 -0.83084636569E+00  0.61118997037E+02  0.00000000000E+00 0. -1.
</event>
<event>
 7    1  0.2530765E-009  0.1267353E+03  0.7561462E-02  0.1232382E+00
         -2   -1    0    0    0  501 -0.00000000000E+00  0.00000000000E+00  0.42735525054E+02  0.42735525054E+02  0.00000000000E+00 0. -1.
          2   -1    0    0  501    0  0.00000000000E+00 -0.00000000000E+00 -0.47526421966E+03  0.47526421966E+03  0.00000000000E+00 0.  1.
         25    2    1    2    0    0 -0.16422103803E+01  0.79214100328E+02 -0.31617621426E+03  0.34913109069E+03  0.12509016539E+03 0.  0.
          5    1    3    3  502    0  0.26732960034E+02 -0.20188760807E+02 -0.31248949820E+02  0.46002244293E+02  0.41800000000E+01 0.  1.
         -5    1    3    3    0  502 -0.28375170414E+02  0.99402861135E+02 -0.28492726444E+03  0.30312884640E+03  0.41800000000E+01 0.  1.
        -11    1    1    2    0    0 -0.41597024545E+02 -0.34381021500E+02 -0.80754721928E+02  0.97127196007E+02  0.00000000000E+00 0.  1.
         11    1    1    2    0    0  0.43239234926E+02 -0.44833078829E+02 -0.35597758421E+02  0.71741458020E+02  0.00000000000E+00 0. -1.
</event>
<event>
 7    1  0.2530765E-009  0.1404239E+03  0.7561462E-02  0.1212760E+00
          1   -1    0    0  501    0  0.00000000000E+00  0.00000000000E+00  0.11468737669E+03  0.11468737669E+03  0.00000000000E+00 0. -1.
         -1   -1    0    0    0  501 -0.00000000000E+00 -0.00000000000E+00 -0.23344365787E+03  0.23344365787E+03  0.00000000000E+00 0.  1.
         25    2    1    2    0    0  0.77161727084E+01 -0.10263944985E+03 -0.13430044131E+03  0.21042431136E+03  0.12508951310E+03 0.  0.
          5    1    3    3  502    0 -0.21769805851E+02  0.12671231511E+02  0.61646304117E+01  0.26267082497E+02  0.41800000000E+01 0. -1.
         -5    1    3    3    0  502  0.29485978559E+02 -0.11531068136E+03 -0.14046507172E+03  0.18415722886E+03  0.41800000000E+01 0. -1.
        -11    1    1    2    0    0  0.38735980392E+02  0.68056546228E+02  0.15329456000E+02  0.79794497822E+02  0.00000000000E+00 0. -1.
         11    1    1    2    0    0 -0.46452153100E+02  0.34582903622E+02  0.21470413107E+00  0.57912225380E+02  0.00000000000E+00 0.  1.
</event>
<event>
 7    1  0.2530765E-009  0.1468944E+03  0.7561462E-02  0.1204342E+00
          2   -1    0    0  501    0  0.00000000000E+00  0.00000000000E+00  0.42764139725E+03  0.42764139725E+03  0.00000000000E+00 0. -1.
         -2   -1    0    0    0  501 -0.00000000000E+00 -0.00000000000E+00 -0.68446006042E+02  0.68446006042E+02  0.00000000000E+00 0.  1.
         25    2    1    2    0    0 -0.10905575547E+03  0.67862889231E+02  0.15985717366E+03  0.24020934896E+03  0.12509071037E+03 0.  0.
          5    1    3    3  502    0  0.21314299481E+01  0.45913657236E+02  0.24707898298E+01  0.46218871868E+02  0.41800000000E+01 0.  1.
         -5    1    3    3    0  502 -0.11118718542E+03  0.21949231995E+02  0.15738638383E+03  0.19399047710E+03  0.41800000000E+01 0.  1.
        -11    1    1    2    0    0  0.76151184861E+02 -0.24917727481E+02  0.44048692207E+02  0.91434038430E+02  0.00000000000E+00 0.  1.
         11    1    1    2    0    0  0.32904570614E+02 -0.42945161750E+02  0.15528952534E+03  0.16444401590E+03  0.00000000000E+00 0. -1.
</event>
<event>
 7    1  0.2530765E-009  0.8748917E+02  0.7561462E-02  0.1309049E+00
          1   -1    0    0  501    0  0.00000000000E+00  0.00000000000E+00  0.61791052408E+03  0.61791052408E+03  0.00000000000E+00 0. -1.
         -1   -1    0    0    0  501 -0.00000000000E+00 -0.00000000000E+00 -0.21378402776E+02  0.21378402776E+02  0.00000000000E+00 0.  1.
         25    2    1    2    0    0  0.11584427594E+02 -0.36790118681E+02  0.36931806263E+03  0.39182868376E+03  0.12508466826E+03 0.  0.
          5    1    3    3  502    0  0.28437858825E+02 -0.53396584280E+02  0.74623878120E+02  0.96156656624E+02  0.41800000000E+01 0.  1.
         -5    1    3    3    0  502 -0.16853431231E+02  0.16606465600E+02  0.29469418451E+03  0.29567202713E+03  0.41800000000E+01 0.  1.
        -11    1    1    2    0    0 -0.34925399120E+02  0.51862265817E+02  0.10568668512E+03  0.12279720490E+03  0.00000000000E+00 0.  1.
         11    1    1    2    0    0  0.23340971526E+02 -0.15072147137E+02  0.12152737355E+03  0.12466303820E+03  0.00000000000E+00 0. -1.
</event>
<event>
 7    1  0.2530765E-009  0.1601367E+03  0.7561462E-02  0.1188542E+00
          1   -1    0    0  501    0  0.00000000000E+00  0.00000000000E+00  0.19477262259E+04  0.19477262259E+04  0.00000000000E+00 0. -1.
         -1   -1    0    0    0  501 -0.00000000000E+00 -0.00000000000E+00 -0.19498382221E+02  0.19498382221E+02  0.00000000000E+00 0.  1.
         25    2    1    2    0    0  0.25838804780E+02 -0.12700879565E+03  0.14656334793E+04  0.14766626146E+04  0.12510836794E+03 0.  0.
          5    1    3    3  502    0  0.10772938011E+02 -0.13763662278E+03  0.14268214556E+04  0.14334911352E+04  0.41800000000E+01 0.  1.
         -5    1    3    3    0  502  0.15065866769E+02  0.10627827128E+02  0.38812023706E+02  0.43171479418E+02  0.41800000000E+01 0.  1.
        -11    1    1    2    0    0  0.24452381825E+02  0.10593317721E+03  0.31200907222E+03  0.33040795717E+03  0.00000000000E+00 0.  1.
         11    1    1    2    0    0 -0.50291186606E+02  0.21075618435E+02  0.15058529210E+03  0.16015403629E+03  0.00000000000E+00 0. -1.
</event>
<event>
 7    1  0.2530765E-009  0.3591156E+03  0.7561462E-02  0.1058935E+00
          3   -1    0    0  501    0  0.00000000000E+00  0.00000000000E+00  0.10732594682E+03  0.10732594682E+03  0.00000000000E+00 0. -1.
         -3   -1    0    0    0  501 -0.00000000000E+00 -0.00000000000E+00 -0.12410308824E+04  0.12410308824E+04  0.00000000000E+00 0.  1.
         25    2    1    2    0    0  0.25614164796E+03  0.23502362328E+03 -0.54336115343E+03  0.65706455732E+03  0.12509133508E+03 0.  0.
          5    1    3    3  502    0  0.96640731026E+02  0.17275579401E+03 -0.28109722533E+03  0.34382716260E+03  0.41800000000E+01 0.  1.
         -5    1    3    3    0  502  0.15950091694E+03  0.62267829267E+02 -0.26226392810E+03  0.31323739472E+03  0.41800000000E+01 0.  1.
        -11    1    1    2    0    0 -0.18649119602E+03 -0.15197740633E+03 -0.32247565536E+03  0.40232654216E+03  0.00000000000E+00 0.  1.
         11    1    1    2    0    0 -0.69650451948E+02 -0.83046216951E+02 -0.26786812677E+03  0.28896572971E+03  0.00000000000E+00 0. -1.
</event>
<event>
 7    1  0.2530765E-009  0.1683332E+03  0.7561462E-02  0.1179597E+00
         -1   -1    0    0    0  501 -0.00000000000E+00  0.00000000000E+00  0.12216825413E+03  0.12216825413E+03  0.00000000000E+00 0.  1.
          1   -1    0    0  501    0  0.00000000000E+00 -0.00000000000E+00 -0.36228787776E+03  0.36228787776E+03  0.00000000000E+00 0. -1.
         25    2    1    2    0    0 -0.69176260204E+02 -0.12027646067E+03  0.67751090275E+01  0.18693952528E+03  0.12509477224E+03 0.  0.
          5    1    3    3  502    0 -0.91068012597E+02 -0.39452069370E+02 -0.14638446835E+02  0.10040719706E+03  0.41800000000E+01 0.  1.
         -5    1    3    3    0  502  0.21891752393E+02 -0.80824391304E+02  0.21413555862E+02  0.86532328220E+02  0.41800000000E+01 0.  1.
        -11    1    1    2    0    0  0.49263684810E+01  0.74353667498E+02 -0.63732370735E+02  0.98053822242E+02  0.00000000000E+00 0.  1.
         11    1    1    2    0    0  0.64249891723E+02  0.45922793177E+02 -0.18316236192E+03  0.19946278436E+03  0.00000000000E+00 0. -1.
</event>
<event>
 7    1  0.2530765E-009  0.1767626E+03  0.7561462E-02  0.1170974E+00
         -3   -1    0    0    0  501 -0.00000000000E+00  0.00000000000E+00  0.92485022590E+02  0.92485022590E+02  0.00000000000E+00 0.  1.
          3   -1    0    0  501    0  0.00000000000E+00 -0.00000000000E+00 -0.37762294534E+03  0.37762294534E+03  0.00000000000E+00 0. -1.
         25    2    1    2    0    0 -0.11283808678E+03 -0.10215631258E+03 -0.14388290612E+03  0.24396184381E+03  0.12508694790E+03 0.  0.
          5    1    3    3  502    0 -0.20588051868E+02  0.18630945298E+02 -0.68966971372E+02  0.74464055373E+02  0.41800000000E+01 0. -1.
         -5    1    3    3    0  502 -0.92250034909E+02 -0.12078725788E+03 -0.74915934745E+02  0.16949778844E+03  0.41800000000E+01 0. -1.
        -11    1    1    2    0    0  0.77328010201E+02  0.14296981225E+02 -0.42951894694E+02  0.89604074079E+02  0.00000000000E+00 0.  1.
         11    1    1    2    0    0  0.35510076576E+02  0.87859331359E+02 -0.98303121941E+02  0.13654205004E+03  0.00000000000E+00 0. -1.
</event>
<event>
 7    1  0.2530765E-009  0.1351594E+03  0.7561462E-02  0.1219995E+00
         -1   -1    0    0    0  501 -0.00000000000E+00  0.00000000000E+00  0.23397835726E+03  0.23397835726E+03  0.00000000000E+00 0. -1.
          1   -1    0    0  501    0  0.00000000000E+00 -0.00000000000E+00 -0.30242273873E+03  0.30242273873E+03  0.00000000000E+00 0.  1.
         25    2    1    2    0    0 -0.66944452825E+02 -0.56371510707E+02  0.23302633619E+01  0.15268233744E+03  0.12508860482E+03 0.  0.
          5    1    3    3  502    0  0.33927798745E+02  0.43429468683E+01  0.51378899441E+01  0.34840020498E+02  0.41800000000E+01 0.  1.
         -5    1    3    3    0  502 -0.10087225157E+03 -0.60714457575E+02 -0.28076265822E+01  0.11784231694E+03  0.41800000000E+01 0.  1.
        -11    1    1    2    0    0  0.57508313859E+02 -0.33334820208E+01  0.14690873397E+03  0.15779890488E+03  0.00000000000E+00 0. -1.
         11    1    1    2    0    0  0.94361389665E+01  0.59704992727E+02 -0.21768337880E+03  0.22591985367E+03  0.00000000000E+00 0.  1.
</event>
<event>
 7    1  0.2530765E-009  0.9782586E+02  0.7561462E-02  0.1284935E+00
         -1   -1    0    0    0  501 -0.00000000000E+00  0.00000000000E+00  0.37170350951E+03  0.37170350951E+03  0.00000000000E+00 0.  1.
          1   -1    0    0  501    0  0.00000000000E+00 -0.00000000000E+00 -0.34260444143E+02  0.34260444143E+02  0.00000000000E+00 0. -1.
         25    2    1    2    0    0  0.31264645758E+02 -0.10034083804E+02  0.18866994061E+03  0.22874045013E+03  0.12509071158E+03 0.  0.
          5    1    3    3  502    0  0.49905693684E+01 -0.63648101220E+02  0.13018904986E+03  0.14506084128E+03  0.41800000000E+01 0.  1.
         -5    1    3    3    0  502  0.26274076390E+02  0.53614017416E+02  0.58480890754E+02  0.83679608848E+02  0.41800000000E+01 0.  1.
        -11    1    1    2    0    0 -0.32243805728E+02  0.34564804997E+02  0.30103778557E+02  0.56041290453E+02  0.00000000000E+00 0. -1.
         11    1    1    2    0    0  0.97915996996E+00 -0.24530721193E+02  0.11866934620E+03  0.12118221307E+03  0.00000000000E+00 0.  1.
</event>
<event>
 7    1  0.2530765E-009  0.2140108E+03  0.7561462E-02  0.1138429E+00
         -1   -1    0    0    0  501 -0.00000000000E+00  0.00000000000E+00  0.33247838092E+02  0.33247838092E+02  0.00000000000E+00 0.  1.
          1   -1    0    0  501    0  0.00000000000E+00 -0.00000000000E+00 -0.17148869399E+04  0.17148869399E+04  0.00000000000E+00 0. -1.
         25    2    1    2    0    0  0.19737584174E+03  0.48184799098E+02 -0.64590314453E+03  0.68856080932E+03  0.12508444446E+03 0.  0.
          5    1    3    3  502    0  0.16965854397E+02  0.10140205323E+02 -0.26073156014E+03  0.26151306436E+03  0.41800000000E+01 0.  1.
         -5    1    3    3    0  502  0.18040998734E+03  0.38044593775E+02 -0.38517158439E+03  0.42704774495E+03  0.41800000000E+01 0.  1.
        -11    1    1    2    0    0 -0.71667083029E+02  0.27383004495E+02 -0.34105573506E+03  0.34957833763E+03  0.00000000000E+00 0.  1.
         11    1    1    2    0    0 -0.12570875871E+03 -0.75567803593E+02 -0.69468022220E+03  0.70999563102E+03  0.00000000000E+00 0. -1.
</event>
<event>
 7    1  0.2530765E-009  0.1161733E+03  0.7561462E-02  0.1249547E+00
         -2   -1    0    0    0  501 -0.00000000000E+00  0.00000000000E+00  0.12769663470E+04  0.12769663470E+04  0.00000000000E+00 0. -1.
          2   -1    0    0  501    0  0.00000000000E+00 -0.00000000000E+00 -0.11911679333E+02  0.11911679333E+02  0.00000000000E+00 0.  1.
         25    2    1    2    0    0  0.38624107498E+02  0.12407644361E+02  0.90617033657E+03  0.91566279145E+03  0.12509155628E+03 0.  0.
          5    1    3    3  502    0  0.65572762719E+02  0.50648831911E+02  0.64355730939E+03  0.64888255813E+03  0.41800000000E+01 0.  1.
         -5    1    3    3    0  502 -0.26948655221E+02 -0.38241187550E+02  0.26261302718E+03  0.26678023332E+03  0.41800000000E+01 0.  1.
        -11    1    1    2    0    0 -0.66480247817E+02  0.92643136730E+01  0.23796576806E+03  0.24725120349E+03  0.00000000000E+00 0.  1.
         11    1    1    2    0    0  0.27856140318E+02 -0.21671958034E+02  0.12091856308E+03  0.12596403144E+03  0.00000000000E+00 0. -1.
</event>
<event>
 7    1  0.2530765E-009  0.1119457E+03  0.7561462E-02  0.1257009E+00
         -2   -1    0    0    0  501 -0.00000000000E+00  0.00000000000E+00  0.20672172229E+02  0.20672172229E+02  0.00000000000E+00 0.  1.
          2   -1    0    0  501    0  0.00000000000E+00 -0.00000000000E+00 -0.83511347992E+03  0.83511347992E+03  0.00000000000E+00 0. -1.
         25    2    1    2    0    0  0.21888674631E+02  0.56648885947E+02 -0.60527090497E+03  0.62103865704E+03  0.12509170549E+03 0.  0.
          5    1    3    3  502    0  0.11551023286E+02  0.90822746008E+02 -0.52697152277E+03  0.53488190803E+03  0.41800000000E+01 0.  1.
         -5    1    3    3    0  502  0.10337651344E+02 -0.34173860061E+02 -0.78299382198E+02  0.86156749007E+02  0.41800000000E+01 0.  1.
        -11    1    1    2    0    0  0.12657649346E+02 -0.60246231756E+02 -0.79748649532E+02  0.10074557871E+03  0.00000000000E+00 0.  1.
         11    1    1    2    0    0 -0.34546323977E+02  0.35973458082E+01 -0.12942175319E+03  0.13400141639E+03  0.00000000000E+00 0. -1.
</event>
<event>
 7    1  0.2530765E-009  0.2593219E+03  0.7561462E-02  0.1107551E+00
          2   -1    0    0  501    0  0.00000000000E+00  0.00000000000E+00  0.86900309364E+03  0.86900309364E+03  0.00000000000E+00 0. -1.
         -2   -1    0    0    0  501 -0.00000000000E+00 -0.00000000000E+00 -0.10112467720E+03  0.10112467720E+03  0.00000000000E+00 0.  1.
         25    2    1    2    0    0  0.24637049685E+02  0.23676952835E+03  0.62186808150E+03  0.67752068735E+03  0.12509027629E+03 0.  0.
          5    1    3    3  502    0  0.72731833752E+02  0.13391685740E+03  0.40398163728E+03  0.43178962469E+03  0.41800000000E+01 0.  1.
         -5    1    3    3    0  502 -0.48094784067E+02  0.10285267095E+03  0.21788644422E+03  0.24573106265E+03  0.41800000000E+01 0.  1.
        -11    1    1    2    0    0  0.30664180821E+02 -0.60396719164E+02  0.50934650811E+02  0.84749007808E+02  0.00000000000E+00 0.  1.
         11    1    1    2    0    0 -0.55301230506E+02 -0.17637280918E+03  0.95075684134E+02  0.20785807569E+03  0.00000000000E+00 0. -1.
</event>
<event>
 7    1  0.2530765E-009  0.2188311E+03  0.7561462E-02  0.1134758E+00
          2   -1    0    0  501    0  0.00000000000E+00  0.00000000000E+00  0.32317977662E+03  0.32317977662E+03  0.00000000000E+00 0. -1.
         -2   -1    0    0    0  501 -0.00000000000E+00 -0.00000000000E+00 -0.16580872031E+03  0.16580872031E+03  0.00000000000E+00 0.  1.
         25    2    1    2    0    0 -0.19037019745E+03 -0.38441609090E+02  0.15320491914E+02  0.23151973243E+03  0.12509236446E+03 0.  0.
          5    1    3    3  502    0 -0.87810801182E+02 -0.75280596578E+02  0.34543471590E+02  0.12078339644E+03  0.41800000000E+01 0. -1.
         -5    1    3    3    0  502 -0.10255939626E+03  0.36838987488E+02 -0.19222979676E+02  0.11073633599E+03  0.41800000000E+01 0. -1.
        -11    1    1    2    0    0  0.22515531183E+02  0.38977328652E+02  0.44644819404E+02  0.63398274368E+02  0.00000000000E+00 0. -1.
         11    1    1    2    0    0  0.16785466626E+03 -0.53571956183E+00  0.97405745000E+02  0.19407049013E+03  0.00000000000E+00 0.  1.
</event>
<event>
 7    1  0.2530765E-009  0.1363945E+03  0.7561462E-02  0.1218264E+00
          2   -1    0    0  501    0  0.00000000000E+00  0.00000000000E+00  0.70234616385E+03  0.70234616385E+03  0.00000000000E+00 0. -1.
         -2   -1    0    0    0  501 -0.00000000000E+00 -0.00000000000E+00 -0.31581951175E+02  0.31581951175E+02  0.00000000000E+00 0.  1.
         25    2    1    2    0    0 -0.25400852871E+01 -0.84750533095E+02  0.47223472034E+03  0.49582367615E+03  0.12508549815E+03 0.  0.
          5    1    3    3  502    0 -0.48073087823E+01 -0.11276246719E+03  0.43231800736E+03  0.44682750152E+03  0.41800000000E+01 0.  1.
         -5    1    3    3    0  502  0.22672234952E+01  0.28011934093E+02  0.39916712976E+02  0.48996174634E+02  0.41800000000E+01 0.  1.
        -11    1    1    2    0    0 -0.33489566550E+02 -0.57914757643E+01  0.49601104926E+02  0.60127879300E+02  0.00000000000E+00 0. -1.
         11    1    1    2    0    0  0.36029651837E+02  0.90542008860E+02  0.14892838741E+03  0.17797655957E+03  0.00000000000E+00 0.  1.
</event>
<event>
 7    1  0.2530765E-009  0.1362364E+03  0.7561462E-02  0.1218485E+00
         -2   -1    0    0    0  501 -0.00000000000E+00  0.00000000000E+00  0.13365233041E+03  0.13365233041E+03  0.00000000000E+00 0.  1.
          2   -1    0    0  501    0  0.00000000000E+00 -0.00000000000E+00 -0.21628133088E+03  0.21628133088E+03  0.00000000000E+00 0. -1.
         25    2    1    2    0    0 -0.34585511465E+02 -0.80055206196E+02  0.56166872619E+02  0.16250137274E+03  0.12508790877E+03 0.  0.
          5    1    3    3  502    0 -0.67055052724E+01 -0.10862861967E+03  0.25169459697E+02  0.11178602289E+03  0.41800000000E+01 0. -1.
         -5    1    3    3    0  502 -0.27880006193E+02  0.28573413470E+02  0.30997412923E+02  0.50715349851E+02  0.41800000000E+01 0. -1.
        -11    1    1    2    0    0 -0.28742482904E+02  0.14219084934E+02 -0.53935073155E+02  0.62747946708E+02  0.00000000000E+00 0. -1.
         11    1    1    2    0    0  0.63327994369E+02  0.65836121262E+02 -0.84860799939E+02  0.12468434184E+03  0.00000000000E+00 0.  1.
</event>
<event>
 7    1  0.2530765E-009  0.9782638E+02  0.7561462E-02  0.1284934E+00
          1   -1    0    0  501    0  0.00000000000E+00  0.00000000000E+00  0.24056350737E+03  0.24056350737E+03  0.00000000000E+00 0. -1.
         -1   -1    0    0    0  501 -0.00000000000E+00 -0.00000000000E+00 -0.59062908087E+02  0.59062908087E+02  0.00000000000E+00 0.  1.
         25    2    1    2    0    0 -0.29132205470E+02 -0.78571592271E+01  0.56052696483E+02  0.14035351119E+03  0.12508710155E+03 0.  0.
          5    1    3    3  502    0  0.39209016569E+02  0.27152455099E+02  0.38598235143E+02  0.61497145905E+02  0.41800000000E+01 0. -1.
         -5    1    3    3    0  502 -0.68341222039E+02 -0.35009614327E+02  0.17454461340E+02  0.78856365283E+02  0.41800000000E+01 0. -1.
        -11    1    1    2    0    0 -0.19962852613E+02 -0.40242923421E+01 -0.36100663823E+01  0.20681948472E+02  0.00000000000E+00 0. -1.
         11    1    1    2    0    0  0.49095058083E+02  0.11881451569E+02  0.12905796919E+03  0.13859095580E+03  0.00000000000E+00 0.  1.
</event>
<event>
 7    1  0.2530765E-009  0.7500046E+02  0.7561462E-02  0.1343870E+00
         -2   -1    0    0    0  501 -0.00000000000E+00  0.00000000000E+00  0.19628649020E+03  0.19628649020E+03  0.00000000000E+00 0.  1.
          2   -1    0    0  501    0  0.00000000000E+00 -0.00000000000E+00 -0.77958330310E+02  0.77958330310E+02  0.00000000000E+00 0. -1.
         25    2    1    2    0    0  0.11699055415E+02  0.30016548240E+02  0.10585683403E+02  0.12959870277E+03  0.12508359605E+03 0.  0.
          5    1    3    3  502    0  0.32743774307E+02  0.45458668124E+02  0.54545449919E+02  0.78302769876E+02  0.41800000000E+01 0. -1.
         -5    1    3    3    0  502 -0.21044718892E+02 -0.15442119885E+02 -0.43959766516E+02  0.51295932898E+02  0.41800000000E+01 0. -1.
        -11    1    1    2    0    0  0.22513161439E+02 -0.23529015939E+02  0.10475087900E+03  0.10969596019E+03  0.00000000000E+00 0.  1.
         11    1    1    2    0    0 -0.34212216854E+02 -0.64875323008E+01  0.29915974869E+01  0.34950157553E+02  0.00000000000E+00 0. -1.
</event>
<event>
 7    1  0.2530765E-009  0.1353959E+03  0.7561462E-02  0.1219662E+00
          3   -1    0    0  501    0  0.00000000000E+00  0.00000000000E+00  0.56456125100E+03  0.56456125100E+03  0.00000000000E+00 0. -1.
         -3   -1    0    0    0  501 -0.00000000000E+00 -0.00000000000E+00 -0.44381271980E+02  0.44381271980E+02  0.00000000000E+00 0.  1.
         25    2    1    2    0    0 -0.19710406591E+02 -0.10439002489E+03  0.36044321459E+03  0.39605026616E+03  0.12510285750E+03 0.  0.
          5    1    3    3  502    0 -0.27486816913E+01 -0.12432887374E+03  0.21670043680E+03  0.24988352448E+03  0.41800000000E+01 0. -1.
         -5    1    3    3    0  502 -0.16961724900E+02  0.19938848854E+02  0.14374277779E+03  0.14616674168E+03  0.41800000000E+01 0. -1.
        -11    1    1    2    0    0  0.14915611987E+02 -0.43167097511E+00  0.79262955495E+02  0.80655303202E+02  0.00000000000E+00 0. -1.
         11    1    1    2    0    0  0.47947946045E+01  0.10482169586E+03  0.80473808932E+02  0.13223695362E+03  0.00000000000E+00 0.  1.
</event>
<event>
 7    1  0.2530765E-009  0.1459015E+03  0.7561462E-02  0.1205602E+00
         -1   -1    0    0    0  501 -0.00000000000E+00  0.00000000000E+00  0.27757070519E+03  0.27757070519E+03  0.00000000000E+00 0.  1.
          1   -1    0    0  501    0  0.00000000000E+00 -0.00000000000E+00 -0.88707593661E+02  0.88707593661E+02  0.00000000000E+00 0. -1.
         25    2    1    2    0    0  0.64420231987E+02  0.84797882747E+02  0.14691218509E+03  0.22038812206E+03  0.12508831684E+03 0.  0.
          5    1    3    3  502    0  0.81340387535E+02  0.18175724962E+02  0.12062308378E+03  0.14667657060E+03  0.41800000000E+01 0. -1.
         -5    1    3    3    0  502 -0.16920155548E+02  0.66622157784E+02  0.26289101311E+02  0.73711551465E+02  0.41800000000E+01 0. -1.
        -11    1    1    2    0    0 -0.80543647174E+02 -0.36236670081E+02  0.22415652312E+02  0.91119903573E+02  0.00000000000E+00 0.  1.
         11    1    1    2    0    0  0.16123415187E+02 -0.48561212666E+02  0.19535274130E+02  0.54770273217E+02  0.00000000000E+00 0. -1.
</event>
<event>
 7    1  0.2530765E-009  0.1465653E+03  0.7561462E-02  0.1204758E+00
          2   -1    0    0  501    0  0.00000000000E+00  0.00000000000E+00  0.12846712735E+03  0.12846712735E+03  0.00000000000E+00 0. -1.
         -2   -1    0    0    0  501 -0.00000000000E+00 -0.00000000000E+00 -0.41676313309E+03  0.41676313309E+03  0.00000000000E+00 0.  1.
         25    2    1    2    0    0 -0.76389064522E+02 -0.92186003132E+02 -0.34456198154E+03  0.38562214751E+03  0.12509169906E+03 0.  0.
          5    1    3    3  502    0 -0.46653775390E+01  0.30384578491E+02 -0.58159868435E+02  0.65916849546E+02  0.41800000000E+01 0. -1.
         -5    1    3    3    0  502 -0.71723686983E+02 -0.12257058162E+03 -0.28640211311E+03  0.31970529796E+03  0.41800000000E+01 0. -1.
        -11    1    1    2    0    0  0.48520696451E+02  0.51922255029E+02  0.78448438772E+02  0.10585053659E+03  0.00000000000E+00 0.  1.
         11    1    1    2    0    0  0.27868368071E+02  0.40263748103E+02 -0.22182462964E+02  0.53757576335E+02  0.00000000000E+00 0. -1.
</event>
<event>
 7    1  0.2530765E-009  0.8674077E+02  0.7561462E-02  0.1310942E+00
          1   -1    0    0  501    0  0.00000000000E+00  0.00000000000E+00  0.92679094481E+03  0.92679094481E+03  0.00000000000E+00 0. -1.
         -1   -1    0    0    0  501 -0.00000000000E+00 -0.00000000000E+00 -0.20379510053E+02  0.20379510053E+02  0.00000000000E+00 0.  1.
         25    2    1    2    0    0 -0.37605406742E+02 -0.28235458795E+02  0.73404563546E+03  0.74611138484E+03  0.12509115035E+03 0.  0.
          5    1    3    3  502    0  0.85242031735E+01 -0.26214797886E+02  0.31616721402E+02  0.42154088060E+02  0.41800000000E+01 0. -1.
         -5    1    3    3    0  502 -0.46129609915E+02 -0.20206609088E+01  0.70242891406E+03  0.70395729678E+03  0.41800000000E+01 0. -1.
        -11    1    1    2    0    0  0.88850361770E+01 -0.31622141730E+02  0.32360064267E+02  0.46109407661E+02  0.00000000000E+00 0.  1.
         11    1    1    2    0    0  0.28720370565E+02  0.59857600524E+02  0.14000573503E+03  0.15494966237E+03  0.00000000000E+00 0. -1.
</event>
<event>
 7    1  0.2530765E-009  0.1275738E+03  0.7561462E-02  0.1231101E+00
         -1   -1    0    0    0  501 -0.00000000000E+00  0.00000000000E+00  0.10034071738E+03  0.10034071738E+03  0.00000000000E+00 0.  1.
          1   -1    0    0  501    0  0.00000000000E+00 -0.00000000000E+00 -0.22829978108E+03  0.22829978108E+03  0.00000000000E+00 0. -1.
         25    2    1    2    0    0 -0.62861593803E+02 -0.32475139850E+02  0.16229754205E+02  0.14462838640E+03  0.12509096909E+03 0.  0.
          5    1    3    3  502    0 -0.24268183747E+02 -0.77546445881E+02 -0.48823186789E+01  0.81508928633E+02  0.41800000000E+01 0. -1.
         -5    1    3    3    0  502 -0.38593410056E+02  0.45071306031E+02  0.21112072884E+02  0.63119457765E+02  0.41800000000E+01 0. -1.
        -11    1    1    2    0    0 -0.19421675221E+02 -0.98427816437E+01 -0.28945294396E+02  0.36220324219E+02  0.00000000000E+00 0.  1.
         11    1    1    2    0    0  0.82283269023E+02  0.42317921494E+02 -0.11524352352E+03  0.14779178784E+03  0.00000000000E+00 0. -1.
</event>
<event>
 7    1  0.2530765E-009  0.1501844E+03  0.7561462E-02  0.1200247E+00
          4   -1    0    0  501    0  0.00000000000E+00  0.00000000000E+00  0.80605467509E+02  0.80605467509E+02  0.00000000000E+00 0. -1.
         -4   -1    0    0    0  501 -0.00000000000E+00 -0.00000000000E+00 -0.35094213679E+03  0.35094213679E+03  0.00000000000E+00 0.  1.
         25    2    1    2    0    0  0.10644410248E+03 -0.31682411150E+01 -0.54533437436E+02  0.17309724128E+03  0.12509346281E+03 0.  0.
          5    1    3    3  502    0  0.13214412694E+03  0.10414185805E+02 -0.55378399613E+02  0.14371765756E+03  0.41800000000E+01 0. -1.
         -5    1    3    3    0  502 -0.25700024466E+02 -0.13582426920E+02  0.84496217698E+00  0.29379583722E+02  0.41800000000E+01 0. -1.
        -11    1    1    2    0    0 -0.72335388532E+02 -0.40554572106E+02 -0.15743037228E+03  0.17793651641E+03  0.00000000000E+00 0.  1.
         11    1    1    2    0    0 -0.34108713945E+02  0.43722813221E+02 -0.58372859564E+02  0.80513846614E+02  0.00000000000E+00 0. -1.
</event>
<event>
 7    1  0.2530765E-009  0.2293100E+03  0.7561462E-02  0.1127126E+00
         -1   -1    0    0    0  501 -0.00000000000E+00  0.00000000000E+00  0.10207353154E+03  0.10207353154E+03  0.00000000000E+00 0.  1.
          1   -1    0    0  501    0  0.00000000000E+00 -0.00000000000E+00 -0.59139876658E+03  0.59139876658E+03  0.00000000000E+00 0. -1.
         25    2    1    2    0    0 -0.18311216072E+03  0.11383220316E+03 -0.18795846164E+03  0.31219034635E+03  0.12508635086E+03 0.  0.
          5    1    3    3  502    0 -0.48702758823E+02 -0.63291374527E+00  0.67243921279E+01  0.49346217142E+02  0.41800000000E+01 0.  1.
         -5    1    3    3    0  502 -0.13440940190E+03  0.11446511690E+03 -0.19468285377E+03  0.26284412920E+03  0.41800000000E+01 0.  1.
        -11    1    1    2    0    0  0.11776576997E+03 -0.21014098572E+02 -0.16615597715E+03  0.20473929193E+03  0.00000000000E+00 0. -1.
         11    1    1    2    0    0  0.65346390748E+02 -0.92818104584E+02 -0.13521079625E+03  0.17654265985E+03  0.00000000000E+00 0.  1.
</event>
<event>
 7    1  0.2530765E-009  0.1303950E+03  0.7561462E-02  0.1226871E+00
         -2   -1    0    0    0  501 -0.00000000000E+00  0.00000000000E+00  0.32330115512E+03  0.32330115512E+03  0.00000000000E+00 0. -1.
          2   -1    0    0  501    0  0.00000000000E+00 -0.00000000000E+00 -0.59463879009E+02  0.59463879009E+02  0.00000000000E+00 0.  1.
         25    2    1    2    0    0 -0.17459800338E+02 -0.84090492074E+02  0.12483078568E+03  0.19648412381E+03  0.12508888988E+03 0.  0.
          5    1    3    3  502    0 -0.35416168949E+02  0.17707318561E+02  0.83278905024E+01  0.40677761909E+02  0.41800000000E+01 0. -1.
         -5    1    3    3    0  502  0.17956368611E+02 -0.10179781064E+03  0.11650289518E+03  0.15580636190E+03  0.41800000000E+01 0. -1.
        -11    1    1    2    0    0  0.33073129497E+02  0.11188739198E+01  0.69299299176E+02  0.76795030047E+02  0.00000000000E+00 0. -1.
         11    1    1    2    0    0 -0.15613329159E+02  0.82971618154E+02  0.69707191250E+02  0.10948588027E+03  0.00000000000E+00 0.  1.
</event>
<event>
 7    1  0.2530765E-009  0.9982636E+02  0.7561462E-02  0.1280662E+00
         -4   -1    0    0    0  501 -0.00000000000E+00  0.00000000000E+00  0.25724551121E+03  0.25724551121E+03  0.00000000000E+00 0.  1.
          4   -1    0    0  501    0  0.00000000000E+00 -0.00000000000E+00 -0.56700386091E+02  0.56700386091E+02  0.00000000000E+00 0. -1.
         25    2    1    2    0    0  0.98874750051E+01 -0.26567597861E+02  0.16967318593E+03  0.21269271150E+03  0.12508237319E+03 0.  0.
          5    1    3    3  502    0  0.65446066338E+02 -0.30643290315E+02  0.94893495115E+02  0.11935010120E+03  0.41800000000E+01 0.  1.
         -5    1    3    3    0  502 -0.55558591333E+02  0.40756924540E+01  0.74779690813E+02  0.93342610302E+02  0.41800000000E+01 0.  1.
        -11    1    1    2    0    0 -0.21574059899E+02 -0.16256087023E+02  0.46846369494E+02  0.54076637845E+02  0.00000000000E+00 0.  1.
         11    1    1    2    0    0  0.11686584894E+02  0.42823684884E+02 -0.15974430305E+02  0.47176547957E+02  0.00000000000E+00 0. -1.
</event>
<event>
 7    1  0.2530765E-009  0.6377753E+02  0.7561462E-02  0.1382630E+00
          3   -1    0    0  501    0  0.00000000000E+00  0.00000000000E+00  0.42211422655E+03  0.42211422655E+03  0.00000000000E+00 0. -1.
         -3   -1    0    0    0  501 -0.00000000000E+00 -0.00000000000E+00 -0.62191300397E+02  0.62191300397E+02  0.00000000000E+00 0.  1.
         25    2    1    2    0    0  0.16438799479E+02 -0.23623981459E+02  0.36585850847E+03  0.38772208226E+03  0.12509052010E+03 0.  0.
          5    1    3    3  502    0  0.38262761177E+02  0.11032610464E+02  0.33203648244E+03  0.33444200612E+03  0.41800000000E+01 0.  1.
         -5    1    3    3    0  502 -0.21823961697E+02 -0.34656591924E+02  0.33822026028E+02  0.53280076131E+02  0.41800000000E+01 0.  1.
        -11    1    1    2    0    0 -0.36364075700E+01 -0.98541923375E+01 -0.43448335344E+02  0.44699959853E+02  0.00000000000E+00 0.  1.
         11    1    1    2    0    0 -0.12802391909E+02  0.33478173797E+02  0.37512753020E+02  0.51883484834E+02  0.00000000000E+00 0. -1.
</event>
<event>
 7    1  0.2530765E-009  0.1065216E+03  0.7561462E-02  0.1267150E+00
          2   -1    0    0  501    0  0.00000000000E+00  0.00000000000E+00  0.67100181827E+03  0.67100181827E+03  0.00000000000E+00 0. -1.
         -2   -1    0    0    0  501 -0.00000000000E+00 -0.00000000000E+00 -0.26081411563E+02  0.26081411563E+02  0.00000000000E+00 0.  1.
         25    2    1    2    0    0  0.41028272784E+02  0.60556474723E+02  0.42870175230E+03  0.45252937025E+03  0.12508889924E+03 0.  0.
          5    1    3    3  502    0  0.51603742385E+02  0.84468592479E+02  0.40516595940E+03  0.41710288467E+03  0.41800000000E+01 0.  1.
         -5    1    3    3    0  502 -0.10575469602E+02 -0.23912117756E+02  0.23535792899E+02  0.35426485576E+02  0.41800000000E+01 0.  1.
        -11    1    1    2    0    0 -0.39404959224E+02 -0.15401111947E+02  0.18464733368E+03  0.18943226466E+03  0.00000000000E+00 0. -1.
         11    1    1    2    0    0 -0.16233135599E+01 -0.45155362776E+02  0.31571320726E+02  0.55121594922E+02  0.00000000000E+00 0.  1.
</event>
<event>
 7    1  0.2530765E-009  0.8531362E+02  0.7561462E-02  0.1314614E+00
          1   -1    0    0  501    0  0.00000000000E+00  0.00000000000E+00  0.72011052951E+03  0.72011052951E+03  0.00000000000E+00 0. -1.
         -1   -1    0    0    0  501 -0.00000000000E+00 -0.00000000000E+00 -0.23563688431E+02  0.23563688431E+02  0.00000000000E+00 0.  1.
         25    2    1    2    0    0 -0.43393331219E+02 -0.57490567213E+02  0.39171453002E+03  0.41746370166E+03  0.12509005821E+03 0.  0.
          5    1    3    3  502    0 -0.18643409590E+02 -0.62788571138E+02  0.74794695880E+02  0.99507287766E+02  0.41800000000E+01 0. -1.
         -5    1    3    3    0  502 -0.24749921630E+02  0.52980039247E+01  0.31691983414E+03  0.31795641389E+03  0.41800000000E+01 0. -1.
        -11    1    1    2    0    0  0.19054845976E+02  0.25145877957E+01  0.42631081082E+01  0.19687163272E+02  0.00000000000E+00 0.  1.
         11    1    1    2    0    0  0.24338485243E+02  0.54975979417E+02  0.30056920295E+03  0.30652335301E+03  0.00000000000E+00 0. -1.
</event>
<event>
 7    1  0.2530765E-009  0.1119661E+03  0.7561462E-02  0.1256972E+00
          1   -1    0    0  501    0  0.00000000000E+00  0.00000000000E+00  0.41052139426E+03  0.41052139426E+03  0.00000000000E+00 0. -1.
         -1   -1    0    0    0  501 -0.00000000000E+00 -0.00000000000E+00 -0.37781663247E+02  0.37781663247E+02  0.00000000000E+00 0.  1.
         25    2    1    2    0    0  0.52617253473E+02 -0.13572319644E+02  0.16221116201E+03  0.21192691396E+03  0.12509105706E+03 0.  0.
          5    1    3    3  502    0  0.15132432953E+02 -0.66576081055E+02  0.10488689295E+03  0.12522019729E+03  0.41800000000E+01 0. -1.
         -5    1    3    3    0  502  0.37484820520E+02  0.53003761411E+02  0.57324269056E+02  0.86706716672E+02  0.41800000000E+01 0. -1.
        -11    1    1    2    0    0 -0.56519225829E+02 -0.17495131099E+02  0.66615387982E+02  0.89096085304E+02  0.00000000000E+00 0.  1.
         11    1    1    2    0    0  0.39019723563E+01  0.31067450742E+02  0.14391318102E+03  0.14728005824E+03  0.00000000000E+00 0. -1.
</event>
<event>
 7    1  0.3725656E-009  0.1375351E+03  0.7561462E-02  0.1216685E+00
         -2   -1    0    0    0  501 -0.00000000000E+00  0.00000000000E+00  0.30017906950E+02  0.30017906950E+02  0.00000000000E+00 0. -1.
          2   -1    0    0  501    0  0.00000000000E+00 -0.00000000000E+00 -0.75589508583E+03  0.75589508583E+03  0.00000000000E+00 0.  1.
         25    2    1    2    0    0 -0.91892082148E+02 -0.42141206522E+02 -0.32297432529E+03  0.36080238783E+03  0.12508362090E+03 0.  0.
          5    1    3    3  502    0  0.88109437381E+01 -0.57983550172E+02 -0.11927568349E+03  0.13298077264E+03  0.41800000000E+01 0.  1.
         -5    1    3    3    0  502 -0.10070302589E+03  0.15842343650E+02 -0.20369864180E+03  0.22782161518E+03  0.41800000000E+01 0.  1.
        -11    1    1    2    0    0  0.49480473046E+02  0.50847388665E+02 -0.34816086533E+03  0.35531642559E+03  0.00000000000E+00 0.  1.
         11    1    1    2    0    0  0.42411609103E+02 -0.87061821422E+01 -0.54741988255E+02  0.69794179358E+02  0.00000000000E+00 0. -1.
</event>
<event>
 7    1  0.2530765E-009  0.8688742E+02  0.7561462E-02  0.1310569E+00
         -2   -1    0    0    0  501 -0.00000000000E+00  0.00000000000E+00  0.17350857418E+02  0.17350857418E+02  0.00000000000E+00 0.  1.
          2   -1    0    0  501    0  0.00000000000E+00 -0.00000000000E+00 -0.13367751854E+04  0.13367751854E+04  0.00000000000E+00 0. -1.
         25    2    1    2    0    0  0.10424005025E+02  0.20309051382E+02 -0.11830079723E+04  0.11898208683E+04  0.12507885027E+03 0.  0.
          5    1    3    3  502    0 -0.45468241704E+02 -0.15197135733E+01 -0.86304587992E+03  0.86425420669E+03  0.41800000000E+01 0.  1.
         -5    1    3    3    0  502  0.55892246729E+02  0.21828764955E+02 -0.31996209236E+03  0.32556666164E+03  0.41800000000E+01 0.  1.
        -11    1    1    2    0    0  0.13819581005E+02  0.17945971045E+02 -0.10907506736E+03  0.11140201531E+03  0.00000000000E+00 0. -1.
         11    1    1    2    0    0 -0.24243586030E+02 -0.38255022426E+02 -0.27341288374E+02  0.52903159210E+02  0.00000000000E+00 0.  1.
</event>
<event>
 7    1  0.2530765E-009  0.2353657E+03  0.7561462E-02  0.1122919E+00
          1   -1    0    0  501    0  0.00000000000E+00  0.00000000000E+00  0.26660353622E+03  0.26660353622E+03  0.00000000000E+00 0. -1.
         -1   -1    0    0    0  501 -0.00000000000E+00 -0.00000000000E+00 -0.39085702319E+03  0.39085702319E+03  0.00000000000E+00 0.  1.
         25    2    1    2    0    0  0.21878872561E+03 -0.24638307464E+02 -0.27574142335E+03  0.37437124910E+03  0.12507976234E+03 0.  0.
          5    1    3    3  502    0  0.14149426964E+03 -0.64974220531E+02 -0.12307067165E+03  0.19850979899E+03  0.41800000000E+01 0. -1.
         -5    1    3    3    0  502  0.77294455972E+02  0.40335913067E+02 -0.15267075171E+03  0.17586145011E+03  0.41800000000E+01 0. -1.
        -11    1    1    2    0    0 -0.14357723473E+03  0.43736980059E+02  0.56355560056E+02  0.16032247162E+03  0.00000000000E+00 0.  1.
         11    1    1    2    0    0 -0.75211490885E+02 -0.19098672595E+02  0.95132376334E+02  0.12276683869E+03  0.00000000000E+00 0. -1.
</event>
<event>
 7    1  0.2530765E-009  0.2504716E+03  0.7561462E-02  0.1113007E+00
         -1   -1    0    0    0  501 -0.00000000000E+00  0.00000000000E+00  0.37989225108E+03  0.37989225108E+03  0.00000000000E+00 0.  1.
          1   -1    0    0  501    0  0.00000000000E+00 -0.00000000000E+00 -0.21305843127E+03  0.21305843127E+03  0.00000000000E+00 0. -1.
         25    2    1    2    0    0  0.23312355846E+03  0.45953078498E+02 -0.31564122062E+02  0.27036971697E+03  0.12508081836E+03 0.  0.
          5    1    3    3  502    0  0.26666776567E+02 -0.16238052971E+02  0.32633535735E+02  0.45356492273E+02  0.41800000000E+01 0. -1.
         -5    1    3    3    0  502  0.20645678189E+03  0.62191131469E+02 -0.64197657796E+02  0.22501322469E+03  0.41800000000E+01 0. -1.
        -11    1    1    2    0    0 -0.11762372216E+03 -0.68480056160E+02  0.11716526416E+03  0.17958996974E+03  0.00000000000E+00 0.  1.
         11    1    1    2    0    0 -0.11549983630E+03  0.22526977662E+02  0.81232677706E+02  0.14299099564E+03  0.00000000000E+00 0. -1.
</event>
<event>
 7    1  0.2530765E-009  0.1083100E+03  0.7561462E-02  0.1263732E+00
         -3   -1    0    0    0  501 -0.00000000000E+00  0.00000000000E+00  0.69279610412E+02  0.69279610412E+02  0.00000000000E+00 0.  1.
          3   -1    0    0  501    0  0.00000000000E+00 -0.00000000000E+00 -0.20679167170E+03  0.20679167170E+03  0.00000000000E+00 0. -1.
         25    2    1    2    0    0 -0.76959207023E+01  0.30332394937E+02 -0.30592222935E+02  0.13252349556E+03  0.12508921374E+03 0.  0.
          5    1    3    3  502    0  0.42144476924E+01  0.74604348661E+02  0.39880954223E+01  0.74946298865E+02  0.41800000000E+01 0.  1.
         -5    1    3    3    0  502 -0.11910368395E+02 -0.44271953724E+02 -0.34580318358E+02  0.57577196697E+02  0.41800000000E+01 0.  1.
        -11    1    1    2    0    0 -0.29582191717E+02 -0.46498582947E+02 -0.59538290599E+02  0.81129725319E+02  0.00000000000E+00 0. -1.
         11    1    1    2    0    0  0.37278112419E+02  0.16166188010E+02 -0.47381547751E+02  0.62418061229E+02  0.00000000000E+00 0.  1.
</event>
<event>
 7    1  0.2530765E-009  0.1584240E+03  0.7561462E-02  0.1190488E+00
          2   -1    0    0  501    0  0.00000000000E+00  0.00000000000E+00  0.87990578137E+03  0.87990578137E+03  0.00000000000E+00 0. -1.
         -2   -1    0    0    0  501 -0.00000000000E+00 -0.00000000000E+00 -0.39005684364E+02  0.39005684364E+02  0.00000000000E+00 0.  1.
         25    2    1    2    0    0  0.12284810410E+03  0.45855062765E+02  0.61173126481E+03  0.63801115915E+03  0.12509498546E+03 0.  0.
          5    1    3    3  502    0  0.12757117088E+01  0.36967068248E+02  0.45472707096E+02  0.58765900536E+02  0.41800000000E+01 0. -1.
         -5    1    3    3    0  502  0.12157239239E+03  0.88879945163E+01  0.56625855772E+03  0.57924525861E+03  0.41800000000E+01 0. -1.
        -11    1    1    2    0    0 -0.63861969768E+02  0.22185417802E+02  0.65706839250E+02  0.94275832905E+02  0.00000000000E+00 0.  1.
         11    1    1    2    0    0 -0.58986134332E+02 -0.68040480566E+02  0.16346199294E+03  0.18662447368E+03  0.00000000000E+00 0. -1.
</event>
<event>
 7    1  0.2530765E-009  0.1708626E+03  0.7561462E-02  0.1176951E+00
         -1   -1    0    0    0  501 -0.00000000000E+00  0.00000000000E+00  0.63577299830E+03  0.63577299830E+03  0.00000000000E+00 0.  1.
          1   -1    0    0  501    0  0.00000000000E+00 -0.00000000000E+00 -0.63492766213E+02  0.63492766213E+02  0.00000000000E+00 0. -1.
         25    2    1    2    0    0 -0.59033874546E+02 -0.12310419127E+03  0.12670084366E+03  0.22436960944E+03  0.12509587365E+03 0.  0.
          5    1    3    3  502    0  0.33863093612E+02 -0.91488112004E+01  0.10288901225E+02  0.36793256770E+02  0.41800000000E+01 0.  1.
         -5    1    3    3    0  502 -0.92896968158E+02 -0.11395538007E+03  0.11641194244E+03  0.18757635267E+03  0.41800000000E+01 0.  1.
        -11    1    1    2    0    0  0.54158351119E+02  0.22582510486E+02  0.11164011663E+03  0.12612141934E+03  0.00000000000E+00 0.  1.
         11    1    1    2    0    0  0.48755234266E+01  0.10052168078E+03  0.33393927179E+03  0.34877473573E+03  0.00000000000E+00 0. -1.
</event>
<event>
 7    1  0.2530765E-009  0.1260129E+03  0.7561462E-02  0.1233495E+00
         -2   -1    0    0    0  501 -0.00000000000E+00  0.00000000000E+00  0.38098081833E+02  0.38098081833E+02  0.00000000000E+00 0.  1.
          2   -1    0    0  501    0  0.00000000000E+00 -0.00000000000E+00 -0.48845656447E+03  0.48845656447E+03  0.00000000000E+00 0. -1.
         25    2    1    2    0    0 -0.62378470547E+02 -0.33340559449E+02 -0.16749063750E+03  0.22068805450E+03  0.12508971683E+03 0.  0.
          5    1    3    3  502    0 -0.31581233621E+02 -0.78374134888E+02 -0.12708361986E+03  0.15266826184E+03  0.41800000000E+01 0. -1.
         -5    1    3    3    0  502 -0.30797236926E+02  0.45033575438E+02 -0.40407017639E+02  0.68019792660E+02  0.41800000000E+01 0. -1.
        -11    1    1    2    0    0  0.48570032326E+02 -0.23682678497E+02 -0.17397411408E+03  0.18217274679E+03  0.00000000000E+00 0. -1.
         11    1    1    2    0    0  0.13808438221E+02  0.57023237947E+02 -0.10889373106E+03  0.12369384502E+03  0.00000000000E+00 0.  1.
</event>
<event>
 7    1  0.2530765E-009  0.2681998E+03  0.7561462E-02  0.1102314E+00
          2   -1    0    0  501    0  0.00000000000E+00  0.00000000000E+00  0.15919241771E+04  0.15919241771E+04  0.00000000000E+00 0. -1.
         -2   -1    0    0    0  501 -0.00000000000E+00 -0.00000000000E+00 -0.50323216528E+02  0.50323216528E+02  0.00000000000E+00 0.  1.
         25    2    1    2    0    0  0.46853609970E+02  0.24700471760E+03  0.58529625281E+03  0.64917142756E+03  0.12508096386E+03 0.  0.
          5    1    3    3  502    0  0.65328574383E+02  0.93599336361E+02  0.15943686090E+03  0.19612813008E+03  0.41800000000E+01 0. -1.
         -5    1    3    3    0  502 -0.18474964414E+02  0.15340538124E+03  0.42585939191E+03  0.45304329747E+03  0.41800000000E+01 0. -1.
        -11    1    1    2    0    0 -0.71480447905E+02 -0.21873032702E+03  0.83248509732E+03  0.86370356468E+03  0.00000000000E+00 0.  1.
         11    1    1    2    0    0  0.24626837935E+02 -0.28274390584E+02  0.12381961040E+03  0.12937240134E+03  0.00000000000E+00 0. -1.
</event>
<event>
 7    1  0.2530765E-009  0.1156519E+03  0.7561462E-02  0.1250447E+00
         -2   -1    0    0    0  501 -0.00000000000E+00  0.00000000000E+00  0.12970244230E+03  0.12970244230E+03  0.00000000000E+00 0.  1.
          2   -1    0    0  501    0  0.00000000000E+00 -0.00000000000E+00 -0.21152186017E+03  0.21152186017E+03  0.00000000000E+00 0. -1.
         25    2    1    2    0    0  0.66353790861E+02  0.40578273718E+02 -0.14293355549E+03  0.20524803940E+03  0.12508930622E+03 0.  0.
          5    1    3    3  502    0  0.18043014802E+02 -0.26023940581E+02 -0.11326682339E+03  0.11768450003E+03  0.41800000000E+01 0. -1.
         -5    1    3    3    0  502  0.48310776059E+02  0.66602214299E+02 -0.29666732105E+02  0.87563539369E+02  0.41800000000E+01 0. -1.
        -11    1    1    2    0    0  0.21342644420E+02 -0.29362186861E+01  0.27194220180E+02  0.34693738083E+02  0.00000000000E+00 0.  1.
         11    1    1    2    0    0 -0.87696435281E+02 -0.37642055032E+02  0.33919917444E+02  0.10128252499E+03  0.00000000000E+00 0. -1.
</event>
<event>
 7    1  0.2530765E-009  0.1416603E+03  0.7561462E-02  0.1211112E+00
         -1   -1    0    0    0  501 -0.00000000000E+00  0.00000000000E+00  0.48909622874E+02  0.48909622874E+02  0.00000000000E+00 0.  1.
          1   -1    0    0  501    0  0.00000000000E+00 -0.00000000000E+00 -0.56090538310E+03  0.56090538310E+03  0.00000000000E+00 0. -1.
         25    2    1    2    0    0 -0.31706738109E+02  0.11537289221E+03 -0.34050858175E+03  0.38198059366E+03  0.12508740220E+03 0.  0.
          5    1    3    3  502    0  0.16795628740E+02  0.55750249682E+02 -0.37579647234E+02  0.69425397159E+02  0.41800000000E+01 0. -1.
         -5    1    3    3    0  502 -0.48502366848E+02  0.59622642528E+02 -0.30292893452E+03  0.31255519650E+03  0.41800000000E+01 0. -1.
        -11    1    1    2    0    0 -0.29052311176E+02 -0.21460010879E+02 -0.26917394385E+02  0.45045698708E+02  0.00000000000E+00 0.  1.
         11    1    1    2    0    0  0.60759049285E+02 -0.93912881331E+02 -0.14456978408E+03  0.18278871360E+03  0.00000000000E+00 0. -1.
</event>
<event>
 7    1  0.2530765E-009  0.1006234E+03  0.7561462E-02  0.1278990E+00
         -1   -1    0    0    0  501 -0.00000000000E+00  0.00000000000E+00  0.40403408487E+02  0.40403408487E+02  0.00000000000E+00 0.  1.
          1   -1    0    0  501    0  0.00000000000E+00 -0.00000000000E+00 -0.35027649741E+03  0.35027649741E+03  0.00000000000E+00 0. -1.
         25    2    1    2    0    0 -0.43069130809E+02  0.18443860759E+02 -0.13739776629E+03  0.19162595893E+03  0.12508891208E+03 0.  0.
          5    1    3    3  502    0 -0.27069988990E+02  0.71932939282E+02 -0.70357238111E+02  0.10428204741E+03  0.41800000000E+01 0. -1.
         -5    1    3    3    0  502 -0.15999141818E+02 -0.53489078523E+02 -0.67040528181E+02  0.87343911516E+02  0.41800000000E+01 0. -1.
        -11    1    1    2    0    0 -0.29803913389E+01 -0.21907204329E+02 -0.17329303668E+01  0.22176820821E+02  0.00000000000E+00 0.  1.
         11    1    1    2    0    0  0.46049522148E+02  0.34633435702E+01 -0.17074239227E+03  0.17687712615E+03  0.00000000000E+00 0. -1.
</event>
<event>
 7    1  0.2530765E-009  0.6924553E+02  0.7561462E-02  0.1362678E+00
         -1   -1    0    0    0  501 -0.00000000000E+00  0.00000000000E+00  0.42322532961E+03  0.42322532961E+03  0.00000000000E+00 0.  1.
          1   -1    0    0  501    0  0.00000000000E+00 -0.00000000000E+00 -0.41223935154E+02  0.41223935154E+02  0.00000000000E+00 0. -1.
         25    2    1    2    0    0 -0.20141304540E+02 -0.31874754815E+01  0.33651282069E+03  0.35959363567E+03  0.12510344589E+03 0.  0.
          5    1    3    3  502    0  0.27014933846E+02 -0.12770160822E+02  0.29310321898E+03  0.29465208812E+03  0.41800000000E+01 0.  1.
         -5    1    3    3    0  502 -0.47156238386E+02  0.95826853408E+01  0.43409601714E+02  0.64941547548E+02  0.41800000000E+01 0.  1.
        -11    1    1    2    0    0 -0.15192208635E+02  0.16343907731E+02  0.60339074872E+02  0.64332965730E+02  0.00000000000E+00 0.  1.
         11    1    1    2    0    0  0.35333513175E+02 -0.13156432250E+02 -0.14850501111E+02  0.40522663363E+02  0.00000000000E+00 0. -1.
</event>
<event>
 7    1  0.2530765E-009  0.1192493E+03  0.7561462E-02  0.1244341E+00
         -1   -1    0    0    0  501 -0.00000000000E+00  0.00000000000E+00  0.21445174847E+03  0.21445174847E+03  0.00000000000E+00 0.  1.
          1   -1    0    0  501    0  0.00000000000E+00 -0.00000000000E+00 -0.10194801582E+03  0.10194801582E+03  0.00000000000E+00 0. -1.
         25    2    1    2    0    0 -0.66565111096E+02  0.76372521738E+02  0.63086478949E+02  0.17288840056E+03  0.12508724607E+03 0.  0.
          5    1    3    3  502    0 -0.24197370841E+02 -0.50581398720E+01 -0.32004081761E+02  0.40655026552E+02  0.41800000000E+01 0. -1.
         -5    1    3    3    0  502 -0.42367740256E+02  0.81430661610E+02  0.95090560710E+02  0.13223337400E+03  0.41800000000E+01 0. -1.
        -11    1    1    2    0    0  0.23378251125E+02  0.96442204182E+01  0.39296929958E+02  0.46731170724E+02  0.00000000000E+00 0.  1.
         11    1    1    2    0    0  0.43186859971E+02 -0.86016742156E+02  0.10120323739E+02  0.96780193004E+02  0.00000000000E+00 0. -1.
</event>
<event>
 7    1  0.2530765E-009  0.9787136E+02  0.7561462E-02  0.1284837E+00
         -1   -1    0    0    0  501 -0.00000000000E+00  0.00000000000E+00  0.10724068966E+03  0.10724068966E+03  0.00000000000E+00 0.  1.
          1   -1    0    0  501    0  0.00000000000E+00 -0.00000000000E+00 -0.11056882455E+03  0.11056882455E+03  0.00000000000E+00 0. -1.
         25    2    1    2    0    0  0.63035829088E+01  0.11126159850E+02 -0.18605996909E+02  0.12711250768E+03  0.12509148611E+03 0.  0.
          5    1    3    3  502    0  0.40593957832E+02 -0.41136298259E+02 -0.26962988556E+02  0.63910402899E+02  0.41800000000E+01 0. -1.
         -5    1    3    3    0  502 -0.34290374923E+02  0.52262458109E+02  0.83569916469E+01  0.63202104785E+02  0.41800000000E+01 0. -1.
        -11    1    1    2    0    0  0.30983228332E+02  0.96700005297E+01  0.31304736776E+02  0.45093856485E+02  0.00000000000E+00 0.  1.
         11    1    1    2    0    0 -0.37286811241E+02 -0.20796160380E+02 -0.16026874757E+02  0.45603150039E+02  0.00000000000E+00 0. -1.
</event>
<event>
 7    1  0.2530765E-009  0.8568449E+02  0.7561462E-02  0.1313652E+00
          2   -1    0    0  501    0  0.00000000000E+00  0.00000000000E+00  0.38436194118E+03  0.38436194118E+03  0.00000000000E+00 0. -1.
         -2   -1    0    0    0  501 -0.00000000000E+00 -0.00000000000E+00 -0.31083771544E+02  0.31083771544E+02  0.00000000000E+00 0.  1.
         25    2    1    2    0    0  0.17951025796E+02 -0.18724531603E+01  0.23735516136E+03  0.26890806213E+03  0.12509327659E+03 0.  0.
          5    1    3    3  502    0  0.56008912189E+02 -0.20001425752E+02  0.53075100366E+02  0.79821638392E+02  0.41800000000E+01 0.  1.
         -5    1    3    3    0  502 -0.38057886393E+02  0.18128972592E+02  0.18428006099E+03  0.18908642374E+03  0.41800000000E+01 0.  1.
        -11    1    1    2    0    0  0.15794430382E+02  0.24218523984E+02  0.98174354575E+02  0.10234356272E+03  0.00000000000E+00 0. -1.
         11    1    1    2    0    0 -0.33745456179E+02 -0.22346070824E+02  0.17748653700E+02  0.44194087864E+02  0.00000000000E+00 0.  1.
</event>
<event>
 7    1  0.2530765E-009  0.1252399E+03  0.7561462E-02  0.1234695E+00
         -2   -1    0    0    0  501 -0.00000000000E+00  0.00000000000E+00  0.47380308184E+02  0.47380308184E+02  0.00000000000E+00 0.  1.
          2   -1    0    0  501    0  0.00000000000E+00 -0.00000000000E+00 -0.81363534733E+03  0.81363534733E+03  0.00000000000E+00 0. -1.
         25    2    1    2    0    0  0.64994119370E+01 -0.92525144058E+02 -0.69750802783E+03  0.71467998734E+03  0.12508753247E+03 0.  0.
          5    1    3    3  502    0  0.64688336383E+02 -0.60547289362E+02 -0.42640894774E+03  0.43553716056E+03  0.41800000000E+01 0. -1.
         -5    1    3    3    0  502 -0.58188924446E+02 -0.31977854695E+02 -0.27109908008E+03  0.27914282678E+03  0.41800000000E+01 0. -1.
        -11    1    1    2    0    0  0.78278895102E+01  0.42428209376E+02  0.16692829594E+02  0.46260991828E+02  0.00000000000E+00 0. -1.
         11    1    1    2    0    0 -0.14327301447E+02  0.50096934682E+02 -0.85439840916E+02  0.10007467635E+03  0.00000000000E+00 0.  1.
</event>
<event>
 7    1  0.2530765E-009  0.8934438E+02  0.7561462E-02  0.1304447E+00
         -2   -1    0    0    0  501 -0.00000000000E+00  0.00000000000E+00  0.72111292410E+02  0.72111292410E+02  0.00000000000E+00 0. -1.
          2   -1    0    0  501    0  0.00000000000E+00 -0.00000000000E+00 -0.19745297917E+03  0.19745297917E+03  0.00000000000E+00 0.  1.
         25    2    1    2    0    0  0.14865748954E+02 -0.91247572884E+01 -0.12084394761E+03  0.17479974357E+03  0.12508972376E+03 0.  0.
          5    1    3    3  502    0 -0.22549089053E+02  0.25212402565E+02 -0.11902937728E+03  0.12381272840E+03  0.41800000000E+01 0.  1.
         -5    1    3    3    0  502  0.37414838007E+02 -0.34337159853E+02 -0.18145703371E+01  0.50987015164E+02  0.41800000000E+01 0.  1.
        -11    1    1    2    0    0 -0.53720569179E+02 -0.84020999766E-01 -0.93888510660E+01  0.54534916676E+02  0.00000000000E+00 0.  1.
         11    1    1    2    0    0  0.38854820226E+02  0.92087782881E+01  0.48911119194E+01  0.40229611335E+02  0.00000000000E+00 0. -1.
</event>
<event>
 7    1  0.2530765E-009  0.2984212E+03  0.7561462E-02  0.1086033E+00
         -1   -1    0    0    0  501 -0.00000000000E+00  0.00000000000E+00  0.46672602068E+02  0.46672602068E+02  0.00000000000E+00 0.  1.
          1   -1    0    0  501    0  0.00000000000E+00 -0.00000000000E+00 -0.20886675155E+04  0.20886675155E+04  0.00000000000E+00 0. -1.
         25    2    1    2    0    0 -0.11374152031E+03  0.26523949753E+03 -0.12184808868E+04  0.12584246525E+04  0.12509120645E+03 0.  0.
          5    1    3    3  502    0 -0.12273470647E+02  0.10674721890E+03 -0.66921140820E+03  0.67779568314E+03  0.41800000000E+01 0.  1.
         -5    1    3    3    0  502 -0.10146804966E+03  0.15849227862E+03 -0.54926947860E+03  0.58062896932E+03  0.41800000000E+01 0.  1.
        -11    1    1    2    0    0  0.36014865889E+00 -0.10378236269E+03 -0.30158499358E+03  0.31894265451E+03  0.00000000000E+00 0. -1.
         11    1    1    2    0    0  0.11338137165E+03 -0.16145713483E+03 -0.52192903305E+03  0.55797281060E+03  0.00000000000E+00 0.  1.
</event>
<event>
 7    1  0.2530765E-009  0.1330131E+03  0.7561462E-02  0.1223052E+00
          1   -1    0    0  501    0  0.00000000000E+00  0.00000000000E+00  0.60831361496E+03  0.60831361496E+03  0.00000000000E+00 0. -1.
         -1   -1    0    0    0  501 -0.00000000000E+00 -0.00000000000E+00 -0.58349223707E+02  0.58349223707E+02  0.00000000000E+00 0.  1.
         25    2    1    2    0    0 -0.48932359687E+01 -0.10323984899E+03  0.43388476225E+03  0.46323295762E+03  0.12508547451E+03 0.  0.
          5    1    3    3  502    0  0.15529113319E+00 -0.67771386523E+02  0.69843816605E+02  0.97409527586E+02  0.41800000000E+01 0.  1.
         -5    1    3    3    0  502 -0.50485271019E+01 -0.35468462472E+02  0.36404094565E+03  0.36582343003E+03  0.41800000000E+01 0.  1.
        -11    1    1    2    0    0 -0.40180855061E+02 -0.89373346960E+01  0.94573775632E+01  0.42235282114E+02  0.00000000000E+00 0.  1.
         11    1    1    2    0    0  0.45074091030E+02  0.11217718369E+03  0.10662225144E+03  0.16119459893E+03  0.00000000000E+00 0. -1.
</event>
<event>
 7    1  0.2530765E-009  0.2283204E+03  0.7561462E-02  0.1127828E+00
         -1   -1    0    0    0  501 -0.00000000000E+00  0.00000000000E+00  0.28660823712E+03  0.28660823712E+03  0.00000000000E+00 0.  1.
          1   -1    0    0  501    0  0.00000000000E+00 -0.00000000000E+00 -0.41492504725E+03  0.41492504725E+03  0.00000000000E+00 0. -1.
         25    2    1    2    0    0  0.21326279624E+03  0.23601810037E+02 -0.31631492630E+03  0.40216918388E+03  0.12508738612E+03 0.  0.
          5    1    3    3  502    0  0.16431850477E+03  0.45178054569E+02 -0.14881123448E+03  0.22628275129E+03  0.41800000000E+01 0.  1.
         -5    1    3    3    0  502  0.48944291468E+02 -0.21576244533E+02 -0.16750369182E+03  0.17588643259E+03  0.41800000000E+01 0.  1.
        -11    1    1    2    0    0 -0.11495485090E+03  0.32331793507E+02  0.87245562623E+02  0.14789100992E+03  0.00000000000E+00 0.  1.
         11    1    1    2    0    0 -0.98307945341E+02 -0.55933603543E+02  0.10075255354E+03  0.15147309057E+03  0.00000000000E+00 0. -1.
</event>
<event>
 7    1  0.2530765E-009  0.1036092E+03  0.7561462E-02  0.1272884E+00
          2   -1    0    0  501    0  0.00000000000E+00  0.00000000000E+00  0.24544029252E+03  0.24544029252E+03  0.00000000000E+00 0. -1.
         -2   -1    0    0    0  501 -0.00000000000E+00 -0.00000000000E+00 -0.50931110253E+02  0.50931110253E+02  0.00000000000E+00 0.  1.
         25    2    1    2    0    0  0.19265311982E+01  0.32333143864E+02  0.10337979493E+03  0.16548127166E+03  0.12509006977E+03 0.  0.
          5    1    3    3  502    0 -0.48575534231E+02 -0.16351165802E+02  0.72106462766E+02  0.88564990383E+02  0.41800000000E+01 0. -1.
         -5    1    3    3    0  502  0.50502065429E+02  0.48684309665E+02  0.31273332167E+02  0.76916281274E+02  0.41800000000E+01 0. -1.
        -11    1    1    2    0    0 -0.40146619656E+01 -0.58818534664E+02  0.34424325550E+02  0.68269844883E+02  0.00000000000E+00 0.  1.
         11    1    1    2    0    0  0.20881307674E+01  0.26485390800E+02  0.56705061781E+02  0.62620286230E+02  0.00000000000E+00 0. -1.
</event>
<event>
 7    1  0.2530765E-009  0.1147998E+03  0.7561462E-02  0.1251931E+00
          2   -1    0    0  501    0  0.00000000000E+00  0.00000000000E+00  0.14590689322E+04  0.14590689322E+04  0.00000000000E+00 0.  1.
         -2   -1    0    0    0  501 -0.00000000000E+00 -0.00000000000E+00 -0.96313781815E+01  0.96313781815E+01  0.00000000000E+00 0. -1.
         25    2    1    2    0    0  0.21182692969E+02  0.42740361245E+02  0.98274311246E+03  0.99182018136E+03  0.12509117515E+03 0.  0.
          5    1    3    3  502    0 -0.50597816597E+02  0.30912568545E+02  0.51797376188E+03  0.52137320255E+03  0.41800000000E+01 0.  1.
         -5    1    3    3    0  502  0.71780509566E+02  0.11827792701E+02  0.46476935058E+03  0.47044697881E+03  0.41800000000E+01 0.  1.
        -11    1    1    2    0    0 -0.47137709429E+02  0.17362497677E+00  0.19690178687E+03  0.20246557107E+03  0.00000000000E+00 0. -1.
         11    1    1    2    0    0  0.25955016461E+02 -0.42913986222E+02  0.26979265467E+03  0.27441455794E+03  0.00000000000E+00 0.  1.
</event>
<event>
 7    1  0.2530765E-009  0.9021720E+02  0.7561462E-02  0.1302327E+00
          2   -1    0    0  501    0  0.00000000000E+00  0.00000000000E+00  0.12290259652E+04  0.12290259652E+04  0.00000000000E+00 0. -1.
         -2   -1    0    0    0  501 -0.00000000000E+00 -0.00000000000E+00 -0.12862205798E+02  0.12862205798E+02  0.00000000000E+00 0.  1.
         25    2    1    2    0    0  0.58611426653E+02  0.56341549931E+01  0.79480200371E+03  0.80673719573E+03  0.12509050658E+03 0.  0.
          5    1    3    3  502    0  0.66620392376E+01  0.18735258220E+02  0.67646286994E+03  0.67676796575E+03  0.41800000000E+01 0. -1.
         -5    1    3    3    0  502  0.51949387415E+02 -0.13101103227E+02  0.11833913377E+03  0.12996922998E+03  0.41800000000E+01 0. -1.
        -11    1    1    2    0    0 -0.73239277674E+02  0.20825623846E+02  0.25743639507E+03  0.26846079026E+03  0.00000000000E+00 0. -1.
         11    1    1    2    0    0  0.14627851022E+02 -0.26459778839E+02  0.16392536067E+03  0.16669018505E+03  0.00000000000E+00 0.  1.
</event>
<event>
 7    1  0.2530765E-009  0.1094221E+03  0.7561462E-02  0.1261644E+00
         -1   -1    0    0    0  501 -0.00000000000E+00  0.00000000000E+00  0.16374776896E+03  0.16374776896E+03  0.00000000000E+00 0.  1.
          1   -1    0    0  501    0  0.00000000000E+00 -0.00000000000E+00 -0.98247958931E+02  0.98247958931E+02  0.00000000000E+00 0. -1.
         25    2    1    2    0    0 -0.57490104118E+02  0.28987991641E+02  0.35651899690E+02  0.14513248257E+03  0.12508782440E+03 0.  0.
          5    1    3    3  502    0 -0.88857655547E+02  0.14653306584E+00 -0.71083332845E+00  0.88958878732E+02  0.41800000000E+01 0.  1.
         -5    1    3    3    0  502  0.31367551429E+02  0.28841458575E+02  0.36362733019E+02  0.56173603837E+02  0.41800000000E+01 0.  1.
        -11    1    1    2    0    0  0.54510534161E+02 -0.45061678702E+02 -0.12182097524E+02  0.71765985829E+02  0.00000000000E+00 0. -1.
         11    1    1    2    0    0  0.29795699574E+01  0.16073687061E+02  0.42030007860E+02  0.45097259491E+02  0.00000000000E+00 0.  1.
</event>
<event>
 7    1  0.2530765E-009  0.1029328E+03  0.7561462E-02  0.1274247E+00
         -2   -1    0    0    0  501 -0.00000000000E+00  0.00000000000E+00  0.12982068939E+02  0.12982068939E+02  0.00000000000E+00 0.  1.
          2   -1    0    0  501    0  0.00000000000E+00 -0.00000000000E+00 -0.10129472251E+04  0.10129472251E+04  0.00000000000E+00 0. -1.
         25    2    1    2    0    0  0.91155419594E+01  0.58171344345E+02 -0.81640240824E+03  0.82802622040E+03  0.12509009183E+03 0.  0.
          5    1    3    3  502    0  0.25097766842E+01  0.94790543893E+02 -0.67943494945E+03  0.68603270266E+03  0.41800000000E+01 0.  1.
         -5    1    3    3    0  502  0.66057652752E+01 -0.36619199548E+02 -0.13696745879E+03  0.14199351774E+03  0.41800000000E+01 0.  1.
        -11    1    1    2    0    0  0.27923748930E+01 -0.61163569432E+02 -0.16037712354E+03  0.17166712364E+03  0.00000000000E+00 0. -1.
         11    1    1    2    0    0 -0.11907916852E+02  0.29922250865E+01 -0.23185624369E+02  0.26235949995E+02  0.00000000000E+00 0.  1.
</event>
<event>
 7    1  0.2530765E-009  0.1597218E+03  0.7561462E-02  0.1189011E+00
         -1   -1    0    0    0  501 -0.00000000000E+00  0.00000000000E+00  0.17444007765E+03  0.17444007765E+03  0.00000000000E+00 0.  1.
          1   -1    0    0  501    0  0.00000000000E+00 -0.00000000000E+00 -0.50453984244E+03  0.50453984244E+03  0.00000000000E+00 0. -1.
         25    2    1    2    0    0 -0.68072689226E+02 -0.13076549976E+03  0.98226493626E+02  0.21686264928E+03  0.12508979836E+03 0.  0.
          5    1    3    3  502    0 -0.62303537375E+01 -0.75420948139E+02  0.10932520151E+03  0.13302860148E+03  0.41800000000E+01 0. -1.
         -5    1    3    3    0  502 -0.61842335489E+02 -0.55344551625E+02 -0.11098707886E+02  0.83834047797E+02  0.41800000000E+01 0. -1.
        -11    1    1    2    0    0 -0.54893816060E+01  0.53831917404E+02 -0.23774699026E+03  0.24382706991E+03  0.00000000000E+00 0.  1.
         11    1    1    2    0    0  0.73562070832E+02  0.76933582360E+02 -0.19057926815E+03  0.21829020090E+03  0.00000000000E+00 0. -1.
</event>
<event>
 7    1  0.2530765E-009  0.1414340E+03  0.7561462E-02  0.1211412E+00
          1   -1    0    0  501    0  0.00000000000E+00  0.00000000000E+00  0.89976799216E+03  0.89976799216E+03  0.00000000000E+00 0. -1.
         -1   -1    0    0    0  501 -0.00000000000E+00 -0.00000000000E+00 -0.29321344059E+02  0.29321344059E+02  0.00000000000E+00 0.  1.
         25    2    1    2    0    0  0.70758309820E+02  0.77908352108E+02  0.30056454226E+03  0.34214337408E+03  0.12508634868E+03 0.  0.
          5    1    3    3  502    0  0.39691935211E+01  0.75209202495E+02  0.24094884354E+03  0.25247969471E+03  0.41800000000E+01 0. -1.
         -5    1    3    3    0  502  0.66789116299E+02  0.26991496127E+01  0.59615698721E+02  0.89663679373E+02  0.41800000000E+01 0. -1.
        -11    1    1    2    0    0  0.21748843615E+02 -0.27673495188E+02  0.14854545849E+03  0.15265840224E+03  0.00000000000E+00 0. -1.
         11    1    1    2    0    0 -0.92507153436E+02 -0.50234856920E+02  0.42133664735E+03  0.43428755990E+03  0.00000000000E+00 0.  1.
</event>
<event>
 7    1  0.2530765E-009  0.4225512E+02  0.7561462E-02  0.1492243E+00
         -3   -1    0    0    0  501 -0.00000000000E+00  0.00000000000E+00  0.66631328965E+03  0.66631328965E+03  0.00000000000E+00 0. -1.
          3   -1    0    0  501    0  0.00000000000E+00 -0.00000000000E+00 -0.37176892372E+02  0.37176892372E+02  0.00000000000E+00 0.  1.
         25    2    1    2    0    0  0.58469621154E+01 -0.20928410270E+02  0.58937101519E+03  0.60289173937E+03  0.12509224812E+03 0.  0.
          5    1    3    3  502    0  0.82670783567E+01 -0.26956526145E+02  0.23428995446E+02  0.36897006843E+02  0.41800000000E+01 0. -1.
         -5    1    3    3    0  502 -0.24201162413E+01  0.60281158754E+01  0.56594201974E+03  0.56599473253E+03  0.41800000000E+01 0. -1.
        -11    1    1    2    0    0  0.18048290003E+02  0.15470237944E+02  0.62685249309E+02  0.67041103176E+02  0.00000000000E+00 0. -1.
         11    1    1    2    0    0 -0.23895252119E+02  0.54581723259E+01 -0.22919867219E+02  0.33557339470E+02  0.00000000000E+00 0.  1.
</event>
<event>
 7    1  0.2530765E-009  0.1150639E+03  0.7561462E-02  0.1251470E+00
          2   -1    0    0  501    0  0.00000000000E+00  0.00000000000E+00  0.85553862538E+03  0.85553862538E+03  0.00000000000E+00 0. -1.
         -2   -1    0    0    0  501 -0.00000000000E+00 -0.00000000000E+00 -0.16607959628E+02  0.16607959628E+02  0.00000000000E+00 0.  1.
         25    2    1    2    0    0  0.35380762326E+02  0.23728152889E+00  0.55496422917E+03  0.56998696569E+03  0.12509192918E+03 0.  0.
          5    1    3    3  502    0  0.29858760818E+02 -0.60664660867E+02  0.25659703953E+03  0.26538888404E+03  0.41800000000E+01 0.  1.
         -5    1    3    3    0  502  0.55220015077E+01  0.60901942396E+02  0.29836718965E+03  0.30459808165E+03  0.41800000000E+01 0.  1.
        -11    1    1    2    0    0 -0.42767347158E+02 -0.41248837976E+02  0.13548699649E+03  0.14794336360E+03  0.00000000000E+00 0. -1.
         11    1    1    2    0    0  0.73865848317E+01  0.41011556447E+02  0.14847944009E+03  0.15421625571E+03  0.00000000000E+00 0.  1.
</event>
<event>
 7    1  0.2530765E-009  0.1133746E+03  0.7561462E-02  0.1254445E+00
         -1   -1    0    0    0  501 -0.00000000000E+00  0.00000000000E+00  0.82354294054E+02  0.82354294054E+02  0.00000000000E+00 0.  1.
          1   -1    0    0  501    0  0.00000000000E+00 -0.00000000000E+00 -0.23881626228E+03  0.23881626228E+03  0.00000000000E+00 0. -1.
         25    2    1    2    0    0  0.73668782898E+02 -0.27491656402E+02 -0.13312964106E+03  0.19888967216E+03  0.12510283617E+03 0.  0.
          5    1    3    3  502    0  0.66275682089E+01 -0.68388852287E+02 -0.56011011782E+02  0.88744947002E+02  0.41800000000E+01 0. -1.
         -5    1    3    3    0  502  0.67041214689E+02  0.40897195885E+02 -0.77118629280E+02  0.11014472516E+03  0.41800000000E+01 0. -1.
        -11    1    1    2    0    0 -0.58858616253E+02  0.17498995398E+02  0.28323799580E+02  0.67622401391E+02  0.00000000000E+00 0.  1.
         11    1    1    2    0    0 -0.14810166645E+02  0.99926610036E+01 -0.51656126742E+02  0.54658482781E+02  0.00000000000E+00 0. -1.
</event>
<event>
 7    1  0.2530765E-009  0.1691863E+03  0.7561462E-02  0.1178699E+00
         -2   -1    0    0    0  501 -0.00000000000E+00  0.00000000000E+00  0.50422729954E+02  0.50422729954E+02  0.00000000000E+00 0.  1.
          2   -1    0    0  501    0  0.00000000000E+00 -0.00000000000E+00 -0.12505447206E+04  0.12505447206E+04  0.00000000000E+00 0. -1.
         25    2    1    2    0    0  0.69974093283E+01 -0.14593792418E+03 -0.10697084739E+04  0.10868625869E+04  0.12508885773E+03 0.  0.
          5    1    3    3  502    0  0.38619861194E+02 -0.15431510206E+03 -0.90528556546E+03  0.91916487740E+03  0.41800000000E+01 0.  1.
         -5    1    3    3    0  502 -0.31622451866E+02  0.83771778732E+01 -0.16442290840E+03  0.16769770952E+03  0.41800000000E+01 0.  1.
        -11    1    1    2    0    0  0.13128600617E+01  0.30002323030E+02  0.10158376667E+02  0.31702611963E+02  0.00000000000E+00 0.  1.
         11    1    1    2    0    0 -0.83102693899E+01  0.11593560115E+03 -0.14057189350E+03  0.18240225172E+03  0.00000000000E+00 0. -1.
</event>
<event>
 7    1  0.2530765E-009  0.9580783E+02  0.7561462E-02  0.1289367E+00
          1   -1    0    0  501    0  0.00000000000E+00  0.00000000000E+00  0.15825116450E+03  0.15825116450E+03  0.00000000000E+00 0. -1.
         -1   -1    0    0    0  501 -0.00000000000E+00 -0.00000000000E+00 -0.86289889928E+02  0.86289889928E+02  0.00000000000E+00 0.  1.
         25    2    1    2    0    0 -0.44137336322E+02 -0.21464623287E+02  0.48222496696E+02  0.14276306216E+03  0.12508816178E+03 0.  0.
          5    1    3    3  502    0  0.43865153098E+02 -0.11635633903E+02  0.13200699495E+02  0.47447555256E+02  0.41800000000E+01 0. -1.
         -5    1    3    3    0  502 -0.88002489421E+02 -0.98289893832E+01  0.35021797202E+02  0.95315506901E+02  0.41800000000E+01 0. -1.
        -11    1    1    2    0    0  0.20257927247E+02  0.26129245415E+02 -0.28820361347E+02  0.43860395695E+02  0.00000000000E+00 0.  1.
         11    1    1    2    0    0  0.23879409075E+02 -0.46646221289E+01  0.52559139223E+02  0.57917596577E+02  0.00000000000E+00 0. -1.
</event>
<event>
 7    1  0.2530765E-009  0.1917066E+03  0.7561462E-02  0.1156931E+00
         -1   -1    0    0    0  501 -0.00000000000E+00  0.00000000000E+00  0.46639948308E+03  0.46639948308E+03  0.00000000000E+00 0.  1.
          1   -1    0    0  501    0  0.00000000000E+00 -0.00000000000E+00 -0.11890553525E+03  0.11890553525E+03  0.00000000000E+00 0. -1.
         25    2    1    2    0    0 -0.81674588415E+02 -0.17260274193E+03  0.28639055175E+03  0.36623766716E+03  0.12509210928E+03 0.  0.
          5    1    3    3  502    0 -0.15300647173E+02 -0.18967283659E+02 -0.93225230972E+01  0.26424410877E+02  0.41800000000E+01 0.  1.
         -5    1    3    3    0  502 -0.66373941242E+02 -0.15363545827E+03  0.29571307485E+03  0.33981325629E+03  0.41800000000E+01 0.  1.
        -11    1    1    2    0    0  0.15623108685E+02  0.44209013007E+02  0.58084869024E+02  0.74648311203E+02  0.00000000000E+00 0.  1.
         11    1    1    2    0    0  0.66051479730E+02  0.12839372892E+03  0.30185270563E+01  0.14441903997E+03  0.00000000000E+00 0. -1.
</event>
<event>
 7    1  0.2530765E-009  0.1300132E+03  0.7561462E-02  0.1227436E+00
         -3   -1    0    0    0  501 -0.00000000000E+00  0.00000000000E+00  0.98281410412E+03  0.98281410412E+03  0.00000000000E+00 0.  1.
          3   -1    0    0  501    0  0.00000000000E+00 -0.00000000000E+00 -0.21627881513E+02  0.21627881513E+02  0.00000000000E+00 0. -1.
         25    2    1    2    0    0 -0.84569149932E+02 -0.20539746642E+02  0.66644210743E+03  0.68364205180E+03  0.12509016792E+03 0.  0.
          5    1    3    3  502    0 -0.28588133675E+02  0.42732045240E+02  0.41854102167E+03  0.42170768110E+03  0.41800000000E+01 0. -1.
         -5    1    3    3    0  502 -0.55981016257E+02 -0.63271791882E+02  0.24790108576E+03  0.26193437069E+03  0.41800000000E+01 0. -1.
        -11    1    1    2    0    0  0.13289903831E+02 -0.32433198772E+02  0.11647964734E+03  0.12163898294E+03  0.00000000000E+00 0. -1.
         11    1    1    2    0    0  0.71279246101E+02  0.52972945414E+02  0.17826446784E+03  0.19916095090E+03  0.00000000000E+00 0.  1.
</event>
<event>
 7    1  0.2530765E-009  0.1060877E+03  0.7561462E-02  0.1267991E+00
         -2   -1    0    0    0  501 -0.00000000000E+00  0.00000000000E+00  0.20858839392E+03  0.20858839392E+03  0.00000000000E+00 0.  1.
          2   -1    0    0  501    0  0.00000000000E+00 -0.00000000000E+00 -0.79750133690E+02  0.79750133690E+02  0.00000000000E+00 0. -1.
         25    2    1    2    0    0  0.21928925094E+02  0.50600626139E+02  0.23332426083E+02  0.13867822489E+03  0.12508375925E+03 0.  0.
          5    1    3    3  502    0  0.23499748099E+00  0.81988675400E+02 -0.16088562586E+02  0.83657111854E+02  0.41800000000E+01 0.  1.
         -5    1    3    3    0  502  0.21693927613E+02 -0.31388049261E+02  0.39420988669E+02  0.55021113032E+02  0.41800000000E+01 0.  1.
        -11    1    1    2    0    0  0.22817300767E+02 -0.39463026549E+02  0.90218325092E+02  0.10108068985E+03  0.00000000000E+00 0.  1.
         11    1    1    2    0    0 -0.44746225861E+02 -0.11137599590E+02  0.15287509053E+02  0.48579612869E+02  0.00000000000E+00 0. -1.
</event>
<event>
 7    1  0.2530765E-009  0.1672237E+03  0.7561462E-02  0.1180774E+00
         -1   -1    0    0    0  501 -0.00000000000E+00  0.00000000000E+00  0.13855749335E+03  0.13855749335E+03  0.00000000000E+00 0.  1.
          1   -1    0    0  501    0  0.00000000000E+00 -0.00000000000E+00 -0.27354410720E+03  0.27354410720E+03  0.00000000000E+00 0. -1.
         25    2    1    2    0    0  0.57820171679E+02  0.14343578942E+03 -0.23493913419E+02  0.20029244007E+03  0.12509236444E+03 0.  0.
          5    1    3    3  502    0 -0.13941623305E+02  0.32669346296E+02  0.40098028492E+02  0.53730618242E+02  0.41800000000E+01 0. -1.
         -5    1    3    3    0  502  0.71761794983E+02  0.11076644313E+03 -0.63591941911E+02  0.14656182183E+03  0.41800000000E+01 0. -1.
        -11    1    1    2    0    0 -0.43399641417E+02 -0.31135195162E+02 -0.76501523675E+02  0.93302799409E+02  0.00000000000E+00 0. -1.
         11    1    1    2    0    0 -0.14420530262E+02 -0.11230059426E+03 -0.34991176753E+02  0.11850636107E+03  0.00000000000E+00 0.  1.
</event>
<event>
 7    1  0.2530765E-009  0.1392237E+03  0.7561462E-02  0.1214377E+00
          1   -1    0    0  501    0  0.00000000000E+00  0.00000000000E+00  0.20949379765E+03  0.20949379765E+03  0.00000000000E+00 0. -1.
         -1   -1    0    0    0  501 -0.00000000000E+00 -0.00000000000E+00 -0.10415838279E+03  0.10415838279E+03  0.00000000000E+00 0.  1.
         25    2    1    2    0    0  0.11209745495E+02  0.96550137474E+02  0.80052399741E+02  0.17749128073E+03  0.12508869090E+03 0.  0.
          5    1    3    3  502    0 -0.45929499494E+02  0.67144271259E+02  0.78422821783E+02  0.11307291215E+03  0.41800000000E+01 0.  1.
         -5    1    3    3    0  502  0.57139244989E+02  0.29405866215E+02  0.16295779578E+01  0.64418368577E+02  0.41800000000E+01 0.  1.
        -11    1    1    2    0    0  0.34922123612E+02 -0.72715551594E+02  0.64435701726E+01  0.80923579739E+02  0.00000000000E+00 0.  1.
         11    1    1    2    0    0 -0.46131869107E+02 -0.23834585880E+02  0.18839444954E+02  0.55237319971E+02  0.00000000000E+00 0. -1.
</event>
<event>
 7    1  0.2530765E-009  0.1686422E+03  0.7561462E-02  0.1179271E+00
          1   -1    0    0  501    0  0.00000000000E+00  0.00000000000E+00  0.15077387878E+04  0.15077387878E+04  0.00000000000E+00 0. -1.
         -1   -1    0    0    0  501 -0.00000000000E+00 -0.00000000000E+00 -0.21857502039E+02  0.21857502039E+02  0.00000000000E+00 0.  1.
         25    2    1    2    0    0 -0.18145329978E+02  0.14191488180E+03  0.90078518079E+03  0.92061425926E+03  0.12509031038E+03 0.  0.
          5    1    3    3  502    0 -0.21493958998E+00 -0.23089138471E+02  0.13665598894E+03  0.13865599961E+03  0.41800000000E+01 0. -1.
         -5    1    3    3    0  502 -0.17930390388E+02  0.16500402027E+03  0.76412919184E+03  0.78195825965E+03  0.41800000000E+01 0. -1.
        -11    1    1    2    0    0 -0.22227762013E+01 -0.10940444175E+03  0.53394565604E+03  0.54504333426E+03  0.00000000000E+00 0. -1.
         11    1    1    2    0    0  0.20368106179E+02 -0.32510440044E+02  0.51150448907E+02  0.63938696300E+02  0.00000000000E+00 0.  1.
</event>
<event>
 7    1  0.2530765E-009  0.1098176E+03  0.7561462E-02  0.1260908E+00
          1   -1    0    0  501    0  0.00000000000E+00  0.00000000000E+00  0.70800672037E+02  0.70800672037E+02  0.00000000000E+00 0. -1.
         -1   -1    0    0    0  501 -0.00000000000E+00 -0.00000000000E+00 -0.21008217349E+03  0.21008217349E+03  0.00000000000E+00 0.  1.
         25    2    1    2    0    0 -0.47007201098E+01  0.47937506964E+02 -0.49453969545E+02  0.14287709901E+03  0.12509224187E+03 0.  0.
          5    1    3    3  502    0  0.49041117757E+02  0.41475204930E+02 -0.59514975360E+02  0.87662583505E+02  0.41800000000E+01 0. -1.
         -5    1    3    3    0  502 -0.53741837867E+02  0.64623020345E+01  0.10061005814E+02  0.55214515509E+02  0.41800000000E+01 0. -1.
        -11    1    1    2    0    0 -0.13651756152E+02  0.23525360616E+02 -0.91968512963E+01  0.28712281551E+02  0.00000000000E+00 0. -1.
         11    1    1    2    0    0  0.18352476262E+02 -0.71462867580E+02 -0.80630680616E+02  0.10929346497E+03  0.00000000000E+00 0.  1.
</event>
<event>
 7    1  0.2530765E-009  0.1824060E+03  0.7561462E-02  0.1165495E+00
         -3   -1    0    0    0  501 -0.00000000000E+00  0.00000000000E+00  0.51189708508E+02  0.51189708508E+02  0.00000000000E+00 0.  1.
          3   -1    0    0  501    0  0.00000000000E+00 -0.00000000000E+00 -0.83885486969E+03  0.83885486969E+03  0.00000000000E+00 0. -1.
         25    2    1    2    0    0  0.10907799111E+03  0.10824068450E+03 -0.22523113081E+03  0.29998646789E+03  0.12509502271E+03 0.  0.
          5    1    3    3  502    0  0.13385127597E+03  0.10772660613E+03 -0.20637995101E+03  0.26857278776E+03  0.41800000000E+01 0. -1.
         -5    1    3    3    0  502 -0.24773284861E+02  0.51407836877E+00 -0.18851179797E+02  0.31413680126E+02  0.41800000000E+01 0. -1.
        -11    1    1    2    0    0 -0.49405002838E+01 -0.46477884485E+02 -0.79907024275E+02  0.92572862210E+02  0.00000000000E+00 0.  1.
         11    1    1    2    0    0 -0.10413749082E+03 -0.61762800017E+02 -0.48252700610E+03  0.49748524810E+03  0.00000000000E+00 0. -1.
</event>
<event>
 7    1  0.2530765E-009  0.1076863E+03  0.7561462E-02  0.1264916E+00
          1   -1    0    0  501    0  0.00000000000E+00  0.00000000000E+00  0.13236919936E+04  0.13236919936E+04  0.00000000000E+00 0. -1.
         -1   -1    0    0    0  501 -0.00000000000E+00 -0.00000000000E+00 -0.12166749962E+02  0.12166749962E+02  0.00000000000E+00 0.  1.
         25    2    1    2    0    0 -0.53771595174E+02  0.54429713480E+01  0.94071557506E+03  0.95053385659E+03  0.12509120261E+03 0.  0.
          5    1    3    3  502    0 -0.52810480704E+02  0.46376850758E+02  0.28648692148E+03  0.29501184339E+03  0.41800000000E+01 0.  1.
         -5    1    3    3    0  502 -0.96111446944E+00 -0.40933879410E+02  0.65422865358E+03  0.65552201320E+03  0.41800000000E+01 0.  1.
        -11    1    1    2    0    0  0.17281260175E+02  0.41146510384E+02  0.13416128630E+03  0.14138927828E+03  0.00000000000E+00 0.  1.
         11    1    1    2    0    0  0.36490334999E+02 -0.46589481732E+02  0.23664838226E+03  0.24393560868E+03  0.00000000000E+00 0. -1.
</event>
<event>
 7    1  0.2530765E-009  0.1786213E+03  0.7561462E-02  0.1169144E+00
         -1   -1    0    0    0  501 -0.00000000000E+00  0.00000000000E+00  0.70746756604E+02  0.70746756604E+02  0.00000000000E+00 0.  1.
          1   -1    0    0  501    0  0.00000000000E+00 -0.00000000000E+00 -0.49253405989E+03  0.49253405989E+03  0.00000000000E+00 0. -1.
         25    2    1    2    0    0  0.10516669029E+03 -0.10495301656E+03 -0.25410244401E+03  0.31982799481E+03  0.12508687294E+03 0.  0.
          5    1    3    3  502    0 -0.21795241006E+02  0.33937773548E+01 -0.11228826847E+02  0.25101976169E+02  0.41800000000E+01 0. -1.
         -5    1    3    3    0  502  0.12696193130E+03 -0.10834679391E+03 -0.24287361717E+03  0.29472601864E+03  0.41800000000E+01 0. -1.
        -11    1    1    2    0    0  0.10916910619E+01  0.46584826721E+02 -0.15990122428E+02  0.49264813866E+02  0.00000000000E+00 0. -1.
         11    1    1    2    0    0 -0.10625838136E+03  0.58368189836E+02 -0.15169473684E+03  0.19418800781E+03  0.00000000000E+00 0.  1.
</event>
<event>
 7    1  0.2530765E-009  0.1660666E+03  0.7561462E-02  0.1182013E+00
          2   -1    0    0  501    0  0.00000000000E+00  0.00000000000E+00  0.11852127024E+04  0.11852127024E+04  0.00000000000E+00 0. -1.
         -2   -1    0    0    0  501 -0.00000000000E+00 -0.00000000000E+00 -0.25735540269E+02  0.25735540269E+02  0.00000000000E+00 0.  1.
         25    2    1    2    0    0 -0.75687474264E+02 -0.11429250904E+03  0.58057585140E+03  0.60951383587E+03  0.12508966987E+03 0.  0.
          5    1    3    3  502    0 -0.72970076430E+02 -0.19389657886E+02  0.14327199971E+03  0.16200286784E+03  0.41800000000E+01 0. -1.
         -5    1    3    3    0  502 -0.27173978340E+01 -0.94902851149E+02  0.43730385169E+03  0.44751096803E+03  0.41800000000E+01 0. -1.
        -11    1    1    2    0    0 -0.78806700467E+01  0.62864973270E+02  0.26944458537E+03  0.27679323404E+03  0.00000000000E+00 0. -1.
         11    1    1    2    0    0  0.83568144311E+02  0.51427535766E+02  0.30945672539E+03  0.32464117278E+03  0.00000000000E+00 0.  1.
</event>
<event>
 7    1  0.2530765E-009  0.1287827E+03  0.7561462E-02  0.1229273E+00
          4   -1    0    0  501    0  0.00000000000E+00  0.00000000000E+00  0.24592819597E+03  0.24592819597E+03  0.00000000000E+00 0. -1.
         -4   -1    0    0    0  501 -0.00000000000E+00 -0.00000000000E+00 -0.82452396449E+02  0.82452396449E+02  0.00000000000E+00 0.  1.
         25    2    1    2    0    0 -0.25999828961E+02  0.93860753552E+02  0.69829845644E+02  0.17323129569E+03  0.12508813812E+03 0.  0.
          5    1    3    3  502    0 -0.70396001370E+02  0.71694407845E+02  0.19515578469E+02  0.10244030129E+03  0.41800000000E+01 0.  1.
         -5    1    3    3    0  502  0.44396172409E+02  0.22166345707E+02  0.50314267175E+02  0.70790994399E+02  0.41800000000E+01 0.  1.
        -11    1    1    2    0    0 -0.12264919954E+02 -0.13764629819E+02 -0.80886895139E+01  0.20132565500E+02  0.00000000000E+00 0.  1.
         11    1    1    2    0    0  0.38264748915E+02 -0.80096123733E+02  0.10173464339E+03  0.13501673123E+03  0.00000000000E+00 0. -1.
</event>
<event>
 7    1  0.2530765E-009  0.1231093E+03  0.7561462E-02  0.1238054E+00
          2   -1    0    0  501    0  0.00000000000E+00  0.00000000000E+00  0.49428995202E+03  0.49428995202E+03  0.00000000000E+00 0. -1.
         -2   -1    0    0    0  501 -0.00000000000E+00 -0.00000000000E+00 -0.39909994264E+02  0.39909994264E+02  0.00000000000E+00 0.  1.
         25    2    1    2    0    0 -0.50160126466E+02  0.61840298419E+02  0.18468306072E+03  0.23684380679E+03  0.12508754976E+03 0.  0.
          5    1    3    3  502    0 -0.28191930839E+02  0.94346950365E+02  0.86887321497E+02  0.13138877823E+03  0.41800000000E+01 0. -1.
         -5    1    3    3    0  502 -0.21968195627E+02 -0.32506651946E+02  0.97795739220E+02  0.10545502856E+03  0.41800000000E+01 0. -1.
        -11    1    1    2    0    0 -0.16459741103E+02 -0.30331728938E+02  0.16949196720E+03  0.17296954588E+03  0.00000000000E+00 0. -1.
         11    1    1    2    0    0  0.66619867568E+02 -0.31508569481E+02  0.10020492984E+03  0.12438659361E+03  0.00000000000E+00 0.  1.
</event>
<event>
 7    1  0.2530765E-009  0.1085515E+03  0.7561462E-02  0.1263276E+00
          2   -1    0    0  501    0  0.00000000000E+00  0.00000000000E+00  0.32227119125E+03  0.32227119125E+03  0.00000000000E+00 0. -1.
         -2   -1    0    0    0  501 -0.00000000000E+00 -0.00000000000E+00 -0.42274743728E+02  0.42274743728E+02  0.00000000000E+00 0.  1.
         25    2    1    2    0    0  0.25310658280E+02 -0.26940816660E+02  0.20533491035E+03  0.24325910853E+03  0.12508449723E+03 0.  0.
          5    1    3    3  502    0  0.25144186254E+02  0.48518890344E+02  0.89645895525E+02  0.10507222186E+03  0.41800000000E+01 0. -1.
         -5    1    3    3    0  502  0.16647202505E+00 -0.75459707003E+02  0.11568901483E+03  0.13818688666E+03  0.41800000000E+01 0. -1.
        -11    1    1    2    0    0  0.28311704469E+02  0.48402975108E+01  0.51233685373E+02  0.58735607657E+02  0.00000000000E+00 0. -1.
         11    1    1    2    0    0 -0.53622362748E+02  0.22100519149E+02  0.23427851801E+02  0.62551218800E+02  0.00000000000E+00 0.  1.
</event>
<event>
 7    1  0.2530765E-009  0.2064524E+03  0.7561462E-02  0.1144407E+00
         -1   -1    0    0    0  501 -0.00000000000E+00  0.00000000000E+00  0.64460418174E+02  0.64460418174E+02  0.00000000000E+00 0.  1.
          1   -1    0    0  501    0  0.00000000000E+00 -0.00000000000E+00 -0.70894253171E+03  0.70894253171E+03  0.00000000000E+00 0. -1.
         25    2    1    2    0    0  0.13368692026E+03  0.11755350291E+03 -0.25406551722E+03  0.33449651124E+03  0.12509040850E+03 0.  0.
          5    1    3    3  502    0  0.12236589378E+03  0.32529573353E+02 -0.11524744131E+03  0.17126304398E+03  0.41800000000E+01 0. -1.
         -5    1    3    3    0  502  0.11321026482E+02  0.85023929553E+02 -0.13881807591E+03  0.16323346727E+03  0.41800000000E+01 0. -1.
        -11    1    1    2    0    0 -0.77890220991E+02 -0.12159262024E+03 -0.27266617594E+03  0.30854253406E+03  0.00000000000E+00 0. -1.
         11    1    1    2    0    0 -0.55796699271E+02  0.40391173378E+01 -0.11775042038E+03  0.13036390458E+03  0.00000000000E+00 0.  1.
</event>
<event>
 7    1  0.2530765E-009  0.1054807E+03  0.7561462E-02  0.1269175E+00
         -2   -1    0    0    0  501 -0.00000000000E+00  0.00000000000E+00  0.57874613119E+02  0.57874613119E+02  0.00000000000E+00 0.  1.
          2   -1    0    0  501    0  0.00000000000E+00 -0.00000000000E+00 -0.28450367186E+03  0.28450367186E+03  0.00000000000E+00 0. -1.
         25    2    1    2    0    0  0.69709232352E+02 -0.56732423183E+01 -0.12443444741E+03  0.18979693605E+03  0.12508949787E+03 0.  0.
          5    1    3    3  502    0  0.40148689537E+02 -0.40272193125E+02  0.23030966710E+00  0.57020103938E+02  0.41800000000E+01 0.  1.
         -5    1    3    3    0  502  0.29560542815E+02  0.34598950806E+02 -0.12466475708E+03  0.13277683211E+03  0.41800000000E+01 0.  1.
        -11    1    1    2    0    0 -0.43655818958E+02 -0.37676877593E+02 -0.76649882913E+02  0.95919665265E+02  0.00000000000E+00 0.  1.
         11    1    1    2    0    0 -0.26053413394E+02  0.43350119911E+02 -0.25544728419E+02  0.56661683665E+02  0.00000000000E+00 0. -1.
</event>
<event>
 7    1  0.2530765E-009  0.1966932E+03  0.7561462E-02  0.1152559E+00
          1   -1    0    0  501    0  0.00000000000E+00  0.00000000000E+00  0.12486259850E+04  0.12486259850E+04  0.00000000000E+00 0. -1.
         -1   -1    0    0    0  501 -0.00000000000E+00 -0.00000000000E+00 -0.32803722679E+02  0.32803722679E+02  0.00000000000E+00 0.  1.
         25    2    1    2    0    0 -0.16722215830E+03  0.13842817050E+02  0.73204565030E+03  0.76137563255E+03  0.12508855226E+03 0.  0.
          5    1    3    3  502    0 -0.93043243119E+01  0.43261747287E+02  0.10401719701E+03  0.11311586495E+03  0.41800000000E+01 0.  1.
         -5    1    3    3    0  502 -0.15791783399E+03 -0.29418930237E+02  0.62802845329E+03  0.64825976760E+03  0.41800000000E+01 0.  1.
        -11    1    1    2    0    0  0.33385567670E+02 -0.39769014289E+02  0.98123203233E+02  0.11101501538E+03  0.00000000000E+00 0.  1.
         11    1    1    2    0    0  0.13383659063E+03  0.25926197239E+02  0.38565340881E+03  0.40903905978E+03  0.00000000000E+00 0. -1.
</event>
<event>
 7    1  0.2530765E-009  0.8297567E+02  0.7561462E-02  0.1320813E+00
          2   -1    0    0  501    0  0.00000000000E+00  0.00000000000E+00  0.21579647821E+02  0.21579647821E+02  0.00000000000E+00 0. -1.
         -2   -1    0    0    0  501 -0.00000000000E+00 -0.00000000000E+00 -0.74935866600E+03  0.74935866600E+03  0.00000000000E+00 0.  1.
         25    2    1    2    0    0 -0.23009407395E+02 -0.26651128480E+01 -0.56446145598E+03  0.57861928994E+03  0.12508801600E+03 0.  0.
          5    1    3    3  502    0  0.19209684043E+02  0.13162198113E+02 -0.16627562050E+02  0.28917185893E+02  0.41800000000E+01 0.  1.
         -5    1    3    3    0  502 -0.42219091439E+02 -0.15827310961E+02 -0.54783389393E+03  0.54970210404E+03  0.41800000000E+01 0.  1.
        -11    1    1    2    0    0 -0.35123806871E+02 -0.11893119914E+02 -0.91832527766E+02  0.99037070162E+02  0.00000000000E+00 0.  1.
         11    1    1    2    0    0  0.58133214266E+02  0.14558232762E+02 -0.71485034431E+02  0.93281953719E+02  0.00000000000E+00 0. -1.
</event>
<event>
 7    1  0.2530765E-009  0.9530581E+02  0.7561462E-02  0.1290489E+00
          2   -1    0    0  501    0  0.00000000000E+00  0.00000000000E+00  0.19345836310E+03  0.19345836310E+03  0.00000000000E+00 0. -1.
         -2   -1    0    0    0  501 -0.00000000000E+00 -0.00000000000E+00 -0.85559483436E+02  0.85559483436E+02  0.00000000000E+00 0.  1.
         25    2    1    2    0    0 -0.11406103510E+02  0.63362816886E+02  0.47037613953E+02  0.14833773018E+03  0.12508636740E+03 0.  0.
          5    1    3    3  502    0  0.32935749159E+02  0.10320631322E+02 -0.29152006438E+02  0.45371696936E+02  0.41800000000E+01 0. -1.
         -5    1    3    3    0  502 -0.44341852669E+02  0.53042185564E+02  0.76189620391E+02  0.10296603325E+03  0.41800000000E+01 0. -1.
        -11    1    1    2    0    0 -0.21795896704E+02 -0.41361947830E+02 -0.11441149674E+02  0.48132855175E+02  0.00000000000E+00 0. -1.
         11    1    1    2    0    0  0.33202000213E+02 -0.22000869055E+02  0.72302415384E+02  0.82547261176E+02  0.00000000000E+00 0.  1.
</event>
<event>
 7    1  0.2530765E-009  0.1624624E+03  0.7561462E-02  0.1185944E+00
         -2   -1    0    0    0  501 -0.00000000000E+00  0.00000000000E+00  0.92252164247E+02  0.92252164247E+02  0.00000000000E+00 0.  1.
          2   -1    0    0  501    0  0.00000000000E+00 -0.00000000000E+00 -0.42738891555E+03  0.42738891555E+03  0.00000000000E+00 0. -1.
         25    2    1    2    0    0  0.13287670248E+03 -0.29561714377E+02 -0.50106425462E+02  0.19154214844E+03  0.12509047820E+03 0.  0.
          5    1    3    3  502    0  0.12513529538E+03  0.25536963820E+02 -0.24326586837E+02  0.13007779941E+03  0.41800000000E+01 0.  1.
         -5    1    3    3    0  502  0.77414071038E+01 -0.55098678197E+02 -0.25779838625E+02  0.61464349037E+02  0.41800000000E+01 0.  1.
        -11    1    1    2    0    0 -0.67101601582E+02  0.34375653324E+02 -0.23052143855E+03  0.24253751072E+03  0.00000000000E+00 0. -1.
         11    1    1    2    0    0 -0.65775100902E+02 -0.48139389473E+01 -0.54508887294E+02  0.85561420634E+02  0.00000000000E+00 0.  1.
</event>
<event>
 7    1  0.2530765E-009  0.1500862E+03  0.7561462E-02  0.1200367E+00
          2   -1    0    0  501    0  0.00000000000E+00  0.00000000000E+00  0.24113837887E+03  0.24113837887E+03  0.00000000000E+00 0. -1.
         -2   -1    0    0    0  501 -0.00000000000E+00 -0.00000000000E+00 -0.22172370316E+03  0.22172370316E+03  0.00000000000E+00 0.  1.
         25    2    1    2    0    0  0.11860620082E+03 -0.52625298085E+02  0.16734132549E+03  0.24594164695E+03  0.12508925460E+03 0.  0.
          5    1    3    3  502    0  0.13999769204E+03 -0.47547279340E+02  0.10982793127E+03  0.18422742585E+03  0.41800000000E+01 0.  1.
         -5    1    3    3    0  502 -0.21391491220E+02 -0.50780187451E+01  0.57513394223E+02  0.61714221100E+02  0.41800000000E+01 0.  1.
        -11    1    1    2    0    0 -0.92010664879E+02  0.43392794776E+02 -0.46855107063E+02  0.11200133101E+03  0.00000000000E+00 0. -1.
         11    1    1    2    0    0 -0.26595535939E+02  0.92325033089E+01 -0.10107154272E+03  0.10491910406E+03  0.00000000000E+00 0.  1.
</event>
<event>
 7    1  0.2530765E-009  0.9666279E+02  0.7561462E-02  0.1287474E+00
         -2   -1    0    0    0  501 -0.00000000000E+00  0.00000000000E+00  0.34148998120E+02  0.34148998120E+02  0.00000000000E+00 0.  1.
          2   -1    0    0  501    0  0.00000000000E+00 -0.00000000000E+00 -0.42818060346E+03  0.42818060346E+03  0.00000000000E+00 0. -1.
         25    2    1    2    0    0  0.20440078136E+02  0.48213592937E+02 -0.20151834223E+03  0.24290129389E+03  0.12509615893E+03 0.  0.
          5    1    3    3  502    0 -0.35262253927E+02  0.32833782338E+02 -0.17041122176E+03  0.17714101929E+03  0.41800000000E+01 0. -1.
         -5    1    3    3    0  502  0.55702332063E+02  0.15379810599E+02 -0.31107120477E+02  0.65760274602E+02  0.41800000000E+01 0. -1.
        -11    1    1    2    0    0  0.25422502954E+02 -0.24867199387E+02 -0.23185683529E+02  0.42452999687E+02  0.00000000000E+00 0.  1.
         11    1    1    2    0    0 -0.45862581090E+02 -0.23346393550E+02 -0.16932757958E+03  0.17697530800E+03  0.00000000000E+00 0. -1.
</event>
<event>
 7    1  0.2530765E-009  0.1113766E+03  0.7561462E-02  0.1258042E+00
          2   -1    0    0  501    0  0.00000000000E+00  0.00000000000E+00  0.19492645409E+03  0.19492645409E+03  0.00000000000E+00 0. -1.
         -2   -1    0    0    0  501 -0.00000000000E+00 -0.00000000000E+00 -0.15673840172E+03  0.15673840172E+03  0.00000000000E+00 0.  1.
         25    2    1    2    0    0 -0.51210143220E+01  0.89214428550E+02 -0.81184503738E+02  0.17384973526E+03  0.12508943902E+03 0.  0.
          5    1    3    3  502    0  0.10119171995E+02  0.34589840983E+02  0.31230052332E+02  0.47871111432E+02  0.41800000000E+01 0.  1.
         -5    1    3    3    0  502 -0.15240186317E+02  0.54624587567E+02 -0.11241455607E+03  0.12597862383E+03  0.41800000000E+01 0.  1.
        -11    1    1    2    0    0 -0.42629466391E+02 -0.60090981465E+02  0.83554314506E+02  0.11139802929E+03  0.00000000000E+00 0.  1.
         11    1    1    2    0    0  0.47750480713E+02 -0.29123447086E+02  0.35818241601E+02  0.66417091248E+02  0.00000000000E+00 0. -1.
</event>
<event>
 7    1  0.2530765E-009  0.8534481E+02  0.7561462E-02  0.1314533E+00
          3   -1    0    0  501    0  0.00000000000E+00  0.00000000000E+00  0.47762617034E+03  0.47762617034E+03  0.00000000000E+00 0.  1.
         -3   -1    0    0    0  501 -0.00000000000E+00 -0.00000000000E+00 -0.32037849204E+02  0.32037849204E+02  0.00000000000E+00 0. -1.
         25    2    1    2    0    0 -0.44724546941E+02 -0.35397227794E+02  0.19919508065E+03  0.24203192786E+03  0.12509006801E+03 0.  0.
          5    1    3    3  502    0 -0.17907530802E+02 -0.34568808300E+02  0.20939608231E+03  0.21302552395E+03  0.41800000000E+01 0.  1.
         -5    1    3    3    0  502 -0.26817016139E+02 -0.82841949370E+00 -0.10201001654E+02  0.29006403917E+02  0.41800000000E+01 0.  1.
        -11    1    1    2    0    0  0.49617168281E+02 -0.16472941262E+02  0.12941453210E+03  0.13957557917E+03  0.00000000000E+00 0.  1.
         11    1    1    2    0    0 -0.48926213399E+01  0.51870169055E+02  0.11697870838E+03  0.12805651251E+03  0.00000000000E+00 0. -1.
</event>
<event>
 7    1  0.2530765E-009  0.8580692E+02  0.7561462E-02  0.1313336E+00
         -1   -1    0    0    0  501 -0.00000000000E+00  0.00000000000E+00  0.24897240143E+03  0.24897240143E+03  0.00000000000E+00 0. -1.
          1   -1    0    0  501    0  0.00000000000E+00 -0.00000000000E+00 -0.81015283726E+02  0.81015283726E+02  0.00000000000E+00 0.  1.
         25    2    1    2    0    0  0.13877538014E+02 -0.39610435695E+02  0.18541492135E+03  0.22755989520E+03  0.12507293938E+03 0.  0.
          5    1    3    3  502    0 -0.17695209753E+02 -0.77538172866E+02  0.90887446701E+02  0.12084406923E+03  0.41800000000E+01 0.  1.
         -5    1    3    3    0  502  0.31572747768E+02  0.37927737171E+02  0.94527474653E+02  0.10671582597E+03  0.41800000000E+01 0.  1.
        -11    1    1    2    0    0 -0.92061598198E+01  0.16746972270E+02  0.37848685561E+02  0.42399734168E+02  0.00000000000E+00 0. -1.
         11    1    1    2    0    0 -0.46713781946E+01  0.22863463425E+02 -0.55306489206E+02  0.60028055793E+02  0.00000000000E+00 0.  1.
</event>
<event>
 7    1  0.2530765E-009  0.1597692E+03  0.7561462E-02  0.1188958E+00
          2   -1    0    0  501    0  0.00000000000E+00  0.00000000000E+00  0.20076570865E+03  0.20076570865E+03  0.00000000000E+00 0. -1.
         -2   -1    0    0    0  501 -0.00000000000E+00 -0.00000000000E+00 -0.14147086691E+03  0.14147086691E+03  0.00000000000E+00 0.  1.
         25    2    1    2    0    0 -0.10084972650E+03  0.63887762338E+02  0.80695508356E+02  0.19081896508E+03  0.12509116217E+03 0.  0.
          5    1    3    3  502    0  0.28944455004E+02  0.15528534305E+02  0.69081337985E+01  0.33824718265E+02  0.41800000000E+01 0.  1.
         -5    1    3    3    0  502 -0.12979418151E+03  0.48359228033E+02  0.73787374558E+02  0.15699424682E+03  0.41800000000E+01 0.  1.
        -11    1    1    2    0    0  0.54078316872E+02 -0.81555605540E+02 -0.25879564688E+02  0.10122022041E+03  0.00000000000E+00 0. -1.
         11    1    1    2    0    0  0.46771409632E+02  0.17667843202E+02  0.44788980770E+01  0.50197390075E+02  0.00000000000E+00 0.  1.
</event>
<event>
 7    1  0.2530765E-009  0.1485396E+03  0.7561462E-02  0.1202279E+00
         -1   -1    0    0    0  501 -0.00000000000E+00  0.00000000000E+00  0.23984367645E+02  0.23984367645E+02  0.00000000000E+00 0.  1.
          1   -1    0    0  501    0  0.00000000000E+00 -0.00000000000E+00 -0.98366705520E+03  0.98366705520E+03  0.00000000000E+00 0. -1.
         25    2    1    2    0    0  0.95916227264E+02 -0.45267317014E+02 -0.43740498561E+03  0.46713984426E+03  0.12508980781E+03 0.  0.
          5    1    3    3  502    0  0.20056945351E+02 -0.74611554390E+02 -0.27168768308E+03  0.28249041514E+03  0.41800000000E+01 0.  1.
         -5    1    3    3    0  502  0.75859281913E+02  0.29344237376E+02 -0.16571730253E+03  0.18464942913E+03  0.41800000000E+01 0.  1.
        -11    1    1    2    0    0 -0.55089168869E+02  0.71102711133E+02 -0.30868888904E+03  0.32152642546E+03  0.00000000000E+00 0.  1.
         11    1    1    2    0    0 -0.40827058395E+02 -0.25835394119E+02 -0.21358881291E+03  0.21898515312E+03  0.00000000000E+00 0. -1.
</event>
<event>
 7    1  0.2530765E-009  0.8691261E+02  0.7561462E-02  0.1310505E+00
          2   -1    0    0  501    0  0.00000000000E+00  0.00000000000E+00  0.67061013386E+02  0.67061013386E+02  0.00000000000E+00 0.  1.
         -2   -1    0    0    0  501 -0.00000000000E+00 -0.00000000000E+00 -0.20393302954E+03  0.20393302954E+03  0.00000000000E+00 0. -1.
         25    2    1    2    0    0 -0.11004643018E+02  0.28847120054E+02 -0.45996993665E+02  0.13681139963E+03  0.12509347361E+03 0.  0.
          5    1    3    3  502    0 -0.44812612620E+02  0.37842119644E+02 -0.72044825044E+02  0.92995298185E+02  0.41800000000E+01 0.  1.
         -5    1    3    3    0  502  0.33807969602E+02 -0.89949995901E+01  0.26047831379E+02  0.43816101444E+02  0.41800000000E+01 0.  1.
        -11    1    1    2    0    0  0.30890043503E+02 -0.44716758199E+02 -0.18411448723E+02  0.57382616667E+02  0.00000000000E+00 0.  1.
         11    1    1    2    0    0 -0.19885400485E+02  0.15869638145E+02 -0.72463573767E+02  0.76800026630E+02  0.00000000000E+00 0. -1.
</event>
<event>
 7    1  0.2530765E-009  0.1198984E+03  0.7561462E-02  0.1243265E+00
          2   -1    0    0  501    0  0.00000000000E+00  0.00000000000E+00  0.40584039187E+03  0.40584039187E+03  0.00000000000E+00 0. -1.
         -2   -1    0    0    0  501 -0.00000000000E+00 -0.00000000000E+00 -0.51676614071E+02  0.51676614071E+02  0.00000000000E+00 0.  1.
         25    2    1    2    0    0 -0.86736365718E+02 -0.20663229713E+02  0.13947483225E+03  0.20748247907E+03  0.12508230926E+03 0.  0.
          5    1    3    3  502    0  0.13771632419E+01 -0.28893079811E+02 -0.12326071657E+02  0.31719254122E+02  0.41800000000E+01 0.  1.
         -5    1    3    3    0  502 -0.88113528960E+02  0.82298500984E+01  0.15180090390E+03  0.17576322495E+03  0.41800000000E+01 0.  1.
        -11    1    1    2    0    0  0.62820053194E+02 -0.27210151138E+02  0.81139510798E+02  0.10616200648E+03  0.00000000000E+00 0.  1.
         11    1    1    2    0    0  0.23916312524E+02  0.47873380850E+02  0.13354943475E+03  0.14387252038E+03  0.00000000000E+00 0. -1.
</event>
<event>
 7    1  0.2530765E-009  0.9708187E+02  0.7561462E-02  0.1286555E+00
         -2   -1    0    0    0  501 -0.00000000000E+00  0.00000000000E+00  0.41299962266E+03  0.41299962266E+03  0.00000000000E+00 0.  1.
          2   -1    0    0  501    0  0.00000000000E+00 -0.00000000000E+00 -0.35762219127E+02  0.35762219127E+02  0.00000000000E+00 0. -1.
         25    2    1    2    0    0  0.32943817869E+02  0.80541140219E+01  0.28680340245E+03  0.31472758697E+03  0.12508836260E+03 0.  0.
          5    1    3    3  502    0 -0.42833145267E+02 -0.19854825995E+02  0.84895134348E+02  0.97229361227E+02  0.41800000000E+01 0.  1.
         -5    1    3    3    0  502  0.75776963136E+02  0.27908940017E+02  0.20190826810E+03  0.21749822575E+03  0.41800000000E+01 0.  1.
        -11    1    1    2    0    0  0.11998242319E+02  0.11751122083E+02  0.82613218629E+02  0.84302968994E+02  0.00000000000E+00 0.  1.
         11    1    1    2    0    0 -0.44942060188E+02 -0.19805236105E+02  0.78207824554E+01  0.49731285820E+02  0.00000000000E+00 0. -1.
</event>
<event>
 7    1  0.2530765E-009  0.1044349E+03  0.7561462E-02  0.1271237E+00
          1   -1    0    0  501    0  0.00000000000E+00  0.00000000000E+00  0.10597623514E+04  0.10597623514E+04  0.00000000000E+00 0. -1.
         -1   -1    0    0    0  501 -0.00000000000E+00 -0.00000000000E+00 -0.12733161316E+02  0.12733161316E+02  0.00000000000E+00 0.  1.
         25    2    1    2    0    0 -0.32220341318E+02 -0.47991167797E+02  0.72953066235E+03  0.74243066068E+03  0.12508795316E+03 0.  0.
          5    1    3    3  502    0  0.28198620537E+02  0.15464934178E+02  0.40364402380E+03  0.40494480702E+03  0.41800000000E+01 0.  1.
         -5    1    3    3    0  502 -0.60418961856E+02 -0.63456101975E+02  0.32588663856E+03  0.33748585366E+03  0.41800000000E+01 0.  1.
        -11    1    1    2    0    0  0.30368563078E+02 -0.90188155257E+01  0.86203340351E+02  0.91840103138E+02  0.00000000000E+00 0. -1.
         11    1    1    2    0    0  0.18517782404E+01  0.57009983323E+02  0.23129518740E+03  0.23822474891E+03  0.00000000000E+00 0.  1.
</event>
<event>
 7    1  0.2530765E-009  0.7762119E+02  0.7561462E-02  0.1335941E+00
          4   -1    0    0  501    0  0.00000000000E+00  0.00000000000E+00  0.32012653215E+03  0.32012653215E+03  0.00000000000E+00 0. -1.
         -4   -1    0    0    0  501 -0.00000000000E+00 -0.00000000000E+00 -0.39350459997E+02  0.39350459997E+02  0.00000000000E+00 0.  1.
         25    2    1    2    0    0 -0.24595710311E+02 -0.12226098705E+02  0.15491578179E+03  0.20100102869E+03  0.12509231643E+03 0.  0.
          5    1    3    3  502    0  0.13872742652E+02  0.12537748733E+02  0.15385980815E+03  0.15504825408E+03  0.41800000000E+01 0. -1.
         -5    1    3    3    0  502 -0.38468452963E+02 -0.24763847438E+02  0.10559736436E+01  0.45952774602E+02  0.41800000000E+01 0. -1.
        -11    1    1    2    0    0 -0.68390843499E+01 -0.33755673852E+02  0.22731542587E+02  0.41266713225E+02  0.00000000000E+00 0.  1.
         11    1    1    2    0    0  0.31434794661E+02  0.45981772557E+02  0.10312874778E+03  0.11720925024E+03  0.00000000000E+00 0. -1.
</event>
<event>
 7    1  0.2530765E-009  0.1390547E+03  0.7561462E-02  0.1214607E+00
         -1   -1    0    0    0  501 -0.00000000000E+00  0.00000000000E+00  0.13092595941E+03  0.13092595941E+03  0.00000000000E+00 0.  1.
          1   -1    0    0  501    0  0.00000000000E+00 -0.00000000000E+00 -0.17835468472E+03  0.17835468472E+03  0.00000000000E+00 0. -1.
         25    2    1    2    0    0 -0.17338217516E+02 -0.10178617477E+03 -0.58081004960E+02  0.17228678211E+03  0.12509313727E+03 0.  0.
          5    1    3    3  502    0  0.43381278512E+02 -0.45446567513E+00 -0.21161517737E+02  0.48450222882E+02  0.41800000000E+01 0. -1.
         -5    1    3    3    0  502 -0.60719496028E+02 -0.10133170909E+03 -0.36919487224E+02  0.12383655923E+03  0.41800000000E+01 0. -1.
        -11    1    1    2    0    0  0.49179133074E+00  0.99287874214E+02  0.36715211771E+02  0.10585995749E+03  0.00000000000E+00 0.  1.
         11    1    1    2    0    0  0.16846426185E+02  0.24983005516E+01 -0.26062932115E+02  0.31133904530E+02  0.00000000000E+00 0. -1.
</event>
<event>
 7    1  0.2530765E-009  0.9733480E+02  0.7561462E-02  0.1286002E+00
          2   -1    0    0  501    0  0.00000000000E+00  0.00000000000E+00  0.28689256834E+03  0.28689256834E+03  0.00000000000E+00 0. -1.
         -2   -1    0    0    0  501 -0.00000000000E+00 -0.00000000000E+00 -0.53205255164E+02  0.53205255164E+02  0.00000000000E+00 0.  1.
         25    2    1    2    0    0 -0.25899104322E+02  0.53309905393E+02  0.12569723676E+03  0.18697976664E+03  0.12509567613E+03 0.  0.
          5    1    3    3  502    0 -0.54612137733E+02  0.74126017147E+02  0.53843508823E+02  0.10674150012E+03  0.41800000000E+01 0.  1.
         -5    1    3    3    0  502  0.28713033411E+02 -0.20816111754E+02  0.71853727934E+02  0.80238266520E+02  0.41800000000E+01 0.  1.
        -11    1    1    2    0    0  0.28345320485E+02 -0.23324839230E+02 -0.42151889903E+01  0.36949602660E+02  0.00000000000E+00 0.  1.
         11    1    1    2    0    0 -0.24462161635E+01 -0.29985066164E+02  0.11220526541E+03  0.11616845420E+03  0.00000000000E+00 0. -1.
</event>
<event>
 7    1  0.2530765E-009  0.1322833E+03  0.7561462E-02  0.1224106E+00
         -1   -1    0    0    0  501 -0.00000000000E+00  0.00000000000E+00  0.37691452745E+03  0.37691452745E+03  0.00000000000E+00 0.  1.
          1   -1    0    0  501    0  0.00000000000E+00 -0.00000000000E+00 -0.74304708169E+02  0.74304708169E+02  0.00000000000E+00 0. -1.
         25    2    1    2    0    0  0.95448262901E+02 -0.77931821765E+02  0.20110250504E+03  0.26697166333E+03  0.12509161344E+03 0.  0.
          5    1    3    3  502    0  0.35229185659E+02 -0.70115518446E+02  0.18931153157E+03  0.20497221723E+03  0.41800000000E+01 0.  1.
         -5    1    3    3    0  502  0.60219077242E+02 -0.78163033187E+01  0.11790973466E+02  0.61999446100E+02  0.41800000000E+01 0.  1.
        -11    1    1    2    0    0 -0.35384678733E+02  0.15963144841E+02  0.88933016930E+02  0.97035967469E+02  0.00000000000E+00 0.  1.
         11    1    1    2    0    0 -0.60063584168E+02  0.61968676924E+02  0.12574297312E+02  0.87211604822E+02  0.00000000000E+00 0. -1.
</event>
<event>
 7    1  0.2771363E-009  0.9935724E+02  0.7561462E-02  0.1281653E+00
         -2   -1    0    0    0  501 -0.00000000000E+00  0.00000000000E+00  0.74607952720E+02  0.74607952720E+02  0.00000000000E+00 0.  1.
          2   -1    0    0  501    0  0.00000000000E+00 -0.00000000000E+00 -0.21088243719E+03  0.21088243719E+03  0.00000000000E+00 0. -1.
         25    2    1    2    0    0 -0.42448208064E+02 -0.18925632665E+02 -0.28520874195E+02  0.13645320283E+03  0.12508399722E+03 0.  0.
          5    1    3    3  502    0  0.14828057164E+01 -0.66663149348E+02 -0.25044974014E+02  0.71350524295E+02  0.41800000000E+01 0.  1.
         -5    1    3    3    0  502 -0.43931013781E+02  0.47737516683E+02 -0.34759001805E+01  0.65102678539E+02  0.41800000000E+01 0.  1.
        -11    1    1    2    0    0 -0.77223482508E+01  0.14626231364E+02 -0.95887483606E+02  0.97303498491E+02  0.00000000000E+00 0. -1.
         11    1    1    2    0    0  0.50170556315E+02  0.42994013010E+01 -0.11866126672E+02  0.51733688586E+02  0.00000000000E+00 0.  1.
</event>
<event>
 7    1  0.2530765E-009  0.1051388E+03  0.7561462E-02  0.1269846E+00
         -2   -1    0    0    0  501 -0.00000000000E+00  0.00000000000E+00  0.16001400841E+03  0.16001400841E+03  0.00000000000E+00 0.  1.
          2   -1    0    0  501    0  0.00000000000E+00 -0.00000000000E+00 -0.86010848609E+02  0.86010848609E+02  0.00000000000E+00 0. -1.
         25    2    1    2    0    0  0.68524762914E+01  0.23348987219E+02  0.75629853287E+02  0.14820228819E+03  0.12510760121E+03 0.  0.
          5    1    3    3  502    0  0.57334978743E+02  0.12668779722E+01  0.38694498189E+01  0.57631153113E+02  0.41800000000E+01 0. -1.
         -5    1    3    3    0  502 -0.50482502452E+02  0.22082109247E+02  0.71760403468E+02  0.90571135074E+02  0.41800000000E+01 0. -1.
        -11    1    1    2    0    0 -0.48712494739E+02 -0.26652480293E+02 -0.46642249068E+01  0.55722678000E+02  0.00000000000E+00 0. -1.
         11    1    1    2    0    0  0.41860018448E+02  0.33034930734E+01  0.30375314193E+01  0.42099890832E+02  0.00000000000E+00 0.  1.
</event>
<event>
 7    1  0.2530765E-009  0.1980707E+03  0.7561462E-02  0.1151377E+00
         -2   -1    0    0    0  501 -0.00000000000E+00  0.00000000000E+00  0.10342965697E+03  0.10342965697E+03  0.00000000000E+00 0.  1.
          2   -1    0    0  501    0  0.00000000000E+00 -0.00000000000E+00 -0.51306905663E+03  0.51306905663E+03  0.00000000000E+00 0. -1.
         25    2    1    2    0    0 -0.11836117336E+02  0.17349715765E+03 -0.74135339192E+02  0.22668468093E+03  0.12509411923E+03 0.  0.
          5    1    3    3  502    0  0.41682258156E+02  0.36452981327E+02 -0.55182197868E+02  0.78286511317E+02  0.41800000000E+01 0.  1.
         -5    1    3    3    0  502 -0.53518375492E+02  0.13704417632E+03 -0.18953141323E+02  0.14839816961E+03  0.41800000000E+01 0.  1.
        -11    1    1    2    0    0 -0.31532769771E+02 -0.12244959468E+03 -0.17506419872E+03  0.21595298673E+03  0.00000000000E+00 0. -1.
         11    1    1    2    0    0  0.43368887107E+02 -0.51047562964E+02 -0.16043986175E+03  0.17386104593E+03  0.00000000000E+00 0.  1.
</event>
<event>
 7    1  0.2530765E-009  0.2258751E+03  0.7561462E-02  0.1129577E+00
         -2   -1    0    0    0  501 -0.00000000000E+00  0.00000000000E+00  0.34926874052E+02  0.34926874052E+02  0.00000000000E+00 0. -1.
          2   -1    0    0  501    0  0.00000000000E+00 -0.00000000000E+00 -0.17645174616E+04  0.17645174616E+04  0.00000000000E+00 0.  1.
         25    2    1    2    0    0 -0.10915405485E+03 -0.19357952322E+03 -0.97483750327E+03  0.10076427577E+04  0.12509248516E+03 0.  0.
          5    1    3    3  502    0 -0.39133890653E+01 -0.28640964614E+02 -0.38669495966E+03  0.38779644621E+03  0.41800000000E+01 0. -1.
         -5    1    3    3    0  502 -0.10524066578E+03 -0.16493855861E+03 -0.58814254361E+03  0.61984631148E+03  0.41800000000E+01 0. -1.
        -11    1    1    2    0    0  0.97728357097E+02  0.13214808193E+03 -0.41521437271E+03  0.44656121937E+03  0.00000000000E+00 0. -1.
         11    1    1    2    0    0  0.11425697752E+02  0.61431441292E+02 -0.33953871158E+03  0.34524035860E+03  0.00000000000E+00 0.  1.
</event>
<event>
 7    1  0.2530765E-009  0.1195965E+03  0.7561462E-02  0.1243764E+00
         -1   -1    0    0    0  501 -0.00000000000E+00  0.00000000000E+00  0.41233885284E+02  0.41233885284E+02  0.00000000000E+00 0.  1.
          1   -1    0    0  501    0  0.00000000000E+00 -0.00000000000E+00 -0.39589234071E+03  0.39589234071E+03  0.00000000000E+00 0. -1.
         25    2    1    2    0    0  0.55339890039E+02 -0.35556283675E+02 -0.17476622648E+03  0.22475969394E+03  0.12508770269E+03 0.  0.
          5    1    3    3  502    0 -0.35354711492E+02 -0.11959448756E+02 -0.17029234985E+02  0.41236528509E+02  0.41800000000E+01 0.  1.
         -5    1    3    3    0  502  0.90694601531E+02 -0.23596834919E+02 -0.15773699149E+03  0.18352316543E+03  0.41800000000E+01 0.  1.
        -11    1    1    2    0    0 -0.74553310496E+02  0.90619204802E+01 -0.93144143910E+02  0.11965009843E+03  0.00000000000E+00 0.  1.
         11    1    1    2    0    0  0.19213420457E+02  0.26494363195E+02 -0.86748085043E+02  0.92716433632E+02  0.00000000000E+00 0. -1.
</event>
<event>
 7    1  0.2530765E-009  0.2535331E+03  0.7561462E-02  0.1111092E+00
         -2   -1    0    0    0  501 -0.00000000000E+00  0.00000000000E+00  0.69781206343E+03  0.69781206343E+03  0.00000000000E+00 0.  1.
          2   -1    0    0  501    0  0.00000000000E+00 -0.00000000000E+00 -0.95515164118E+02  0.95515164118E+02  0.00000000000E+00 0. -1.
         25    2    1    2    0    0 -0.22972309732E+03 -0.18955042100E+02  0.37186697284E+03  0.45504370208E+03  0.12509088795E+03 0.  0.
          5    1    3    3  502    0 -0.20372047476E+03  0.28075660523E+02  0.26605289503E+03  0.33629137649E+03  0.41800000000E+01 0. -1.
         -5    1    3    3    0  502 -0.26002622566E+02 -0.47030702623E+02  0.10581407781E+03  0.11875232559E+03  0.41800000000E+01 0. -1.
        -11    1    1    2    0    0  0.31745158109E+02 -0.29844852531E+02  0.35641268519E+02  0.56291831624E+02  0.00000000000E+00 0.  1.
         11    1    1    2    0    0  0.19797793921E+03  0.48799894631E+02  0.19478865795E+03  0.28199169385E+03  0.00000000000E+00 0. -1.
</event>
<event>
 7    1  0.2530765E-009  0.1093937E+03  0.7561462E-02  0.1261697E+00
         -2   -1    0    0    0  501 -0.00000000000E+00  0.00000000000E+00  0.69509225717E+02  0.69509225717E+02  0.00000000000E+00 0.  1.
          2   -1    0    0  501    0  0.00000000000E+00 -0.00000000000E+00 -0.20983460607E+03  0.20983460607E+03  0.00000000000E+00 0. -1.
         25    2    1    2    0    0  0.11422462804E+02 -0.25345766079E+02 -0.31450761891E+02  0.13194665787E+03  0.12509152483E+03 0.  0.
          5    1    3    3  502    0  0.55496853457E+02 -0.51558456618E+02 -0.26049703091E+02  0.80213681025E+02  0.41800000000E+01 0.  1.
         -5    1    3    3    0  502 -0.44074390653E+02  0.26212690538E+02 -0.54010587999E+01  0.51732976841E+02  0.41800000000E+01 0.  1.
        -11    1    1    2    0    0 -0.42485314180E+02  0.38877582887E+02 -0.38447712846E+02  0.69243736144E+02  0.00000000000E+00 0. -1.
         11    1    1    2    0    0  0.31062851375E+02 -0.13531816808E+02 -0.70426905614E+02  0.78153437775E+02  0.00000000000E+00 0.  1.
</event>
<event>
 7    1  0.2530765E-009  0.9720251E+02  0.7561462E-02  0.1286291E+00
         -1   -1    0    0    0  501 -0.00000000000E+00  0.00000000000E+00  0.45206378170E+02  0.45206378170E+02  0.00000000000E+00 0.  1.
          1   -1    0    0  501    0  0.00000000000E+00 -0.00000000000E+00 -0.40567601671E+03  0.40567601671E+03  0.00000000000E+00 0. -1.
         25    2    1    2    0    0  0.14391782003E+02 -0.53328254980E+02 -0.96781489073E+02  0.16752555448E+03  0.12508848312E+03 0.  0.
          5    1    3    3  502    0  0.39454860979E+02 -0.53271956035E+02  0.10668255099E+01  0.66431904017E+02  0.41800000000E+01 0.  1.
         -5    1    3    3    0  502 -0.25063078976E+02 -0.56298944707E-01 -0.97848314583E+02  0.10109365046E+03  0.41800000000E+01 0.  1.
        -11    1    1    2    0    0 -0.32782011234E+02  0.70287279564E+02 -0.17969021382E+03  0.19571288888E+03  0.00000000000E+00 0. -1.
         11    1    1    2    0    0  0.18390229231E+02 -0.16959024584E+02 -0.83997935643E+02  0.87643951521E+02  0.00000000000E+00 0.  1.
</event>
<event>
 7    1  0.2530765E-009  0.1409313E+03  0.7561462E-02  0.1212081E+00
          2   -1    0    0  501    0  0.00000000000E+00  0.00000000000E+00  0.47221808535E+02  0.47221808535E+02  0.00000000000E+00 0. -1.
         -2   -1    0    0    0  501 -0.00000000000E+00 -0.00000000000E+00 -0.55587927941E+03  0.55587927941E+03  0.00000000000E+00 0.  1.
         25    2    1    2    0    0  0.11137910977E+03  0.27627526180E+02 -0.20883306861E+03  0.26912363838E+03  0.12509075062E+03 0.  0.
          5    1    3    3  502    0  0.12173022772E+03 -0.14131242191E+02 -0.17750614526E+03  0.21574022424E+03  0.41800000000E+01 0. -1.
         -5    1    3    3    0  502 -0.10351117955E+02  0.41758768371E+02 -0.31326923349E+02  0.53383414141E+02  0.41800000000E+01 0. -1.
        -11    1    1    2    0    0 -0.73723779978E+02 -0.26514486301E+02 -0.28128240114E+03  0.29198973083E+03  0.00000000000E+00 0.  1.
         11    1    1    2    0    0 -0.37655329787E+02 -0.11130398799E+01 -0.18542001114E+02  0.41987718733E+02  0.00000000000E+00 0. -1.
</event>
<event>
 7    1  0.2530765E-009  0.1660460E+03  0.7561462E-02  0.1182035E+00
         -2   -1    0    0    0  501 -0.00000000000E+00  0.00000000000E+00  0.50376655395E+02  0.50376655395E+02  0.00000000000E+00 0.  1.
          2   -1    0    0  501    0  0.00000000000E+00 -0.00000000000E+00 -0.76709465037E+03  0.76709465037E+03  0.00000000000E+00 0. -1.
         25    2    1    2    0    0 -0.60347552509E+02  0.13898622030E+03 -0.48591138096E+03  0.52413391382E+03  0.12508993939E+03 0.  0.
          5    1    3    3  502    0 -0.11748807629E+02 -0.11725415762E+02 -0.50410433249E+01  0.17843888962E+02  0.41800000000E+01 0.  1.
         -5    1    3    3    0  502 -0.48598744879E+02  0.15071163606E+03 -0.48087033764E+03  0.50629002485E+03  0.41800000000E+01 0.  1.
        -11    1    1    2    0    0  0.16387736406E+02 -0.86794986657E+02 -0.19966367732E+03  0.21832890705E+03  0.00000000000E+00 0. -1.
         11    1    1    2    0    0  0.43959816103E+02 -0.52191233642E+02 -0.31142936696E+02  0.75008484900E+02  0.00000000000E+00 0.  1.
</event>
<event>
 7    1  0.2530765E-009  0.7740799E+02  0.7561462E-02  0.1336572E+00
          2   -1    0    0  501    0  0.00000000000E+00  0.00000000000E+00  0.60642603686E+02  0.60642603686E+02  0.00000000000E+00 0. -1.
         -2   -1    0    0    0  501 -0.00000000000E+00 -0.00000000000E+00 -0.20220045482E+03  0.20220045482E+03  0.00000000000E+00 0.  1.
         25    2    1    2    0    0  0.26186173240E+01  0.13940060468E+01 -0.54304581041E+02  0.13640067117E+03  0.12508938870E+03 0.  0.
          5    1    3    3  502    0  0.36848301924E+02  0.17225412421E+02  0.25391788538E+02  0.48132395670E+02  0.41800000000E+01 0. -1.
         -5    1    3    3    0  502 -0.34229684600E+02 -0.15831406375E+02 -0.79696369580E+02  0.88268275500E+02  0.41800000000E+01 0. -1.
        -11    1    1    2    0    0  0.29833771735E+02  0.21060309865E+02 -0.72437675003E+01  0.37229863754E+02  0.00000000000E+00 0. -1.
         11    1    1    2    0    0 -0.32452389059E+02 -0.22454315912E+02 -0.80009502592E+02  0.89212523581E+02  0.00000000000E+00 0.  1.
</event>
<event>
 7    1  0.2530765E-009  0.1617222E+03  0.7561462E-02  0.1186766E+00
          1   -1    0    0  501    0  0.00000000000E+00  0.00000000000E+00  0.81868012640E+03  0.81868012640E+03  0.00000000000E+00 0. -1.
         -1   -1    0    0    0  501 -0.00000000000E+00 -0.00000000000E+00 -0.34625689047E+02  0.34625689047E+02  0.00000000000E+00 0.  1.
         25    2    1    2    0    0 -0.61018774770E+02  0.10717076002E+03  0.49788959507E+03  0.52796786887E+03  0.12508860461E+03 0.  0.
          5    1    3    3  502    0 -0.78280044452E+02  0.12567165053E+02  0.22785973509E+03  0.24129490313E+03  0.41800000000E+01 0. -1.
         -5    1    3    3    0  502  0.17261269683E+02  0.94603594962E+02  0.27002985997E+03  0.28667296574E+03  0.41800000000E+01 0. -1.
        -11    1    1    2    0    0  0.82261521392E+01 -0.92688129656E+02  0.22368828426E+03  0.24227093815E+03  0.00000000000E+00 0. -1.
         11    1    1    2    0    0  0.52792622631E+02 -0.14482630359E+02  0.62476558030E+02  0.83067008430E+02  0.00000000000E+00 0.  1.
</event>
<event>
 7    1  0.2530765E-009  0.8244124E+02  0.7561462E-02  0.1322263E+00
          1   -1    0    0  501    0  0.00000000000E+00  0.00000000000E+00  0.88291905088E+02  0.88291905088E+02  0.00000000000E+00 0. -1.
         -1   -1    0    0    0  501 -0.00000000000E+00 -0.00000000000E+00 -0.20547667037E+03  0.20547667037E+03  0.00000000000E+00 0.  1.
         25    2    1    2    0    0  0.43322435909E+02 -0.35505921557E+02 -0.12217689429E+03  0.18360897476E+03  0.12509020024E+03 0.  0.
          5    1    3    3  502    0  0.65876028845E+02 -0.32972450143E+02 -0.16719484652E+02  0.75656111530E+02  0.41800000000E+01 0. -1.
         -5    1    3    3    0  502 -0.22553592936E+02 -0.25334714140E+01 -0.10545740964E+03  0.10795286323E+03  0.41800000000E+01 0. -1.
        -11    1    1    2    0    0 -0.11342888369E+02 -0.81043834324E+01  0.42248652822E+02  0.44489221309E+02  0.00000000000E+00 0. -1.
         11    1    1    2    0    0 -0.31979547540E+02  0.43610304990E+02 -0.37256523809E+02  0.65670379384E+02  0.00000000000E+00 0.  1.
</event>
<event>
 7    1  0.2530765E-009  0.1208071E+03  0.7561462E-02  0.1241771E+00
         -2   -1    0    0    0  501 -0.00000000000E+00  0.00000000000E+00  0.53560816339E+02  0.53560816339E+02  0.00000000000E+00 0.  1.
          2   -1    0    0  501    0  0.00000000000E+00 -0.00000000000E+00 -0.40715514025E+03  0.40715514025E+03  0.00000000000E+00 0. -1.
         25    2    1    2    0    0 -0.43520051505E+02 -0.85412305838E+02 -0.14249915151E+03  0.21246589755E+03  0.12508594074E+03 0.  0.
          5    1    3    3  502    0 -0.74929932666E+02 -0.85877464734E+02 -0.14014799304E+03  0.18068858877E+03  0.41800000000E+01 0. -1.
         -5    1    3    3    0  502  0.31409881161E+02  0.46515889530E+00 -0.23511584691E+01  0.31777308783E+02  0.41800000000E+01 0. -1.
        -11    1    1    2    0    0  0.34643312567E+02  0.66417085425E+02 -0.21432226823E+03  0.22703617113E+03  0.00000000000E+00 0. -1.
         11    1    1    2    0    0  0.88767389383E+01  0.18995220414E+02  0.32270958255E+01  0.21213887909E+02  0.00000000000E+00 0.  1.
</event>
<event>
 7    1  0.2530765E-009  0.1396829E+03  0.7561462E-02  0.1213756E+00
          2   -1    0    0  501    0  0.00000000000E+00  0.00000000000E+00  0.61227615765E+03  0.61227615765E+03  0.00000000000E+00 0. -1.
         -2   -1    0    0    0  501 -0.00000000000E+00 -0.00000000000E+00 -0.46308952183E+02  0.46308952183E+02  0.00000000000E+00 0.  1.
         25    2    1    2    0    0  0.38815371029E+02  0.12282723642E+03  0.30390847829E+03  0.35298853479E+03  0.12508948588E+03 0.  0.
          5    1    3    3  502    0  0.53792240429E+02  0.57318070859E+02  0.26226026552E+03  0.27381907466E+03  0.41800000000E+01 0. -1.
         -5    1    3    3    0  502 -0.14976869400E+02  0.65509165561E+02  0.41648212772E+02  0.79169460126E+02  0.41800000000E+01 0. -1.
        -11    1    1    2    0    0 -0.13722377762E+02 -0.94437474386E+02  0.96345234522E+02  0.13560657961E+03  0.00000000000E+00 0.  1.
         11    1    1    2    0    0 -0.25092993267E+02 -0.28389762034E+02  0.16571349266E+03  0.16998999544E+03  0.00000000000E+00 0. -1.
</event>
<event>
 7    1  0.2530765E-009  0.3366444E+03  0.7561462E-02  0.1068234E+00
         -1   -1    0    0    0  501 -0.00000000000E+00  0.00000000000E+00  0.43831514425E+03  0.43831514425E+03  0.00000000000E+00 0.  1.
          1   -1    0    0  501    0  0.00000000000E+00 -0.00000000000E+00 -0.39563064295E+03  0.39563064295E+03  0.00000000000E+00 0. -1.
         25    2    1    2    0    0  0.19821436761E+03  0.25589353877E+03  0.26072286511E+03  0.43404378519E+03  0.12508859404E+03 0.  0.
          5    1    3    3  502    0  0.18940020221E+03  0.16000200325E+03  0.16277822618E+03  0.29662653448E+03  0.41800000000E+01 0. -1.
         -5    1    3    3    0  502  0.88141653975E+01  0.95891535519E+02  0.97944638937E+02  0.13741725071E+03  0.41800000000E+01 0. -1.
        -11    1    1    2    0    0 -0.36559639060E+02 -0.90738771477E+02 -0.10190283619E+03  0.14125976030E+03  0.00000000000E+00 0.  1.
         11    1    1    2    0    0 -0.16165472855E+03 -0.16515476729E+03 -0.11613552762E+03  0.25864224171E+03  0.00000000000E+00 0. -1.
</event>
<event>
 7    1  0.2530765E-009  0.2483970E+03  0.7561462E-02  0.1114322E+00
         -1   -1    0    0    0  501 -0.00000000000E+00  0.00000000000E+00  0.10304809656E+03  0.10304809656E+03  0.00000000000E+00 0.  1.
          1   -1    0    0  501    0  0.00000000000E+00 -0.00000000000E+00 -0.68360305637E+03  0.68360305637E+03  0.00000000000E+00 0. -1.
         25    2    1    2    0    0 -0.20142096245E+03  0.11974392018E+03 -0.38515852474E+03  0.46787115530E+03  0.12508924111E+03 0.  0.
          5    1    3    3  502    0 -0.53962835438E+02  0.99722256632E+02 -0.13084481907E+03  0.17318878472E+03  0.41800000000E+01 0.  1.
         -5    1    3    3    0  502 -0.14745812701E+03  0.20021663543E+02 -0.25431370568E+03  0.29468237058E+03  0.41800000000E+01 0.  1.
        -11    1    1    2    0    0  0.15725322095E+03 -0.97247149034E+02 -0.97442738106E+02  0.20899921221E+03  0.00000000000E+00 0.  1.
         11    1    1    2    0    0  0.44167741505E+02 -0.22496771141E+02 -0.97953696962E+02  0.10978078543E+03  0.00000000000E+00 0. -1.
</event>
<event>
 7    1  0.2530765E-009  0.6511933E+02  0.7561462E-02  0.1377523E+00
          3   -1    0    0  501    0  0.00000000000E+00  0.00000000000E+00  0.92196751750E+02  0.92196751750E+02  0.00000000000E+00 0. -1.
         -3   -1    0    0    0  501 -0.00000000000E+00 -0.00000000000E+00 -0.15111660277E+03  0.15111660277E+03  0.00000000000E+00 0.  1.
         25    2    1    2    0    0  0.14272095768E+02  0.34932615421E+02 -0.64975525977E+02  0.14592219007E+03  0.12508991263E+03 0.  0.
          5    1    3    3  502    0  0.34472295697E+02  0.53724204583E+02 -0.88655384461E+02  0.10932464920E+03  0.41800000000E+01 0. -1.
         -5    1    3    3    0  502 -0.20200199929E+02 -0.18791589161E+02  0.23679858483E+02  0.36597540876E+02  0.41800000000E+01 0. -1.
        -11    1    1    2    0    0 -0.54687878709E+01 -0.22344225032E+02  0.47725492935E+02  0.52980135041E+02  0.00000000000E+00 0. -1.
         11    1    1    2    0    0 -0.88033078974E+01 -0.12588390390E+02 -0.41669817973E+02  0.44411029400E+02  0.00000000000E+00 0.  1.
</event>
<event>
 7    1  0.2530765E-009  0.1351004E+03  0.7561462E-02  0.1220078E+00
         -1   -1    0    0    0  501 -0.00000000000E+00  0.00000000000E+00  0.48763760494E+02  0.48763760494E+02  0.00000000000E+00 0. -1.
          1   -1    0    0  501    0  0.00000000000E+00 -0.00000000000E+00 -0.38223641250E+03  0.38223641250E+03  0.00000000000E+00 0.  1.
         25    2    1    2    0    0 -0.54509552366E+02 -0.61758057566E+02 -0.19795397095E+03  0.24823297263E+03  0.12509390518E+03 0.  0.
          5    1    3    3  502    0 -0.17936302928E+01 -0.88289046019E+02 -0.13884746980E+03  0.16460335667E+03  0.41800000000E+01 0. -1.
         -5    1    3    3    0  502 -0.52715922073E+02  0.26530988453E+02 -0.59106501143E+02  0.83629615960E+02  0.41800000000E+01 0. -1.
        -11    1    1    2    0    0 -0.21899488213E+02 -0.34628341866E+01 -0.24732769088E+02  0.33215789489E+02  0.00000000000E+00 0.  1.
         11    1    1    2    0    0  0.76409040578E+02  0.65220891753E+02 -0.11078591197E+03  0.14955141087E+03  0.00000000000E+00 0. -1.
</event>
<event>
 7    1  0.2530765E-009  0.1506784E+03  0.7561462E-02  0.1199642E+00
         -3   -1    0    0    0  501 -0.00000000000E+00  0.00000000000E+00  0.17853881602E+03  0.17853881602E+03  0.00000000000E+00 0.  1.
          3   -1    0    0  501    0  0.00000000000E+00 -0.00000000000E+00 -0.13861183731E+03  0.13861183731E+03  0.00000000000E+00 0. -1.
         25    2    1    2    0    0  0.66144641278E+02  0.92616498125E+02  0.29067803140E+02  0.17159598472E+03  0.12508923014E+03 0.  0.
          5    1    3    3  502    0 -0.34311738811E+02  0.46194505790E+02  0.17283156538E+02  0.60227964313E+02  0.41800000000E+01 0.  1.
         -5    1    3    3    0  502  0.10045638009E+03  0.46421992336E+02  0.11784646602E+02  0.11136802040E+03  0.41800000000E+01 0.  1.
        -11    1    1    2    0    0 -0.41929610368E+02 -0.52477711505E+01 -0.23794200615E+02  0.48495312254E+02  0.00000000000E+00 0. -1.
         11    1    1    2    0    0 -0.24215030910E+02 -0.87368726975E+02  0.34653376188E+02  0.97059356357E+02  0.00000000000E+00 0.  1.
</event>
<event>
 7    1  0.2530765E-009  0.8746604E+02  0.7561462E-02  0.1309107E+00
         -1   -1    0    0    0  501 -0.00000000000E+00  0.00000000000E+00  0.16197225562E+03  0.16197225562E+03  0.00000000000E+00 0.  1.
          1   -1    0    0  501    0  0.00000000000E+00 -0.00000000000E+00 -0.85074046677E+02  0.85074046677E+02  0.00000000000E+00 0. -1.
         25    2    1    2    0    0 -0.27722695138E+02 -0.59949529573E+01  0.75918118454E+02  0.14904787969E+03  0.12508885819E+03 0.  0.
          5    1    3    3  502    0 -0.59592465815E+01 -0.42609861097E+02 -0.17232489444E+02  0.46535405607E+02  0.41800000000E+01 0.  1.
         -5    1    3    3    0  502 -0.21763448557E+02  0.36614908140E+02  0.93150607898E+02  0.10251247408E+03  0.41800000000E+01 0.  1.
        -11    1    1    2    0    0  0.40279877378E+02 -0.30362048621E+02  0.20997355423E+02  0.54637088620E+02  0.00000000000E+00 0.  1.
         11    1    1    2    0    0 -0.12557182240E+02  0.36357001578E+02 -0.20017264934E+02  0.43361333986E+02  0.00000000000E+00 0. -1.
</event>
<event>
 7    1  0.2530765E-009  0.9233482E+02  0.7561462E-02  0.1297294E+00
          2   -1    0    0  501    0  0.00000000000E+00  0.00000000000E+00  0.16108339181E+03  0.16108339181E+03  0.00000000000E+00 0. -1.
         -2   -1    0    0    0  501 -0.00000000000E+00 -0.00000000000E+00 -0.20897467451E+03  0.20897467451E+03  0.00000000000E+00 0.  1.
         25    2    1    2    0    0 -0.28361762512E+02 -0.61416249485E+02 -0.15742290968E+03  0.21214581090E+03  0.12509007681E+03 0.  0.
          5    1    3    3  502    0 -0.95898042122E+01 -0.63336230042E+02 -0.11829542028E+02  0.65275208505E+02  0.41800000000E+01 0. -1.
         -5    1    3    3    0  502 -0.18771958300E+02  0.19199805565E+01 -0.14559336766E+03  0.14687060240E+03  0.41800000000E+01 0. -1.
        -11    1    1    2    0    0  0.26754264212E+02 -0.10845074701E+02  0.69569302392E+02  0.75321272785E+02  0.00000000000E+00 0. -1.
         11    1    1    2    0    0  0.16074983004E+01  0.72261324186E+02  0.39962324592E+02  0.82590982624E+02  0.00000000000E+00 0.  1.
</event>
<event>
 7    1  0.2530765E-009  0.1223667E+03  0.7561462E-02  0.1239243E+00
         -1   -1    0    0    0  501 -0.00000000000E+00  0.00000000000E+00  0.35307843921E+02  0.35307843921E+02  0.00000000000E+00 0.  1.
          1   -1    0    0  501    0  0.00000000000E+00 -0.00000000000E+00 -0.44450400204E+03  0.44450400204E+03  0.00000000000E+00 0. -1.
         25    2    1    2    0    0 -0.90233196320E+01  0.61074229764E+02 -0.21079707339E+03  0.25277431835E+03  0.12509183838E+03 0.  0.
          5    1    3    3  502    0 -0.54430745008E+02  0.70665565717E+02 -0.10965425039E+03  0.14141377305E+03  0.41800000000E+01 0.  1.
         -5    1    3    3    0  502  0.45407425375E+02 -0.95913359535E+01 -0.10114282299E+03  0.11136054529E+03  0.41800000000E+01 0.  1.
        -11    1    1    2    0    0  0.40607217669E+02 -0.59631137661E+00 -0.93024133592E+02  0.10150266570E+03  0.00000000000E+00 0.  1.
         11    1    1    2    0    0 -0.31583898037E+02 -0.60477918387E+02 -0.10537495114E+03  0.12553486191E+03  0.00000000000E+00 0. -1.
</event>
<event>
 7    1  0.2530765E-009  0.5896693E+02  0.7561462E-02  0.1402219E+00
          1   -1    0    0  501    0  0.00000000000E+00  0.00000000000E+00  0.64940386393E+02  0.64940386393E+02  0.00000000000E+00 0. -1.
         -1   -1    0    0    0  501 -0.00000000000E+00 -0.00000000000E+00 -0.19542470497E+03  0.19542470497E+03  0.00000000000E+00 0.  1.
         25    2    1    2    0    0  0.80118473577E+01  0.70818296134E+01 -0.10271407108E+03  0.16221167405E+03  0.12509238502E+03 0.  0.
          5    1    3    3  502    0 -0.96630265554E+01  0.19518794368E+02 -0.12729655644E+03  0.12921394312E+03  0.41800000000E+01 0.  1.
         -5    1    3    3    0  502  0.17674873913E+02 -0.12436964755E+02  0.24582485352E+02  0.32997730926E+02  0.41800000000E+01 0.  1.
        -11    1    1    2    0    0 -0.33101568966E+02  0.18493098895E+02 -0.44626093293E+02  0.58559344065E+02  0.00000000000E+00 0.  1.
         11    1    1    2    0    0  0.25089721608E+02 -0.25574928509E+02  0.16855845805E+02  0.39594073249E+02  0.00000000000E+00 0. -1.
</event>
<event>
 7    1  0.2530765E-009  0.1063924E+03  0.7561462E-02  0.1267400E+00
          1   -1    0    0  501    0  0.00000000000E+00  0.00000000000E+00  0.26694746531E+03  0.26694746531E+03  0.00000000000E+00 0. -1.
         -1   -1    0    0    0  501 -0.00000000000E+00 -0.00000000000E+00 -0.58754977699E+02  0.58754977699E+02  0.00000000000E+00 0.  1.
         25    2    1    2    0    0  0.59830262439E+02  0.12035755880E+02  0.10898269332E+03  0.17677401848E+03  0.12508919395E+03 0.  0.
          5    1    3    3  502    0  0.30860523807E+02 -0.36956972363E+02 -0.57120937231E+01  0.48665081430E+02  0.41800000000E+01 0.  1.
         -5    1    3    3    0  502  0.28969738632E+02  0.48992728243E+02  0.11469478705E+03  0.12810893705E+03  0.41800000000E+01 0.  1.
        -11    1    1    2    0    0 -0.14187892996E+02  0.37460692859E+02  0.19386845588E+02  0.44502242629E+02  0.00000000000E+00 0.  1.
         11    1    1    2    0    0 -0.45642369442E+02 -0.49496448740E+02  0.79822948695E+02  0.10442618189E+03  0.00000000000E+00 0. -1.
</event>
<event>
 7    1  0.2530765E-009  0.1330727E+03  0.7561462E-02  0.1222966E+00
          1   -1    0    0  501    0  0.00000000000E+00  0.00000000000E+00  0.39327206071E+03  0.39327206071E+03  0.00000000000E+00 0. -1.
         -1   -1    0    0    0  501 -0.00000000000E+00 -0.00000000000E+00 -0.64948176982E+02  0.64948176982E+02  0.00000000000E+00 0.  1.
         25    2    1    2    0    0  0.86274236373E+02 -0.62072336293E+02  0.24361297168E+03  0.29375209260E+03  0.12508714220E+03 0.  0.
          5    1    3    3  502    0  0.16593954988E+02  0.19032521064E+02  0.14816881463E+03  0.15036311459E+03  0.41800000000E+01 0.  1.
         -5    1    3    3    0  502  0.69680281385E+02 -0.81104857356E+02  0.95444157050E+02  0.14338897801E+03  0.41800000000E+01 0.  1.
        -11    1    1    2    0    0  0.10351414861E+02  0.29996295641E+02  0.45272392637E+02  0.55285794530E+02  0.00000000000E+00 0. -1.
         11    1    1    2    0    0 -0.96625651234E+02  0.32076040651E+02  0.39438519411E+02  0.10918235056E+03  0.00000000000E+00 0.  1.
</event>
<event>
 7    1  0.2530765E-009  0.8145757E+02  0.7561462E-02  0.1324965E+00
         -2   -1    0    0    0  501 -0.00000000000E+00  0.00000000000E+00  0.25406469563E+02  0.25406469563E+02  0.00000000000E+00 0.  1.
          2   -1    0    0  501    0  0.00000000000E+00 -0.00000000000E+00 -0.83876572385E+03  0.83876572385E+03  0.00000000000E+00 0. -1.
         25    2    1    2    0    0 -0.44623759712E+02 -0.54685705782E+02 -0.64721614061E+03  0.66296160706E+03  0.12509018112E+03 0.  0.
          5    1    3    3  502    0 -0.17401669152E+00 -0.37852374309E+02 -0.57588915967E+03  0.57714697361E+03  0.41800000000E+01 0. -1.
         -5    1    3    3    0  502 -0.44449743020E+02 -0.16833331473E+02 -0.71326980942E+02  0.85814633445E+02  0.41800000000E+01 0. -1.
        -11    1    1    2    0    0  0.17056471637E+02  0.44623455101E+02 -0.19398589078E+02  0.51560461868E+02  0.00000000000E+00 0.  1.
         11    1    1    2    0    0  0.27567288075E+02  0.10062250681E+02 -0.14674452459E+03  0.14965012449E+03  0.00000000000E+00 0. -1.
</event>
<event>
 7    1  0.3842760E-009  0.1429580E+03  0.7561462E-02  0.1209403E+00
         -1   -1    0    0    0  501 -0.00000000000E+00  0.00000000000E+00  0.17978230980E+03  0.17978230980E+03  0.00000000000E+00 0.  1.
          1   -1    0    0  501    0  0.00000000000E+00 -0.00000000000E+00 -0.12402288448E+03  0.12402288448E+03  0.00000000000E+00 0. -1.
         25    2    1    2    0    0 -0.18809387547E+02 -0.97906439632E+02  0.79364635881E+01  0.16015691263E+03  0.12509110771E+03 0.  0.
          5    1    3    3  502    0 -0.33104431454E+02 -0.12028305689E+03 -0.13802824922E+02  0.12558625535E+03  0.41800000000E+01 0.  1.
         -5    1    3    3    0  502  0.14295043907E+02  0.22376617258E+02  0.21739288510E+02  0.34570657285E+02  0.41800000000E+01 0.  1.
        -11    1    1    2    0    0 -0.35622651827E+02  0.51851586563E+02  0.32134562435E+02  0.70641280107E+02  0.00000000000E+00 0.  1.
         11    1    1    2    0    0  0.54432039374E+02  0.46054853069E+02  0.15688399296E+02  0.73007001542E+02  0.00000000000E+00 0. -1.
</event>
<event>
 7    1  0.2530765E-009  0.1977907E+03  0.7561462E-02  0.1151616E+00
         -3   -1    0    0    0  501 -0.00000000000E+00  0.00000000000E+00  0.11197178931E+03  0.11197178931E+03  0.00000000000E+00 0.  1.
          3   -1    0    0  501    0  0.00000000000E+00 -0.00000000000E+00 -0.49314631535E+03  0.49314631535E+03  0.00000000000E+00 0. -1.
         25    2    1    2    0    0  0.18601673336E+03  0.10891120219E+02 -0.31332380217E+03  0.38540866156E+03  0.12508872776E+03 0.  0.
          5    1    3    3  502    0  0.13226566998E+03 -0.18749039298E+02 -0.11036893110E+03  0.17333351460E+03  0.41800000000E+01 0.  1.
         -5    1    3    3    0  502  0.53751063378E+02  0.29640159517E+02 -0.20295487107E+03  0.21207514697E+03  0.41800000000E+01 0.  1.
        -11    1    1    2    0    0 -0.99304888938E+02  0.31098917694E+02 -0.40179418024E+01  0.10413811745E+03  0.00000000000E+00 0.  1.
         11    1    1    2    0    0 -0.86711844420E+02 -0.41990037913E+02 -0.63832782073E+02  0.11557132566E+03  0.00000000000E+00 0. -1.
</event>
<event>
 7    1  0.2530765E-009  0.1126940E+03  0.7561462E-02  0.1255661E+00
         -4   -1    0    0    0  501 -0.00000000000E+00  0.00000000000E+00  0.41603984847E+02  0.41603984847E+02  0.00000000000E+00 0.  1.
          4   -1    0    0  501    0  0.00000000000E+00 -0.00000000000E+00 -0.44987574646E+03  0.44987574646E+03  0.00000000000E+00 0. -1.
         25    2    1    2    0    0 -0.38933974698E+02 -0.43374298031E+02 -0.12799913910E+03  0.18822168713E+03  0.12508572973E+03 0.  0.
          5    1    3    3  502    0 -0.24884664140E+02 -0.80075511701E+02 -0.42655036345E+02  0.94171432023E+02  0.41800000000E+01 0. -1.
         -5    1    3    3    0  502 -0.14049310558E+02  0.36701213670E+02 -0.85344102751E+02  0.94050255111E+02  0.41800000000E+01 0. -1.
        -11    1    1    2    0    0 -0.22950475898E+02 -0.48474288062E+01 -0.18185647809E+02  0.29680628298E+02  0.00000000000E+00 0.  1.
         11    1    1    2    0    0  0.61884450596E+02  0.48221726837E+02 -0.26208697471E+03  0.27357741587E+03  0.00000000000E+00 0. -1.
</event>
<event>
 7    1  0.2530765E-009  0.9638696E+02  0.7561462E-02  0.1288082E+00
          1   -1    0    0  501    0  0.00000000000E+00  0.00000000000E+00  0.28310639309E+02  0.28310639309E+02  0.00000000000E+00 0. -1.
         -1   -1    0    0    0  501 -0.00000000000E+00 -0.00000000000E+00 -0.56675973568E+03  0.56675973568E+03  0.00000000000E+00 0.  1.
         25    2    1    2    0    0 -0.56722562550E+02  0.31096108171E+02 -0.33946155747E+03  0.36751430039E+03  0.12509274540E+03 0.  0.
          5    1    3    3  502    0 -0.87098564814E+02  0.21565134802E+02 -0.31382105599E+03  0.32642356321E+03  0.41800000000E+01 0. -1.
         -5    1    3    3    0  502  0.30376002264E+02  0.95309733696E+01 -0.25640501473E+02  0.41090737188E+02  0.41800000000E+01 0. -1.
        -11    1    1    2    0    0  0.21306940605E+01 -0.13225816289E+02  0.59953718241E+01  0.14676735230E+02  0.00000000000E+00 0. -1.
         11    1    1    2    0    0  0.54591868490E+02 -0.17870291882E+02 -0.20498291073E+03  0.21287933936E+03  0.00000000000E+00 0.  1.
</event>
<event>
 7    1  0.2866352E-009  0.1169315E+03  0.7561462E-02  0.1248247E+00
         -1   -1    0    0    0  501 -0.00000000000E+00  0.00000000000E+00  0.76225331249E+02  0.76225331249E+02  0.00000000000E+00 0.  1.
          1   -1    0    0  501    0  0.00000000000E+00 -0.00000000000E+00 -0.27122114291E+03  0.27122114291E+03  0.00000000000E+00 0. -1.
         25    2    1    2    0    0  0.83363989371E+02  0.23530734094E+02 -0.15176019413E+03  0.21489837895E+03  0.12508759563E+03 0.  0.
          5    1    3    3  502    0  0.90055242614E+02 -0.27634404157E+02 -0.67343329665E+02  0.11587149548E+03  0.41800000000E+01 0. -1.
         -5    1    3    3    0  502 -0.66912532434E+01  0.51165138251E+02 -0.84416864464E+02  0.99026883462E+02  0.41800000000E+01 0. -1.
        -11    1    1    2    0    0 -0.50353122203E+02 -0.68570478298E+01  0.23701925651E+02  0.56073499090E+02  0.00000000000E+00 0.  1.
         11    1    1    2    0    0 -0.33010867168E+02 -0.16673686264E+02 -0.66937543180E+02  0.76474596120E+02  0.00000000000E+00 0. -1.
</event>
<event>
 7    1  0.2530765E-009  0.1350531E+03  0.7561462E-02  0.1220145E+00
          1   -1    0    0  501    0  0.00000000000E+00  0.00000000000E+00  0.30593519240E+03  0.30593519240E+03  0.00000000000E+00 0. -1.
         -1   -1    0    0    0  501 -0.00000000000E+00 -0.00000000000E+00 -0.25318835844E+03  0.25318835844E+03  0.00000000000E+00 0.  1.
         25    2    1    2    0    0 -0.45040900157E+02  0.99195272156E+02 -0.20620112820E+03  0.26464121553E+03  0.12509069902E+03 0.  0.
          5    1    3    3  502    0 -0.66855528121E+02  0.25007255870E+02 -0.41575550378E+02  0.82710478634E+02  0.41800000000E+01 0.  1.
         -5    1    3    3    0  502  0.21814627965E+02  0.74188016286E+02 -0.16462557782E+03  0.18193073690E+03  0.41800000000E+01 0.  1.
        -11    1    1    2    0    0  0.56248621401E+02 -0.69419542522E+02  0.10775869145E+03  0.13998184124E+03  0.00000000000E+00 0.  1.
         11    1    1    2    0    0 -0.11207721244E+02 -0.29775729634E+02  0.15118927070E+03  0.15450049407E+03  0.00000000000E+00 0. -1.
</event>
<event>
 7    1  0.2530765E-009  0.1112190E+03  0.7561462E-02  0.1258329E+00
         -2   -1    0    0    0  501 -0.00000000000E+00  0.00000000000E+00  0.43040483884E+02  0.43040483884E+02  0.00000000000E+00 0.  1.
          2   -1    0    0  501    0  0.00000000000E+00 -0.00000000000E+00 -0.36226685209E+03  0.36226685209E+03  0.00000000000E+00 0. -1.
         25    2    1    2    0    0  0.44420027864E+01 -0.36433802117E+02 -0.95575900585E+02  0.16165816259E+03  0.12510577698E+03 0.  0.
          5    1    3    3  502    0 -0.25217163383E+02  0.38018772494E+02 -0.15693855221E+02  0.48426252000E+02  0.41800000000E+01 0. -1.
         -5    1    3    3    0  502  0.29659166169E+02 -0.74452574612E+02 -0.79882045363E+02  0.11323191059E+03  0.41800000000E+01 0. -1.
        -11    1    1    2    0    0  0.40758108001E+02  0.30239785896E+02 -0.10819514281E+03  0.11950672343E+03  0.00000000000E+00 0.  1.
         11    1    1    2    0    0 -0.45200110787E+02  0.61940162217E+01 -0.11545532481E+03  0.12414244995E+03  0.00000000000E+00 0. -1.
</event>
<event>
 7    1  0.2530765E-009  0.1770265E+03  0.7561462E-02  0.1170712E+00
         -1   -1    0    0    0  501 -0.00000000000E+00  0.00000000000E+00  0.39496415481E+03  0.39496415481E+03  0.00000000000E+00 0.  1.
          1   -1    0    0  501    0  0.00000000000E+00 -0.00000000000E+00 -0.83290796726E+02  0.83290796726E+02  0.00000000000E+00 0. -1.
         25    2    1    2    0    0  0.14594084749E+02  0.14117182494E+03  0.13252156426E+03  0.23098156190E+03  0.12509214795E+03 0.  0.
          5    1    3    3  502    0 -0.10990763572E+02  0.15789283966E+03  0.11152439050E+03  0.19366493688E+03  0.41800000000E+01 0.  1.
         -5    1    3    3    0  502  0.25584848321E+02 -0.16721014725E+02  0.20997173756E+02  0.37316625019E+02  0.41800000000E+01 0.  1.
        -11    1    1    2    0    0 -0.10322061909E+02 -0.15245766783E+03  0.14345849215E+03  0.20959538261E+03  0.00000000000E+00 0. -1.
         11    1    1    2    0    0 -0.42720228405E+01  0.11285842889E+02  0.35693301666E+02  0.37678007016E+02  0.00000000000E+00 0.  1.
</event>
<event>
 7    1  0.2710401E-009  0.9006491E+02  0.7561462E-02  0.1302695E+00
         -2   -1    0    0    0  501 -0.00000000000E+00  0.00000000000E+00  0.13152099247E+03  0.13152099247E+03  0.00000000000E+00 0.  1.
          2   -1    0    0  501    0  0.00000000000E+00 -0.00000000000E+00 -0.11695600606E+03  0.11695600606E+03  0.00000000000E+00 0. -1.
         25    2    1    2    0    0  0.54401163722E+01  0.48275451183E+02  0.43713667891E+02  0.14113364879E+03  0.12509079906E+03 0.  0.
          5    1    3    3  502    0  0.27589067011E+02  0.74349425476E+02  0.63243125279E+02  0.10151925424E+03  0.41800000000E+01 0. -1.
         -5    1    3    3    0  502 -0.22148950639E+02 -0.26073974293E+02 -0.19529457387E+02  0.39614394551E+02  0.41800000000E+01 0. -1.
        -11    1    1    2    0    0  0.19856986500E+02 -0.18037708539E+02  0.27440663562E+02  0.38375107282E+02  0.00000000000E+00 0.  1.
         11    1    1    2    0    0 -0.25297102872E+02 -0.30237742644E+02 -0.56589345042E+02  0.68968242447E+02  0.00000000000E+00 0. -1.
</event>
<event>
 7    1  0.2530765E-009  0.1230300E+03  0.7561462E-02  0.1238181E+00
          1   -1    0    0  501    0  0.00000000000E+00  0.00000000000E+00  0.61858369753E+02  0.61858369753E+02  0.00000000000E+00 0. -1.
         -1   -1    0    0    0  501 -0.00000000000E+00 -0.00000000000E+00 -0.34918805361E+03  0.34918805361E+03  0.00000000000E+00 0.  1.
         25    2    1    2    0    0 -0.53430538106E+02 -0.84236542781E+02 -0.13411640740E+03  0.20877089790E+03  0.12508980587E+03 0.  0.
          5    1    3    3  502    0 -0.50878161994E+02 -0.22774886091E+02  0.54771662537E+01  0.56167201768E+02  0.41800000000E+01 0. -1.
         -5    1    3    3    0  502 -0.25523761122E+01 -0.61461656689E+02 -0.13959357365E+03  0.15260369613E+03  0.41800000000E+01 0. -1.
        -11    1    1    2    0    0 -0.11770936132E+02 -0.89394145497E+01 -0.36210933058E+02  0.39111376131E+02  0.00000000000E+00 0. -1.
         11    1    1    2    0    0  0.65201474238E+02  0.93175957331E+02 -0.11700234340E+03  0.16316414934E+03  0.00000000000E+00 0.  1.
</event>
<event>
 7    1  0.2530765E-009  0.1151934E+03  0.7561462E-02  0.1251244E+00
         -2   -1    0    0    0  501 -0.00000000000E+00  0.00000000000E+00  0.16628490140E+02  0.16628490140E+02  0.00000000000E+00 0. -1.
          2   -1    0    0  501    0  0.00000000000E+00 -0.00000000000E+00 -0.12793272083E+04  0.12793272083E+04  0.00000000000E+00 0.  1.
         25    2    1    2    0    0  0.48324513014E+02 -0.23536290013E+02 -0.10388947915E+04  0.10477784442E+04  0.12509222546E+03 0.  0.
          5    1    3    3  502    0 -0.22829105839E+02 -0.53725708784E+02 -0.41796021501E+03  0.42203771583E+03  0.41800000000E+01 0.  1.
         -5    1    3    3    0  502  0.71153618854E+02  0.30189418771E+02 -0.62093457649E+03  0.62574072839E+03  0.41800000000E+01 0.  1.
        -11    1    1    2    0    0 -0.58417323996E+02  0.42996462048E+02 -0.21023444091E+03  0.22239559266E+03  0.00000000000E+00 0.  1.
         11    1    1    2    0    0  0.10092810982E+02 -0.19460172035E+02 -0.13569485762E+02  0.25781661564E+02  0.00000000000E+00 0. -1.
</event>
<event>
 7    1  0.2530765E-009  0.9419609E+02  0.7561462E-02  0.1292997E+00
         -1   -1    0    0    0  501 -0.00000000000E+00  0.00000000000E+00  0.36650586331E+02  0.36650586331E+02  0.00000000000E+00 0.  1.
          1   -1    0    0  501    0  0.00000000000E+00 -0.00000000000E+00 -0.56505354072E+03  0.56505354072E+03  0.00000000000E+00 0. -1.
         25    2    1    2    0    0 -0.17386717890E+02  0.80082131826E+02 -0.38240707734E+03  0.41060690459E+03  0.12508961388E+03 0.  0.
          5    1    3    3  502    0 -0.18094983973E+02 -0.47857667474E+01 -0.31567292490E+00  0.19180825262E+02  0.41800000000E+01 0. -1.
         -5    1    3    3    0  502  0.70826608294E+00  0.84867898573E+02 -0.38209140442E+03  0.39142607933E+03  0.41800000000E+01 0. -1.
        -11    1    1    2    0    0 -0.36013915757E+01 -0.25655757674E+02  0.74338497959E+01  0.26952737261E+02  0.00000000000E+00 0.  1.
         11    1    1    2    0    0  0.20988109466E+02 -0.54426374152E+02 -0.15342972684E+03  0.16414448520E+03  0.00000000000E+00 0. -1.
</event>
<event>
 7    1  0.2530765E-009  0.1990284E+03  0.7561462E-02  0.1150561E+00
          1   -1    0    0  501    0  0.00000000000E+00  0.00000000000E+00  0.25205620914E+04  0.25205620914E+04  0.00000000000E+00 0. -1.
         -1   -1    0    0    0  501 -0.00000000000E+00 -0.00000000000E+00 -0.20602754207E+02  0.20602754207E+02  0.00000000000E+00 0.  1.
         25    2    1    2    0    0  0.17449182857E+03 -0.80115484075E+01  0.18548130155E+04  0.18672146434E+04  0.12509044278E+03 0.  0.
          5    1    3    3  502    0  0.17781608793E+03 -0.30131969906E+02  0.13644642969E+04  0.13763381803E+04  0.41800000000E+01 0.  1.
         -5    1    3    3    0  502 -0.33242593546E+01  0.22120421499E+02  0.49034871861E+03  0.49087646306E+03  0.41800000000E+01 0.  1.
        -11    1    1    2    0    0 -0.13230274539E+03  0.44021054765E+02  0.45693561594E+03  0.47773635701E+03  0.00000000000E+00 0.  1.
         11    1    1    2    0    0 -0.42189083180E+02 -0.36009506357E+02  0.18821070573E+03  0.19621384518E+03  0.00000000000E+00 0. -1.
</event>
<event>
 7    1  0.2530765E-009  0.9872062E+02  0.7561462E-02  0.1283010E+00
         -1   -1    0    0    0  501 -0.00000000000E+00  0.00000000000E+00  0.39043485258E+02  0.39043485258E+02  0.00000000000E+00 0.  1.
          1   -1    0    0  501    0  0.00000000000E+00 -0.00000000000E+00 -0.36776859559E+03  0.36776859559E+03  0.00000000000E+00 0. -1.
         25    2    1    2    0    0  0.14772129804E+02 -0.45363540587E+02 -0.15008932009E+03  0.20112277641E+03  0.12508996983E+03 0.  0.
          5    1    3    3  502    0 -0.21477452648E+02 -0.61567384394E+02 -0.14725040660E+03  0.16109617760E+03  0.41800000000E+01 0. -1.
         -5    1    3    3    0  502  0.36249582452E+02  0.16203843807E+02 -0.28389134852E+01  0.40026598805E+02  0.41800000000E+01 0. -1.
        -11    1    1    2    0    0 -0.47470158831E+02  0.24934932029E+02 -0.57754279547E+02  0.78808144381E+02  0.00000000000E+00 0.  1.
         11    1    1    2    0    0  0.32698029027E+02  0.20428608558E+02 -0.12088151070E+03  0.12688116006E+03  0.00000000000E+00 0. -1.
</event>
<event>
 7    1  0.2530765E-009  0.3335119E+03  0.7561462E-02  0.1069593E+00
          1   -1    0    0  501    0  0.00000000000E+00  0.00000000000E+00  0.70633813157E+03  0.70633813157E+03  0.00000000000E+00 0. -1.
         -1   -1    0    0    0  501 -0.00000000000E+00 -0.00000000000E+00 -0.16479895599E+03  0.16479895599E+03  0.00000000000E+00 0.  1.
         25    2    1    2    0    0 -0.28257792050E+03  0.14074860508E+03  0.18532943233E+03  0.38685342912E+03  0.12509247040E+03 0.  0.
          5    1    3    3  502    0 -0.27549234645E+03  0.15985079260E+03  0.17039134146E+03  0.36124644011E+03  0.41800000000E+01 0.  1.
         -5    1    3    3    0  502 -0.70855740570E+01 -0.19102187521E+02  0.14938090866E+02  0.25606989018E+02  0.41800000000E+01 0.  1.
        -11    1    1    2    0    0  0.26612582786E+03 -0.15318537353E+03  0.32754285822E+03  0.44896886182E+03  0.00000000000E+00 0.  1.
         11    1    1    2    0    0  0.16452092641E+02  0.12436768454E+02  0.28666885042E+02  0.35314796614E+02  0.00000000000E+00 0. -1.
</event>
<event>
 7    1  0.2530765E-009  0.1362817E+03  0.7561462E-02  0.1218422E+00
         -1   -1    0    0    0  501 -0.00000000000E+00  0.00000000000E+00  0.14157432526E+03  0.14157432526E+03  0.00000000000E+00 0.  1.
          1   -1    0    0  501    0  0.00000000000E+00 -0.00000000000E+00 -0.17921456094E+03  0.17921456094E+03  0.00000000000E+00 0. -1.
         25    2    1    2    0    0 -0.31186627691E+02 -0.11246510085E+03 -0.31854310078E+02  0.17402422234E+03  0.12509487693E+03 0.  0.
          5    1    3    3  502    0  0.35202173241E+02 -0.27876966172E+02 -0.47250340907E+02  0.65317573130E+02  0.41800000000E+01 0.  1.
         -5    1    3    3    0  502 -0.66388800932E+02 -0.84588134674E+02  0.15396030829E+02  0.10870664921E+03  0.41800000000E+01 0.  1.
        -11    1    1    2    0    0  0.36161184524E+01  0.63957173096E+02  0.39192247225E+02  0.75097460314E+02  0.00000000000E+00 0.  1.
         11    1    1    2    0    0  0.27570509239E+02  0.48507927750E+02 -0.44978172825E+02  0.71667203552E+02  0.00000000000E+00 0. -1.
</event>
<event>
 7    1  0.2530765E-009  0.1216551E+03  0.7561462E-02  0.1240391E+00
         -3   -1    0    0    0  501 -0.00000000000E+00  0.00000000000E+00  0.12672427679E+03  0.12672427679E+03  0.00000000000E+00 0.  1.
          3   -1    0    0  501    0  0.00000000000E+00 -0.00000000000E+00 -0.14089200733E+03  0.14089200733E+03  0.00000000000E+00 0. -1.
         25    2    1    2    0    0 -0.50152576715E+02  0.42000160589E+02  0.33711101309E+02  0.14513213555E+03  0.12509038323E+03 0.  0.
          5    1    3    3  502    0 -0.47325647331E+02 -0.37535757274E+02  0.22771526580E+02  0.64688985092E+02  0.41800000000E+01 0. -1.
         -5    1    3    3    0  502 -0.28269293840E+01  0.79535917863E+02  0.10939574729E+02  0.80443150456E+02  0.41800000000E+01 0. -1.
        -11    1    1    2    0    0 -0.21122088408E+02 -0.17088863318E+01 -0.33075906060E+02  0.39282037535E+02  0.00000000000E+00 0. -1.
         11    1    1    2    0    0  0.71274665123E+02 -0.40291274257E+02 -0.14802925787E+02  0.83202111040E+02  0.00000000000E+00 0.  1.
</event>
<event>
 7    1  0.2530765E-009  0.3626319E+03  0.7561462E-02  0.1057547E+00
          1   -1    0    0  501    0  0.00000000000E+00  0.00000000000E+00  0.73401000534E+03  0.73401000534E+03  0.00000000000E+00 0.  1.
         -1   -1    0    0    0  501 -0.00000000000E+00 -0.00000000000E+00 -0.25081397901E+03  0.25081397901E+03  0.00000000000E+00 0. -1.
         25    2    1    2    0    0  0.14332110334E+03 -0.32262455379E+03 -0.60050443299E+01  0.37458097625E+03  0.12508919153E+03 0.  0.
          5    1    3    3  502    0  0.17778806871E+01 -0.14501554469E+03 -0.22554690005E+02  0.14682934142E+03  0.41800000000E+01 0.  1.
         -5    1    3    3    0  502  0.14154322265E+03 -0.17760900910E+03  0.16549645675E+02  0.22775163482E+03  0.41800000000E+01 0.  1.
        -11    1    1    2    0    0 -0.72182673896E+02  0.16363235392E+03  0.17074558029E+03  0.24726491633E+03  0.00000000000E+00 0. -1.
         11    1    1    2    0    0 -0.71138429444E+02  0.15899219987E+03  0.31845549037E+03  0.36297809178E+03  0.00000000000E+00 0.  1.
</event>
<event>
 7    1  0.2530765E-009  0.1087111E+03  0.7561462E-02  0.1262976E+00
         -2   -1    0    0    0  501 -0.00000000000E+00  0.00000000000E+00  0.30407104974E+02  0.30407104974E+02  0.00000000000E+00 0.  1.
          2   -1    0    0  501    0  0.00000000000E+00 -0.00000000000E+00 -0.43322203207E+03  0.43322203207E+03  0.00000000000E+00 0. -1.
         25    2    1    2    0    0  0.23265296066E+02  0.15760928031E+02 -0.16899227582E+03  0.21213171834E+03  0.12510713722E+03 0.  0.
          5    1    3    3  502    0  0.48628350164E+02  0.58627831747E+02 -0.83500865439E+02  0.11310086659E+03  0.41800000000E+01 0. -1.
         -5    1    3    3    0  502 -0.25363054098E+02 -0.42866903716E+02 -0.85491410386E+02  0.99030851744E+02  0.41800000000E+01 0. -1.
        -11    1    1    2    0    0 -0.69285905854E+01 -0.51444150323E+02 -0.15469961650E+03  0.16317621553E+03  0.00000000000E+00 0. -1.
         11    1    1    2    0    0 -0.16336705481E+02  0.35683222292E+02 -0.79123034778E+02  0.88321203183E+02  0.00000000000E+00 0.  1.
</event>
<event>
 7    1  0.2530765E-009  0.1168053E+03  0.7561462E-02  0.1248462E+00
         -1   -1    0    0    0  501 -0.00000000000E+00  0.00000000000E+00  0.16346990469E+03  0.16346990469E+03  0.00000000000E+00 0.  1.
          1   -1    0    0  501    0  0.00000000000E+00 -0.00000000000E+00 -0.85830498650E+02  0.85830498650E+02  0.00000000000E+00 0. -1.
         25    2    1    2    0    0 -0.22290388945E+02 -0.36429213143E+02  0.64191092865E+02  0.14694060380E+03  0.12508835130E+03 0.  0.
          5    1    3    3  502    0  0.52011503779E+02 -0.20412714020E+02  0.28623869439E+02  0.62917992027E+02  0.41800000000E+01 0.  1.
         -5    1    3    3    0  502 -0.74301892724E+02 -0.16016499124E+02  0.35567223426E+02  0.84022611770E+02  0.41800000000E+01 0.  1.
        -11    1    1    2    0    0 -0.19381934327E+02  0.53136192435E+02  0.83766601508E+01  0.57177642134E+02  0.00000000000E+00 0. -1.
         11    1    1    2    0    0  0.41672323272E+02 -0.16706979291E+02  0.50716530264E+01  0.45182157411E+02  0.00000000000E+00 0.  1.
</event>
<event>
 7    1  0.2530765E-009  0.1841440E+03  0.7561462E-02  0.1163852E+00
          2   -1    0    0  501    0  0.00000000000E+00  0.00000000000E+00  0.91317102816E+03  0.91317102816E+03  0.00000000000E+00 0. -1.
         -2   -1    0    0    0  501 -0.00000000000E+00 -0.00000000000E+00 -0.48929313519E+02  0.48929313519E+02  0.00000000000E+00 0.  1.
         25    2    1    2    0    0 -0.78246163818E+02 -0.15821599172E+03  0.35189990460E+03  0.41307726497E+03  0.12507806279E+03 0.  0.
          5    1    3    3  502    0 -0.53182919863E+02 -0.13369032291E+03  0.34914824226E+03  0.37765525665E+03  0.41800000000E+01 0.  1.
         -5    1    3    3    0  502 -0.25063243955E+02 -0.24525668804E+02  0.27516623451E+01  0.35422008321E+02  0.41800000000E+01 0.  1.
        -11    1    1    2    0    0  0.49127724839E+02  0.15133809487E+03  0.47633939176E+03  0.50221107957E+03  0.00000000000E+00 0.  1.
         11    1    1    2    0    0  0.29118438979E+02  0.68778968431E+01  0.36002418284E+02  0.46811997136E+02  0.00000000000E+00 0. -1.
</event>
<event>
 7    1  0.2530765E-009  0.2078477E+03  0.7561462E-02  0.1143282E+00
         -2   -1    0    0    0  501 -0.00000000000E+00  0.00000000000E+00  0.74043430570E+03  0.74043430570E+03  0.00000000000E+00 0.  1.
          2   -1    0    0  501    0  0.00000000000E+00 -0.00000000000E+00 -0.13562249285E+03  0.13562249285E+03  0.00000000000E+00 0. -1.
         25    2    1    2    0    0 -0.85224322634E+02 -0.17592581436E+03 -0.19054270147E+01  0.23208647002E+03  0.12508965420E+03 0.  0.
          5    1    3    3  502    0 -0.91345429509E+02 -0.11534799315E+03 -0.48850238092E+02  0.15509018401E+03  0.41800000000E+01 0.  1.
         -5    1    3    3    0  502  0.61211068753E+01 -0.60577821210E+02  0.46944811078E+02  0.76996286008E+02  0.41800000000E+01 0.  1.
        -11    1    1    2    0    0  0.12861987533E+02  0.10621730898E+03  0.22334648625E+03  0.24765136860E+03  0.00000000000E+00 0.  1.
         11    1    1    2    0    0  0.72362335101E+02  0.69708505381E+02  0.38337075362E+03  0.39631895993E+03  0.00000000000E+00 0. -1.
</event>
<event>
 7    1  0.2530765E-009  0.1761951E+03  0.7561462E-02  0.1171537E+00
          4   -1    0    0  501    0  0.00000000000E+00  0.00000000000E+00  0.33912225354E+03  0.33912225354E+03  0.00000000000E+00 0. -1.
         -4   -1    0    0    0  501 -0.00000000000E+00 -0.00000000000E+00 -0.12188391139E+03  0.12188391139E+03  0.00000000000E+00 0.  1.
         25    2    1    2    0    0 -0.15015284488E+03  0.70330197365E+02  0.64164029939E+02  0.21738585125E+03  0.12508945639E+03 0.  0.
          5    1    3    3  502    0  0.10829700137E+02  0.50862606035E+01  0.40002710159E+02  0.41962384013E+02  0.41800000000E+01 0. -1.
         -5    1    3    3    0  502 -0.16098254502E+03  0.65243936762E+02  0.24161319780E+02  0.17542346724E+03  0.41800000000E+01 0. -1.
        -11    1    1    2    0    0  0.58341767229E+02 -0.23459187843E+02  0.11979927137E+03  0.13529952224E+03  0.00000000000E+00 0.  1.
         11    1    1    2    0    0  0.91811077656E+02 -0.46871009523E+02  0.33275040843E+02  0.10832079143E+03  0.00000000000E+00 0. -1.
</event>
<event>
 7    1  0.2530765E-009  0.6376685E+02  0.7561462E-02  0.1382671E+00
          1   -1    0    0  501    0  0.00000000000E+00  0.00000000000E+00  0.77193822124E+03  0.77193822124E+03  0.00000000000E+00 0. -1.
         -1   -1    0    0    0  501 -0.00000000000E+00 -0.00000000000E+00 -0.25000154341E+02  0.25000154341E+02  0.00000000000E+00 0.  1.
         25    2    1    2    0    0  0.30316776999E+02 -0.40806303673E+02  0.62633073257E+03  0.64072233181E+03  0.12510259205E+03 0.  0.
          5    1    3    3  502    0  0.26268906343E+02 -0.39551644510E+02  0.63122139401E+03  0.63301841101E+03  0.41800000000E+01 0.  1.
         -5    1    3    3    0  502  0.40478706558E+01 -0.12546591632E+01 -0.48906614380E+01  0.77039208045E+01  0.41800000000E+01 0.  1.
        -11    1    1    2    0    0  0.89346695118E+01  0.32619586206E+02  0.54238807559E+01  0.34253236431E+02  0.00000000000E+00 0.  1.
         11    1    1    2    0    0 -0.39251446511E+02  0.81867174670E+01  0.11518345357E+03  0.12196280734E+03  0.00000000000E+00 0. -1.
</event>
<event>
 7    1  0.2530765E-009  0.8236007E+02  0.7561462E-02  0.1322484E+00
          2   -1    0    0  501    0  0.00000000000E+00  0.00000000000E+00  0.78729424500E+02  0.78729424500E+02  0.00000000000E+00 0. -1.
         -2   -1    0    0    0  501 -0.00000000000E+00 -0.00000000000E+00 -0.23348960688E+03  0.23348960688E+03  0.00000000000E+00 0.  1.
         25    2    1    2    0    0  0.27020237600E+02  0.25165205930E+02 -0.37709246242E+01  0.13048474646E+03  0.12509463761E+03 0.  0.
          5    1    3    3  502    0 -0.21160854267E+02 -0.22089827336E+01 -0.52356587755E+02  0.56668739525E+02  0.41800000000E+01 0. -1.
         -5    1    3    3    0  502  0.48181091867E+02  0.27374188663E+02  0.48585663131E+02  0.73816006938E+02  0.41800000000E+01 0. -1.
        -11    1    1    2    0    0 -0.39817488416E+02 -0.47342662698E+02 -0.14149358025E+03  0.15442536498E+03  0.00000000000E+00 0.  1.
         11    1    1    2    0    0  0.12797250816E+02  0.22177456769E+02 -0.94956775052E+01  0.27308919943E+02  0.00000000000E+00 0. -1.
</event>
<event>
 7    1  0.2530765E-009  0.7935527E+02  0.7561462E-02  0.1330891E+00
         -2   -1    0    0    0  501 -0.00000000000E+00  0.00000000000E+00  0.16071701178E+02  0.16071701178E+02  0.00000000000E+00 0.  1.
          2   -1    0    0  501    0  0.00000000000E+00 -0.00000000000E+00 -0.95277006523E+03  0.95277006523E+03  0.00000000000E+00 0. -1.
         25    2    1    2    0    0 -0.27445989527E+01 -0.26236846703E+02 -0.70897467678E+03  0.72040885716E+03  0.12509166325E+03 0.  0.
          5    1    3    3  502    0  0.29784278190E+02 -0.24810092122E+02 -0.66173738606E+03  0.66288497072E+03  0.41800000000E+01 0.  1.
         -5    1    3    3    0  502 -0.32528877143E+02 -0.14267545813E+01 -0.47237290718E+02  0.57523886441E+02  0.41800000000E+01 0.  1.
        -11    1    1    2    0    0 -0.32353875446E+02 -0.12442817146E+02 -0.37061027415E+02  0.50745607770E+02  0.00000000000E+00 0.  1.
         11    1    1    2    0    0  0.35098474399E+02  0.38679663849E+02 -0.19066265986E+03  0.19768730147E+03  0.00000000000E+00 0. -1.
</event>
<event>
 7    1  0.2530765E-009  0.9556727E+02  0.7561462E-02  0.1289904E+00
          2   -1    0    0  501    0  0.00000000000E+00  0.00000000000E+00  0.12551877405E+02  0.12551877405E+02  0.00000000000E+00 0. -1.
         -2   -1    0    0    0  501 -0.00000000000E+00 -0.00000000000E+00 -0.93122699916E+03  0.93122699916E+03  0.00000000000E+00 0.  1.
         25    2    1    2    0    0  0.11112465489E+02  0.43789465671E+01 -0.52409541336E+03  0.53894931992E+03  0.12509078733E+03 0.  0.
          5    1    3    3  502    0 -0.19631850563E+02 -0.41008907478E+02 -0.40740634574E+03  0.40995675747E+03  0.41800000000E+01 0. -1.
         -5    1    3    3    0  502  0.30744316052E+02  0.45387854045E+02 -0.11668906763E+03  0.12899256245E+03  0.41800000000E+01 0. -1.
        -11    1    1    2    0    0  0.20943806193E+02  0.34344770016E+02 -0.17094671776E+03  0.17561602022E+03  0.00000000000E+00 0. -1.
         11    1    1    2    0    0 -0.32056271682E+02 -0.38723716583E+02 -0.22363299063E+03  0.22921353642E+03  0.00000000000E+00 0.  1.
</event>
<event>
 7    1  0.2976009E-009  0.1470348E+03  0.7561462E-02  0.1204165E+00
          2   -1    0    0  501    0  0.00000000000E+00  0.00000000000E+00  0.16320104639E+04  0.16320104639E+04  0.00000000000E+00 0. -1.
         -2   -1    0    0    0  501 -0.00000000000E+00 -0.00000000000E+00 -0.22059881632E+02  0.22059881632E+02  0.00000000000E+00 0.  1.
         25    2    1    2    0    0 -0.94040486693E+02  0.80720059131E+02  0.12524802687E+04  0.12647980320E+04  0.12509155505E+03 0.  0.
          5    1    3    3  502    0 -0.38056868042E+02 -0.26853228817E+02  0.20249883415E+03  0.20782846614E+03  0.41800000000E+01 0.  1.
         -5    1    3    3    0  502 -0.55983618651E+02  0.10757328795E+03  0.10499814345E+04  0.10569695658E+04  0.41800000000E+01 0.  1.
        -11    1    1    2    0    0  0.65692657288E+02 -0.41981385939E+02  0.31712220480E+03  0.32656462571E+03  0.00000000000E+00 0. -1.
         11    1    1    2    0    0  0.28347829404E+02 -0.38738673192E+02  0.40348108760E+02  0.62707687831E+02  0.00000000000E+00 0.  1.
</event>
<event>
 7    1  0.2530765E-009  0.1620947E+03  0.7561462E-02  0.1186352E+00
         -2   -1    0    0    0  501 -0.00000000000E+00  0.00000000000E+00  0.69066374765E+02  0.69066374765E+02  0.00000000000E+00 0.  1.
          2   -1    0    0  501    0  0.00000000000E+00 -0.00000000000E+00 -0.49675915534E+03  0.49675915534E+03  0.00000000000E+00 0. -1.
         25    2    1    2    0    0  0.11338706027E+03  0.94033055868E+02 -0.26684207447E+03  0.32947058232E+03  0.12508929159E+03 0.  0.
          5    1    3    3  502    0  0.97434292399E+02  0.27667819617E+02 -0.23099718247E+03  0.25226200722E+03  0.41800000000E+01 0. -1.
         -5    1    3    3    0  502  0.15952767871E+02  0.66365236252E+02 -0.35844892001E+02  0.77208575094E+02  0.41800000000E+01 0. -1.
        -11    1    1    2    0    0 -0.81686631803E+02 -0.38085670954E+02 -0.38241546226E+02  0.97906281745E+02  0.00000000000E+00 0. -1.
         11    1    1    2    0    0 -0.31700428468E+02 -0.55947384914E+02 -0.12260915987E+03  0.13844866604E+03  0.00000000000E+00 0.  1.
</event>
<event>
 7    1  0.2530765E-009  0.1051550E+03  0.7561462E-02  0.1269814E+00
          2   -1    0    0  501    0  0.00000000000E+00  0.00000000000E+00  0.53095254334E+03  0.53095254334E+03  0.00000000000E+00 0. -1.
         -2   -1    0    0    0  501 -0.00000000000E+00 -0.00000000000E+00 -0.36018759960E+02  0.36018759960E+02  0.00000000000E+00 0.  1.
         25    2    1    2    0    0  0.48107137289E+02  0.44305845925E+02  0.38458452998E+03  0.40967081370E+03  0.12509040833E+03 0.  0.
          5    1    3    3  502    0  0.33069981123E+01  0.65594959399E+02  0.93368561888E+02  0.11423132532E+03  0.41800000000E+01 0.  1.
         -5    1    3    3    0  502  0.44800139177E+02 -0.21289113474E+02  0.29121596809E+03  0.29543948838E+03  0.41800000000E+01 0.  1.
        -11    1    1    2    0    0  0.17756389392E+02 -0.11344643553E+02 -0.38413984623E+01  0.21418371641E+02  0.00000000000E+00 0.  1.
         11    1    1    2    0    0 -0.65863526681E+02 -0.32961202373E+02  0.11419065186E+03  0.13588211796E+03  0.00000000000E+00 0. -1.
</event>
<event>
 7    1  0.2530765E-009  0.1356329E+03  0.7561462E-02  0.1219329E+00
          1   -1    0    0  501    0  0.00000000000E+00  0.00000000000E+00  0.77655782724E+03  0.77655782724E+03  0.00000000000E+00 0. -1.
         -1   -1    0    0    0  501 -0.00000000000E+00 -0.00000000000E+00 -0.27182553475E+02  0.27182553475E+02  0.00000000000E+00 0.  1.
         25    2    1    2    0    0  0.80200070780E+02  0.35723057933E+02  0.30247435119E+03  0.33889028366E+03  0.12509077908E+03 0.  0.
          5    1    3    3  502    0  0.98076631477E+02 -0.61031727655E+01  0.25354306000E+03  0.27195188919E+03  0.41800000000E+01 0.  1.
         -5    1    3    3    0  502 -0.17876560697E+02  0.41826230698E+02  0.48931291192E+02  0.66938394472E+02  0.41800000000E+01 0.  1.
        -11    1    1    2    0    0 -0.32821847260E+02  0.31167730225E+02  0.13652181834E+03  0.14382944047E+03  0.00000000000E+00 0.  1.
         11    1    1    2    0    0 -0.47378223520E+02 -0.66890788158E+02  0.31037910424E+03  0.32102065658E+03  0.00000000000E+00 0. -1.
</event>
<event>
 7    1  0.2530765E-009  0.1120011E+03  0.7561462E-02  0.1256908E+00
          2   -1    0    0  501    0  0.00000000000E+00  0.00000000000E+00  0.31631870837E+02  0.31631870837E+02  0.00000000000E+00 0. -1.
         -2   -1    0    0    0  501 -0.00000000000E+00 -0.00000000000E+00 -0.40481505057E+03  0.40481505057E+03  0.00000000000E+00 0.  1.
         25    2    1    2    0    0  0.84213828088E+01 -0.32615483245E+02 -0.21184182180E+03  0.24831215718E+03  0.12508909026E+03 0.  0.
          5    1    3    3  502    0  0.65756168539E+02 -0.77682720826E+01 -0.12060796304E+03  0.13765163603E+03  0.41800000000E+01 0. -1.
         -5    1    3    3    0  502 -0.57334785731E+02 -0.24847211163E+02 -0.91233858758E+02  0.11066052115E+03  0.41800000000E+01 0. -1.
        -11    1    1    2    0    0 -0.46950167282E+02  0.41632032995E+01 -0.97784483922E+02  0.10855162719E+03  0.00000000000E+00 0. -1.
         11    1    1    2    0    0  0.38528784473E+02  0.28452279946E+02 -0.63556874007E+02  0.79583137037E+02  0.00000000000E+00 0.  1.
</event>
<event>
 7    1  0.2530765E-009  0.1083646E+03  0.7561462E-02  0.1263629E+00
         -1   -1    0    0    0  501 -0.00000000000E+00  0.00000000000E+00  0.11973136149E+02  0.11973136149E+02  0.00000000000E+00 0.  1.
          1   -1    0    0  501    0  0.00000000000E+00 -0.00000000000E+00 -0.16589111676E+04  0.16589111676E+04  0.00000000000E+00 0. -1.
         25    2    1    2    0    0  0.17386578344E+02 -0.29570794907E+02 -0.13941830767E+04  0.14002035636E+04  0.12508734211E+03 0.  0.
          5    1    3    3  502    0  0.21054412813E+02 -0.75741533721E+02 -0.68764624263E+03  0.69213791663E+03  0.41800000000E+01 0. -1.
         -5    1    3    3    0  502 -0.36678344692E+01  0.46170738814E+02 -0.70653683405E+03  0.70806564696E+03  0.41800000000E+01 0. -1.
        -11    1    1    2    0    0  0.22847717958E+02 -0.18079501874E+02 -0.12714952006E+03  0.13044495795E+03  0.00000000000E+00 0. -1.
         11    1    1    2    0    0 -0.40234296302E+02  0.47650296780E+02 -0.12560543467E+03  0.14023578217E+03  0.00000000000E+00 0.  1.
</event>
<event>
 7    1  0.2612687E-009  0.6607502E+02  0.7561462E-02  0.1373973E+00
         -2   -1    0    0    0  501 -0.00000000000E+00  0.00000000000E+00  0.16759176034E+02  0.16759176034E+02  0.00000000000E+00 0.  1.
          2   -1    0    0  501    0  0.00000000000E+00 -0.00000000000E+00 -0.10523622901E+04  0.10523622901E+04  0.00000000000E+00 0. -1.
         25    2    1    2    0    0 -0.20753986573E+02  0.26221225663E+02 -0.84544261099E+03  0.85530023133E+03  0.12508795543E+03 0.  0.
          5    1    3    3  502    0  0.80147695632E+01 -0.68958605453E+01 -0.75096581193E+03  0.75105187072E+03  0.41800000000E+01 0. -1.
         -5    1    3    3    0  502 -0.28768756136E+02  0.33117086208E+02 -0.94476799064E+02  0.10424836061E+03  0.41800000000E+01 0. -1.
        -11    1    1    2    0    0 -0.17267035890E+02 -0.33790877643E+02 -0.28179806442E+02  0.47266007145E+02  0.00000000000E+00 0.  1.
         11    1    1    2    0    0  0.38021022463E+02  0.75696519806E+01 -0.16198069665E+03  0.16655522767E+03  0.00000000000E+00 0. -1.
</event>
<event>
 7    1  0.2530765E-009  0.1243984E+03  0.7561462E-02  0.1236013E+00
          3   -1    0    0  501    0  0.00000000000E+00  0.00000000000E+00  0.15965547389E+03  0.15965547389E+03  0.00000000000E+00 0. -1.
         -3   -1    0    0    0  501 -0.00000000000E+00 -0.00000000000E+00 -0.16876995058E+03  0.16876995058E+03  0.00000000000E+00 0.  1.
         25    2    1    2    0    0  0.90960750177E+01  0.11315574858E+03  0.12420116810E+01  0.16892653064E+03  0.12509063971E+03 0.  0.
          5    1    3    3  502    0  0.28672551059E+02  0.98654482240E+02 -0.48269246977E+02  0.11358791597E+03  0.41800000000E+01 0. -1.
         -5    1    3    3    0  502 -0.19576476041E+02  0.14501266339E+02  0.49511258658E+02  0.55338614669E+02  0.41800000000E+01 0. -1.
        -11    1    1    2    0    0 -0.12433385744E+02 -0.55781631832E+01  0.38838206412E+02  0.41159582880E+02  0.00000000000E+00 0. -1.
         11    1    1    2    0    0  0.33373107263E+01 -0.10757758540E+03 -0.49194694787E+02  0.11833931096E+03  0.00000000000E+00 0.  1.
</event>
<event>
 7    1  0.2530765E-009  0.1041446E+03  0.7561462E-02  0.1271814E+00
          1   -1    0    0  501    0  0.00000000000E+00  0.00000000000E+00  0.42797825924E+03  0.42797825924E+03  0.00000000000E+00 0. -1.
         -1   -1    0    0    0  501 -0.00000000000E+00 -0.00000000000E+00 -0.27883073561E+02  0.27883073561E+02  0.00000000000E+00 0.  1.
         25    2    1    2    0    0 -0.41639473913E+01  0.52563587787E+01  0.20909793177E+03  0.24375003115E+03  0.12508862798E+03 0.  0.
          5    1    3    3  502    0 -0.34848931273E+02 -0.50470448782E+02  0.10571102050E+03  0.12228657517E+03  0.41800000000E+01 0. -1.
         -5    1    3    3    0  502  0.30684983882E+02  0.55726807561E+02  0.10338691127E+03  0.12146345598E+03  0.41800000000E+01 0. -1.
        -11    1    1    2    0    0  0.33237145068E+02 -0.30082935335E+02  0.14768788738E+03  0.15434183778E+03  0.00000000000E+00 0. -1.
         11    1    1    2    0    0 -0.29073197677E+02  0.24826576556E+02  0.43309366526E+02  0.57769463868E+02  0.00000000000E+00 0.  1.
</event>
<event>
 7    1  0.2530765E-009  0.8754182E+02  0.7561462E-02  0.1308916E+00
          1   -1    0    0  501    0  0.00000000000E+00  0.00000000000E+00  0.22952565798E+03  0.22952565798E+03  0.00000000000E+00 0. -1.
         -1   -1    0    0    0  501 -0.00000000000E+00 -0.00000000000E+00 -0.41281620186E+02  0.41281620186E+02  0.00000000000E+00 0.  1.
         25    2    1    2    0    0  0.42711909464E+02 -0.24211262771E+02  0.12941185023E+03  0.18656105170E+03  0.12508839506E+03 0.  0.
          5    1    3    3  502    0  0.65208130873E+02 -0.55878193225E+02  0.11773340451E+03  0.14578442903E+03  0.41800000000E+01 0.  1.
         -5    1    3    3    0  502 -0.22496221410E+02  0.31666930454E+02  0.11678445714E+02  0.40776622670E+02  0.41800000000E+01 0.  1.
        -11    1    1    2    0    0 -0.20351068781E+02  0.60485825583E+01  0.30290385166E+01  0.21445895314E+02  0.00000000000E+00 0.  1.
         11    1    1    2    0    0 -0.22360840683E+02  0.18162680213E+02  0.55803149051E+02  0.62800331150E+02  0.00000000000E+00 0. -1.
</event>
<event>
 7    1  0.2530765E-009  0.1067398E+03  0.7561462E-02  0.1266729E+00
          1   -1    0    0  501    0  0.00000000000E+00  0.00000000000E+00  0.25444633552E+02  0.25444633552E+02  0.00000000000E+00 0. -1.
         -1   -1    0    0    0  501 -0.00000000000E+00 -0.00000000000E+00 -0.52778369863E+03  0.52778369863E+03  0.00000000000E+00 0.  1.
         25    2    1    2    0    0 -0.20147004801E+02 -0.81800205871E+01 -0.36330392991E+03  0.38485119329E+03  0.12509149033E+03 0.  0.
          5    1    3    3  502    0 -0.18729526000E+02  0.54878451916E+02 -0.11815265018E+03  0.13168128483E+03  0.41800000000E+01 0. -1.
         -5    1    3    3    0  502 -0.14174788004E+01 -0.63058472503E+02 -0.24515127973E+03  0.25316990846E+03  0.41800000000E+01 0. -1.
        -11    1    1    2    0    0  0.54137658546E+02 -0.75754622979E+01 -0.61619137126E+02  0.82372275446E+02  0.00000000000E+00 0. -1.
         11    1    1    2    0    0 -0.33990653746E+02  0.15755482885E+02 -0.77415998043E+02  0.86004863444E+02  0.00000000000E+00 0.  1.
</event>
<event>
 7    1  0.2530765E-009  0.1621457E+03  0.7561462E-02  0.1186295E+00
          1   -1    0    0  501    0  0.00000000000E+00  0.00000000000E+00  0.42162123961E+03  0.42162123961E+03  0.00000000000E+00 0. -1.
         -1   -1    0    0    0  501 -0.00000000000E+00 -0.00000000000E+00 -0.78363799068E+02  0.78363799068E+02  0.00000000000E+00 0.  1.
         25    2    1    2    0    0  0.10962247565E+03 -0.69835519837E+02  0.27036359645E+03  0.32501789743E+03  0.12508426106E+03 0.  0.
          5    1    3    3  502    0  0.12326454851E+03 -0.35527920137E+02  0.14211607376E+03  0.19149629983E+03  0.41800000000E+01 0. -1.
         -5    1    3    3    0  502 -0.13642072860E+02 -0.34307599700E+02  0.12824752268E+03  0.13352159759E+03  0.41800000000E+01 0. -1.
        -11    1    1    2    0    0 -0.25225703835E+02  0.69980051504E+02  0.39289407802E+02  0.84126103606E+02  0.00000000000E+00 0.  1.
         11    1    1    2    0    0 -0.84396771812E+02 -0.14453166742E+00  0.33604436292E+02  0.90841037644E+02  0.00000000000E+00 0. -1.
</event>
<event>
 7    1  0.2530765E-009  0.1146854E+03  0.7561462E-02  0.1252131E+00
          2   -1    0    0  501    0  0.00000000000E+00  0.00000000000E+00  0.58229963477E+03  0.58229963477E+03  0.00000000000E+00 0. -1.
         -2   -1    0    0    0  501 -0.00000000000E+00 -0.00000000000E+00 -0.32278364744E+02  0.32278364744E+02  0.00000000000E+00 0.  1.
         25    2    1    2    0    0 -0.26455511502E+02  0.79472233799E+02  0.31256730059E+03  0.34693180073E+03  0.12509047495E+03 0.  0.
          5    1    3    3  502    0 -0.62125914989E+02  0.47299810260E+02  0.27472882635E+03  0.28564016138E+03  0.41800000000E+01 0. -1.
         -5    1    3    3    0  502  0.35670403487E+02  0.32172423539E+02  0.37838474238E+02  0.61291639348E+02  0.41800000000E+01 0. -1.
        -11    1    1    2    0    0  0.24494122975E+01 -0.78908212611E+02  0.96580968394E+02  0.12474128865E+03  0.00000000000E+00 0.  1.
         11    1    1    2    0    0  0.24006099205E+02 -0.56402118804E+00  0.14087300104E+03  0.14290491014E+03  0.00000000000E+00 0. -1.
</event>
<event>
 7    1  0.2530765E-009  0.1423937E+03  0.7561462E-02  0.1210144E+00
         -3   -1    0    0    0  501 -0.00000000000E+00  0.00000000000E+00  0.67920208509E+03  0.67920208509E+03  0.00000000000E+00 0.  1.
          3   -1    0    0  501    0  0.00000000000E+00 -0.00000000000E+00 -0.39061761919E+02  0.39061761919E+02  0.00000000000E+00 0. -1.
         25    2    1    2    0    0  0.94275700439E+00  0.12065654074E+03  0.35454126308E+03  0.39484809737E+03  0.12508646272E+03 0.  0.
          5    1    3    3  502    0 -0.29479631482E+02  0.79334394805E+02  0.83516174888E+02  0.11897654701E+03  0.41800000000E+01 0.  1.
         -5    1    3    3    0  502  0.30422388487E+02  0.41322145932E+02  0.27102508819E+03  0.27587155036E+03  0.41800000000E+01 0.  1.
        -11    1    1    2    0    0  0.38082446337E+02 -0.25808289763E+02  0.60080707794E+02  0.75670549017E+02  0.00000000000E+00 0. -1.
         11    1    1    2    0    0 -0.39025203342E+02 -0.94848250974E+02  0.22551835229E+03  0.24774520062E+03  0.00000000000E+00 0.  1.
</event>
<event>
 7    1  0.2530765E-009  0.1859895E+03  0.7561462E-02  0.1162129E+00
          1   -1    0    0  501    0  0.00000000000E+00  0.00000000000E+00  0.85178623341E+03  0.85178623341E+03  0.00000000000E+00 0. -1.
         -1   -1    0    0    0  501 -0.00000000000E+00 -0.00000000000E+00 -0.52992624194E+02  0.52992624194E+02  0.00000000000E+00 0.  1.
         25    2    1    2    0    0 -0.23171227408E+02  0.15752947898E+03  0.60285749897E+03  0.63595249209E+03  0.12508383427E+03 0.  0.
          5    1    3    3  502    0 -0.90316179262E+01 -0.19390733996E+02  0.10890694682E+03  0.11106649429E+03  0.41800000000E+01 0. -1.
         -5    1    3    3    0  502 -0.14139609482E+02  0.17692021298E+03  0.49395055215E+03  0.52488599780E+03  0.41800000000E+01 0. -1.
        -11    1    1    2    0    0 -0.23172814448E+02 -0.67945581068E+02  0.12944928295E+03  0.14802262723E+03  0.00000000000E+00 0.  1.
         11    1    1    2    0    0  0.46344041856E+02 -0.89583897914E+02  0.66486827299E+02  0.12080373829E+03  0.00000000000E+00 0. -1.
</event>
<event>
 7    1  0.2530765E-009  0.2988701E+03  0.7561462E-02  0.1085807E+00
         -2   -1    0    0    0  501 -0.00000000000E+00  0.00000000000E+00  0.19602604978E+03  0.19602604978E+03  0.00000000000E+00 0.  1.
          2   -1    0    0  501    0  0.00000000000E+00 -0.00000000000E+00 -0.50797836274E+03  0.50797836274E+03  0.00000000000E+00 0. -1.
         25    2    1    2    0    0 -0.16778041833E+03 -0.23712431472E+03 -0.93660555742E+02  0.32984172770E+03  0.12508019917E+03 0.  0.
          5    1    3    3  502    0 -0.37938270839E+02 -0.12995495036E+03  0.33578656305E+01  0.13548560506E+03  0.41800000000E+01 0. -1.
         -5    1    3    3    0  502 -0.12984214749E+03 -0.10716936437E+03 -0.97018421372E+02  0.19435612264E+03  0.41800000000E+01 0. -1.
        -11    1    1    2    0    0  0.79272736121E+01  0.36575010794E+02 -0.72400160776E-01  0.37424301240E+02  0.00000000000E+00 0.  1.
         11    1    1    2    0    0  0.15985314471E+03  0.20054930393E+03 -0.21821935706E+03  0.33673838358E+03  0.00000000000E+00 0. -1.
</event>
<event>
 7    1  0.2530765E-009  0.7356952E+02  0.7561462E-02  0.1348359E+00
          3   -1    0    0  501    0  0.00000000000E+00  0.00000000000E+00  0.36318922657E+03  0.36318922657E+03  0.00000000000E+00 0. -1.
         -3   -1    0    0    0  501 -0.00000000000E+00 -0.00000000000E+00 -0.32949226636E+02  0.32949226636E+02  0.00000000000E+00 0.  1.
         25    2    1    2    0    0  0.83823562284E+01  0.30422148026E+01  0.16125667620E+03  0.20427889985E+03  0.12508650743E+03 0.  0.
          5    1    3    3  502    0  0.17044317037E+02  0.26015523140E+02 -0.86539171465E+01  0.32552709096E+02  0.41800000000E+01 0. -1.
         -5    1    3    3    0  502 -0.86619608084E+01 -0.22973308338E+02  0.16991059335E+03  0.17172619076E+03  0.41800000000E+01 0. -1.
        -11    1    1    2    0    0  0.63989881830E+01  0.42496105489E+02  0.79138006310E+02  0.90053817655E+02  0.00000000000E+00 0.  1.
         11    1    1    2    0    0 -0.14781344411E+02 -0.45538320291E+02  0.89845317422E+02  0.10180573569E+03  0.00000000000E+00 0. -1.
</event>
<event>
 7    1  0.2530765E-009  0.1712009E+03  0.7561462E-02  0.1176601E+00
          3   -1    0    0  501    0  0.00000000000E+00  0.00000000000E+00  0.99086447944E+03  0.99086447944E+03  0.00000000000E+00 0. -1.
         -3   -1    0    0    0  501 -0.00000000000E+00 -0.00000000000E+00 -0.43419312987E+02  0.43419312987E+02  0.00000000000E+00 0.  1.
         25    2    1    2    0    0 -0.94979001712E+02 -0.11152526761E+03  0.75105688735E+03  0.77536640215E+03  0.12509082085E+03 0.  0.
          5    1    3    3  502    0 -0.48931725193E+02 -0.11764335574E+03  0.36747912504E+03  0.38896356207E+03  0.41800000000E+01 0.  1.
         -5    1    3    3    0  502 -0.46047276519E+02  0.61180881359E+01  0.38357776231E+03  0.38640284007E+03  0.41800000000E+01 0.  1.
        -11    1    1    2    0    0  0.79223557816E+00  0.61739316431E+02  0.63084008597E+02  0.88272096222E+02  0.00000000000E+00 0.  1.
         11    1    1    2    0    0  0.94186766133E+02  0.49785951178E+02  0.13330427051E+03  0.17064529406E+03  0.00000000000E+00 0. -1.
</event>
<event>
 7    1  0.2530765E-009  0.1002127E+03  0.7561462E-02  0.1279849E+00
         -4   -1    0    0    0  501 -0.00000000000E+00  0.00000000000E+00  0.44848985041E+03  0.44848985041E+03  0.00000000000E+00 0.  1.
          4   -1    0    0  501    0  0.00000000000E+00 -0.00000000000E+00 -0.41845652482E+02  0.41845652482E+02  0.00000000000E+00 0. -1.
         25    2    1    2    0    0 -0.13670503269E+02  0.20824591849E+02  0.36776526519E+03  0.38925593237E+03  0.12509334242E+03 0.  0.
          5    1    3    3  502    0  0.32341728937E+02 -0.37675336205E+02  0.19148733667E+03  0.19786432446E+03  0.41800000000E+01 0.  1.
         -5    1    3    3    0  502 -0.46012232205E+02  0.58499928054E+02  0.17627792853E+03  0.19139160792E+03  0.41800000000E+01 0.  1.
        -11    1    1    2    0    0 -0.29621496802E+02 -0.11448066367E+02  0.46322375505E+02  0.56162743600E+02  0.00000000000E+00 0.  1.
         11    1    1    2    0    0  0.43292000070E+02 -0.93765254818E+01 -0.74434427711E+01  0.44916826919E+02  0.00000000000E+00 0. -1.
</event>
<event>
 7    1  0.2530765E-009  0.2172232E+03  0.7561462E-02  0.1135970E+00
          1   -1    0    0  501    0  0.00000000000E+00  0.00000000000E+00  0.24098544400E+03  0.24098544400E+03  0.00000000000E+00 0. -1.
         -1   -1    0    0    0  501 -0.00000000000E+00 -0.00000000000E+00 -0.22639992328E+03  0.22639992328E+03  0.00000000000E+00 0.  1.
         25    2    1    2    0    0 -0.14863971051E+03  0.13452177868E+03  0.62388765712E+02  0.24439707319E+03  0.12509076233E+03 0.  0.
          5    1    3    3  502    0 -0.37353856934E+02 -0.15011585601E+02  0.39494451549E+02  0.56550353078E+02  0.41800000000E+01 0. -1.
         -5    1    3    3    0  502 -0.11128585357E+03  0.14953336428E+03  0.22894314163E+02  0.18784672011E+03  0.41800000000E+01 0. -1.
        -11    1    1    2    0    0  0.48294976282E+02 -0.79678072313E+02 -0.55371965125E+02  0.10838382934E+03  0.00000000000E+00 0.  1.
         11    1    1    2    0    0  0.10034473422E+03 -0.54843706363E+02  0.75687201300E+01  0.11460446474E+03  0.00000000000E+00 0. -1.
</event>
<event>
 7    1  0.2530765E-009  0.1066539E+03  0.7561462E-02  0.1266895E+00
         -1   -1    0    0    0  501 -0.00000000000E+00  0.00000000000E+00  0.64806745689E+03  0.64806745689E+03  0.00000000000E+00 0.  1.
          1   -1    0    0  501    0  0.00000000000E+00 -0.00000000000E+00 -0.20927785090E+02  0.20927785090E+02  0.00000000000E+00 0. -1.
         25    2    1    2    0    0 -0.22507251184E+01 -0.37351895554E+02  0.45301458969E+03  0.47145597184E+03  0.12509310553E+03 0.  0.
          5    1    3    3  502    0 -0.27972493933E+02 -0.73137588468E+02  0.36003910875E+03  0.36847957812E+03  0.41800000000E+01 0. -1.
         -5    1    3    3    0  502  0.25721768815E+02  0.35785692914E+02  0.92975480940E+02  0.10297639372E+03  0.41800000000E+01 0. -1.
        -11    1    1    2    0    0  0.33100503167E+02  0.47721640624E+02  0.13274402427E+03  0.14489297524E+03  0.00000000000E+00 0.  1.
         11    1    1    2    0    0 -0.30849778049E+02 -0.10369745069E+02  0.41381057839E+02  0.52646294896E+02  0.00000000000E+00 0. -1.
</event>
<event>
 7    1  0.2530765E-009  0.1381817E+03  0.7561462E-02  0.1215797E+00
         -2   -1    0    0    0  501 -0.00000000000E+00  0.00000000000E+00  0.34137759039E+02  0.34137759039E+02  0.00000000000E+00 0.  1.
          2   -1    0    0  501    0  0.00000000000E+00 -0.00000000000E+00 -0.77240695445E+03  0.77240695445E+03  0.00000000000E+00 0. -1.
         25    2    1    2    0    0  0.24777511245E+01 -0.11975081581E+03 -0.44579719886E+03  0.47825625280E+03  0.12508998238E+03 0.  0.
          5    1    3    3  502    0 -0.14949263400E+02  0.62367716935E+01 -0.23281226987E+01  0.16889948273E+02  0.41800000000E+01 0.  1.
         -5    1    3    3    0  502  0.17427014524E+02 -0.12598758751E+03 -0.44346907617E+03  0.46136630453E+03  0.41800000000E+01 0.  1.
        -11    1    1    2    0    0  0.26945861908E+02  0.60216002288E+02 -0.70310462593E+02  0.96413731157E+02  0.00000000000E+00 0.  1.
         11    1    1    2    0    0 -0.29423613032E+02  0.59534813527E+02 -0.22216153396E+03  0.23187472953E+03  0.00000000000E+00 0. -1.
</event>
<event>
 7    1  0.2530765E-009  0.1106537E+03  0.7561462E-02  0.1259364E+00
          1   -1    0    0  501    0  0.00000000000E+00  0.00000000000E+00  0.64915781527E+02  0.64915781527E+02  0.00000000000E+00 0. -1.
         -1   -1    0    0    0  501 -0.00000000000E+00 -0.00000000000E+00 -0.27319451673E+03  0.27319451673E+03  0.00000000000E+00 0.  1.
         25    2    1    2    0    0  0.27725016274E+01  0.52078978690E+02 -0.42333140787E+02  0.14198444879E+03  0.12509029580E+03 0.  0.
          5    1    3    3  502    0  0.53757952493E+02  0.35372957483E+02 -0.57149655268E+02  0.86166809588E+02  0.41800000000E+01 0.  1.
         -5    1    3    3    0  502 -0.50985450866E+02  0.16706021207E+02  0.14816514481E+02  0.55817639200E+02  0.41800000000E+01 0.  1.
        -11    1    1    2    0    0  0.18208498595E+02 -0.71882989359E+02 -0.10334158484E+03  0.12719354047E+03  0.00000000000E+00 0.  1.
         11    1    1    2    0    0 -0.20981000222E+02  0.19804010669E+02 -0.62604009574E+02  0.68932308997E+02  0.00000000000E+00 0. -1.
</event>
<event>
 7    1  0.2530765E-009  0.1179677E+03  0.7561462E-02  0.1246488E+00
          2   -1    0    0  501    0  0.00000000000E+00  0.00000000000E+00  0.69371831174E+03  0.69371831174E+03  0.00000000000E+00 0. -1.
         -2   -1    0    0    0  501 -0.00000000000E+00 -0.00000000000E+00 -0.39345817350E+02  0.39345817350E+02  0.00000000000E+00 0.  1.
         25    2    1    2    0    0 -0.60036166637E+02 -0.12044348183E+01  0.59191390009E+03  0.60796023734E+03  0.12509113914E+03 0.  0.
          5    1    3    3  502    0  0.23194131449E+02  0.39508302946E+02  0.19381915152E+03  0.19920393980E+03  0.41800000000E+01 0. -1.
         -5    1    3    3    0  502 -0.83230298086E+02 -0.40712737764E+02  0.39809474858E+03  0.40875629754E+03  0.41800000000E+01 0. -1.
        -11    1    1    2    0    0  0.78429381628E+02 -0.22812457567E+01  0.23541263665E+02  0.81918026586E+02  0.00000000000E+00 0.  1.
         11    1    1    2    0    0 -0.18393214991E+02  0.34856805750E+01  0.38917330626E+02  0.43185865162E+02  0.00000000000E+00 0. -1.
</event>
<event>
 7    1  0.3342249E-009  0.1080814E+03  0.7561462E-02  0.1264165E+00
          3   -1    0    0  501    0  0.00000000000E+00  0.00000000000E+00  0.14374666641E+03  0.14374666641E+03  0.00000000000E+00 0. -1.
         -3   -1    0    0    0  501 -0.00000000000E+00 -0.00000000000E+00 -0.95600292689E+02  0.95600292689E+02  0.00000000000E+00 0.  1.
         25    2    1    2    0    0  0.39301089485E+02 -0.17786855642E+02  0.15937795973E+02  0.13327856009E+03  0.12509281902E+03 0.  0.
          5    1    3    3  502    0 -0.39011530251E+02  0.10923183405E+02  0.27248917423E+02  0.49001952297E+02  0.41800000000E+01 0.  1.
         -5    1    3    3    0  502  0.78312619736E+02 -0.28710039047E+02 -0.11311121449E+02  0.84276607789E+02  0.41800000000E+01 0.  1.
        -11    1    1    2    0    0 -0.69168635935E+01 -0.31884397124E+02 -0.90178444281E+01  0.33849361886E+02  0.00000000000E+00 0.  1.
         11    1    1    2    0    0 -0.32384225892E+02  0.49671252766E+02  0.41226422175E+02  0.72219037125E+02  0.00000000000E+00 0. -1.
</event>
<event>
 7    1  0.2530765E-009  0.8914141E+02  0.7561462E-02  0.1304944E+00
          1   -1    0    0  501    0  0.00000000000E+00  0.00000000000E+00  0.52186637064E+03  0.52186637064E+03  0.00000000000E+00 0. -1.
         -1   -1    0    0    0  501 -0.00000000000E+00 -0.00000000000E+00 -0.24213381158E+02  0.24213381158E+02  0.00000000000E+00 0.  1.
         25    2    1    2    0    0  0.57527293929E+01  0.18371094235E+02  0.23069582378E+03  0.26313252980E+03  0.12509026394E+03 0.  0.
          5    1    3    3  502    0  0.62087267328E+00  0.51714958341E+02  0.22208309228E+03  0.22806401443E+03  0.41800000000E+01 0. -1.
         -5    1    3    3    0  502  0.51318567196E+01 -0.33343864106E+02  0.86127314989E+01  0.35068515378E+02  0.41800000000E+01 0. -1.
        -11    1    1    2    0    0  0.39981045555E+02  0.62409555722E+01  0.93475698794E+02  0.10185843016E+03  0.00000000000E+00 0. -1.
         11    1    1    2    0    0 -0.45733774948E+02 -0.24612049807E+02  0.17348146691E+03  0.18108879183E+03  0.00000000000E+00 0.  1.
</event>
<event>
 7    1  0.2530765E-009  0.9534490E+02  0.7561462E-02  0.1290401E+00
         -1   -1    0    0    0  501 -0.00000000000E+00  0.00000000000E+00  0.11869621270E+03  0.11869621270E+03  0.00000000000E+00 0.  1.
          1   -1    0    0  501    0  0.00000000000E+00 -0.00000000000E+00 -0.11104264617E+03  0.11104264617E+03  0.00000000000E+00 0. -1.
         25    2    1    2    0    0 -0.35191238919E+02  0.41430540869E+02  0.15153942533E+02  0.13723165326E+03  0.12509185293E+03 0.  0.
          5    1    3    3  502    0 -0.19064092848E+02  0.68865227854E+02  0.51920813751E+02  0.88425689390E+02  0.41800000000E+01 0. -1.
         -5    1    3    3    0  502 -0.16127146071E+02 -0.27434686985E+02 -0.36766871217E+02  0.48805963872E+02  0.41800000000E+01 0. -1.
        -11    1    1    2    0    0  0.44349451682E+02  0.24016565740E+00  0.11478120043E+02  0.45811339031E+02  0.00000000000E+00 0.  1.
         11    1    1    2    0    0 -0.91582127631E+01 -0.41670706526E+02 -0.18978496045E+02  0.46695866579E+02  0.00000000000E+00 0. -1.
</event>
<event>
 7    1  0.2530765E-009  0.1049696E+03  0.7561462E-02  0.1270179E+00
          1   -1    0    0  501    0  0.00000000000E+00  0.00000000000E+00  0.30031305961E+03  0.30031305961E+03  0.00000000000E+00 0. -1.
         -1   -1    0    0    0  501 -0.00000000000E+00 -0.00000000000E+00 -0.67194391324E+02  0.67194391324E+02  0.00000000000E+00 0.  1.
         25    2    1    2    0    0 -0.26638460987E+02  0.74227682130E+02  0.66775837477E+02  0.16225277568E+03  0.12509034474E+03 0.  0.
          5    1    3    3  502    0 -0.43894400418E+02  0.47911054676E+02  0.98042736702E+02  0.11769468199E+03  0.41800000000E+01 0. -1.
         -5    1    3    3    0  502  0.17255939432E+02  0.26316627454E+02 -0.31266899226E+02  0.44558093692E+02  0.41800000000E+01 0. -1.
        -11    1    1    2    0    0  0.15867239739E+02  0.15811033768E+02  0.10029891327E+02  0.24542958375E+02  0.00000000000E+00 0.  1.
         11    1    1    2    0    0  0.10771221248E+02 -0.90038715898E+02  0.15631293948E+03  0.18071171687E+03  0.00000000000E+00 0. -1.
</event>
<event>
 7    1  0.2530765E-009  0.1112840E+03  0.7561462E-02  0.1258210E+00
          3   -1    0    0  501    0  0.00000000000E+00  0.00000000000E+00  0.47990318744E+02  0.47990318744E+02  0.00000000000E+00 0. -1.
         -3   -1    0    0    0  501 -0.00000000000E+00 -0.00000000000E+00 -0.37702291369E+03  0.37702291369E+03  0.00000000000E+00 0.  1.
         25    2    1    2    0    0  0.74349162588E+02  0.22514453354E+02 -0.20161830268E+03  0.24966457365E+03  0.12509100996E+03 0.  0.
          5    1    3    3  502    0  0.10655550186E+03  0.16052072666E+02 -0.11865881718E+03  0.16034067266E+03  0.41800000000E+01 0. -1.
         -5    1    3    3    0  502 -0.32206339274E+02  0.64623806878E+01 -0.82959485498E+02  0.89323900988E+02  0.41800000000E+01 0. -1.
        -11    1    1    2    0    0 -0.56979823011E+02 -0.27882465783E+02 -0.13968537708E+03  0.15341491681E+03  0.00000000000E+00 0.  1.
         11    1    1    2    0    0 -0.17369339576E+02  0.53680124289E+01  0.12271084814E+02  0.21933741981E+02  0.00000000000E+00 0. -1.
</event>
<event>
 7    1  0.2530765E-009  0.5865197E+02  0.7561462E-02  0.1403577E+00
          2   -1    0    0  501    0  0.00000000000E+00  0.00000000000E+00  0.31489356108E+03  0.31489356108E+03  0.00000000000E+00 0. -1.
         -2   -1    0    0    0  501 -0.00000000000E+00 -0.00000000000E+00 -0.46951165475E+02  0.46951165475E+02  0.00000000000E+00 0.  1.
         25    2    1    2    0    0  0.19202857076E+02 -0.11011412044E+02  0.22618655301E+03  0.25941898452E+03  0.12509137402E+03 0.  0.
          5    1    3    3  502    0  0.38609290777E+02  0.41472925282E+01  0.80747937902E+01  0.39881725946E+02  0.41800000000E+01 0.  1.
         -5    1    3    3    0  502 -0.19406433702E+02 -0.15158704573E+02  0.21811175922E+03  0.21953725858E+03  0.41800000000E+01 0.  1.
        -11    1    1    2    0    0  0.12836975084E+02 -0.88338706933E+01 -0.22834018572E+02  0.27644485976E+02  0.00000000000E+00 0.  1.
         11    1    1    2    0    0 -0.32039832160E+02  0.19845282738E+02  0.64589861164E+02  0.74781256053E+02  0.00000000000E+00 0. -1.
</event>
<event>
 7    1  0.2530765E-009  0.1629993E+03  0.7561462E-02  0.1185352E+00
          1   -1    0    0  501    0  0.00000000000E+00  0.00000000000E+00  0.31966766325E+03  0.31966766325E+03  0.00000000000E+00 0. -1.
         -1   -1    0    0    0  501 -0.00000000000E+00 -0.00000000000E+00 -0.95241237380E+02  0.95241237380E+02  0.00000000000E+00 0.  1.
         25    2    1    2    0    0 -0.24234975982E+02 -0.12920888594E+03  0.71041066479E+02  0.19487430984E+03  0.12508754232E+03 0.  0.
          5    1    3    3  502    0 -0.69557246923E+02 -0.10294499212E+03  0.29180714567E+02  0.12769051846E+03  0.41800000000E+01 0.  1.
         -5    1    3    3    0  502  0.45322270942E+02 -0.26263893818E+02  0.41860351912E+02  0.67183791378E+02  0.41800000000E+01 0.  1.
        -11    1    1    2    0    0  0.48785499038E+02  0.97614370109E+02  0.14070178513E+03  0.17806061470E+03  0.00000000000E+00 0.  1.
         11    1    1    2    0    0 -0.24550523056E+02  0.31594515831E+02  0.12683574262E+02  0.41973976092E+02  0.00000000000E+00 0. -1.
</event>
<event>
 7    1  0.2530765E-009  0.1127266E+03  0.7561462E-02  0.1255602E+00
         -1   -1    0    0    0  501 -0.00000000000E+00  0.00000000000E+00  0.12833697590E+03  0.12833697590E+03  0.00000000000E+00 0.  1.
          1   -1    0    0  501    0  0.00000000000E+00 -0.00000000000E+00 -0.22212179755E+03  0.22212179755E+03  0.00000000000E+00 0. -1.
         25    2    1    2    0    0 -0.73762223221E+02 -0.71868490556E+02  0.30554910292E+02  0.16488549678E+03  0.12509068309E+03 0.  0.
          5    1    3    3  502    0 -0.36632476255E+02 -0.76384497178E+02  0.70288565270E+02  0.11015663636E+03  0.41800000000E+01 0. -1.
         -5    1    3    3    0  502 -0.37129746966E+02  0.45160066217E+01 -0.39733654978E+02  0.54728860425E+02  0.41800000000E+01 0. -1.
        -11    1    1    2    0    0  0.13182845949E+02  0.13778107476E+02  0.14074355598E+02  0.23700446377E+02  0.00000000000E+00 0.  1.
         11    1    1    2    0    0  0.60579377272E+02  0.58090383080E+02 -0.13841408754E+03  0.16187283029E+03  0.00000000000E+00 0. -1.
</event>
<event>
 7    1  0.2530765E-009  0.1543548E+03  0.7561462E-02  0.1195222E+00
         -2   -1    0    0    0  501 -0.00000000000E+00  0.00000000000E+00  0.43961223652E+02  0.43961223652E+02  0.00000000000E+00 0.  1.
          2   -1    0    0  501    0  0.00000000000E+00 -0.00000000000E+00 -0.59779704514E+03  0.59779704514E+03  0.00000000000E+00 0. -1.
         25    2    1    2    0    0 -0.45374391506E+02 -0.10801530861E+03 -0.23415531068E+03  0.29017940409E+03  0.12509690139E+03 0.  0.
          5    1    3    3  502    0  0.82717328982E+00  0.26519145567E+02 -0.22015204502E+02  0.34728819826E+02  0.41800000000E+01 0. -1.
         -5    1    3    3    0  502 -0.46201564795E+02 -0.13453445417E+03 -0.21214010618E+03  0.25545058426E+03  0.41800000000E+01 0. -1.
        -11    1    1    2    0    0 -0.75934341443E+01  0.78578174598E+02 -0.12645528626E+03  0.14907424052E+03  0.00000000000E+00 0.  1.
         11    1    1    2    0    0  0.52967825650E+02  0.29437134008E+02 -0.19322522454E+03  0.20250462418E+03  0.00000000000E+00 0. -1.
</event>
<event>
 7    1  0.2530765E-009  0.1230607E+03  0.7561462E-02  0.1238132E+00
         -1   -1    0    0    0  501 -0.00000000000E+00  0.00000000000E+00  0.16263281750E+02  0.16263281750E+02  0.00000000000E+00 0.  1.
          1   -1    0    0  501    0  0.00000000000E+00 -0.00000000000E+00 -0.95287971578E+03  0.95287971578E+03  0.00000000000E+00 0. -1.
         25    2    1    2    0    0  0.50707106411E+02 -0.19536488248E+02 -0.58258924087E+03  0.59833994487E+03  0.12509029154E+03 0.  0.
          5    1    3    3  502    0 -0.59681775101E+01  0.47745563502E+02 -0.20217547433E+03  0.20786450587E+03  0.41800000000E+01 0.  1.
         -5    1    3    3    0  502  0.56675283921E+02 -0.67282051751E+02 -0.38041376653E+03  0.39047543900E+03  0.41800000000E+01 0.  1.
        -11    1    1    2    0    0  0.21541098966E+02  0.29808968687E+02 -0.10222020891E+03  0.10863500664E+03  0.00000000000E+00 0.  1.
         11    1    1    2    0    0 -0.72248205377E+02 -0.10272480439E+02 -0.25180698426E+03  0.26216804602E+03  0.00000000000E+00 0. -1.
</event>
<event>
 7    1  0.2530765E-009  0.1129307E+03  0.7561462E-02  0.1255237E+00
          1   -1    0    0  501    0  0.00000000000E+00  0.00000000000E+00  0.54616607489E+03  0.54616607489E+03  0.00000000000E+00 0. -1.
         -1   -1    0    0    0  501 -0.00000000000E+00 -0.00000000000E+00 -0.41132808648E+02  0.41132808648E+02  0.00000000000E+00 0.  1.
         25    2    1    2    0    0  0.70031225939E+02  0.10277358272E+02  0.42138464820E+03  0.44522200282E+03  0.12509042072E+03 0.  0.
          5    1    3    3  502    0 -0.22593042777E+02  0.15343793288E+02  0.22382485725E+02  0.35557357067E+02  0.41800000000E+01 0. -1.
         -5    1    3    3    0  502  0.92624268715E+02 -0.50664350155E+01  0.39900216248E+03  0.40966464575E+03  0.41800000000E+01 0. -1.
        -11    1    1    2    0    0 -0.24256215019E+02 -0.42819225520E+02  0.67692974836E+02  0.83691032275E+02  0.00000000000E+00 0. -1.
         11    1    1    2    0    0 -0.45775010919E+02  0.32541867248E+02  0.15955643208E+02  0.58385848446E+02  0.00000000000E+00 0.  1.
</event>
<event>
 7    1  0.2530765E-009  0.9901009E+02  0.7561462E-02  0.1282391E+00
          2   -1    0    0  501    0  0.00000000000E+00  0.00000000000E+00  0.65505749500E+02  0.65505749500E+02  0.00000000000E+00 0. -1.
         -2   -1    0    0    0  501 -0.00000000000E+00 -0.00000000000E+00 -0.27456750047E+03  0.27456750047E+03  0.00000000000E+00 0.  1.
         25    2    1    2    0    0  0.71180954617E+02 -0.31900346212E+01 -0.76379011389E+02  0.16297015160E+03  0.12509441359E+03 0.  0.
          5    1    3    3  502    0  0.55212135164E+02 -0.22286246422E+02  0.20304453473E+02  0.63046013988E+02  0.41800000000E+01 0. -1.
         -5    1    3    3    0  502  0.15968819454E+02  0.19096211801E+02 -0.96683464862E+02  0.99924137612E+02  0.41800000000E+01 0. -1.
        -11    1    1    2    0    0  0.16872697228E+02  0.17011319644E+02 -0.50367532492E+02  0.55775991584E+02  0.00000000000E+00 0.  1.
         11    1    1    2    0    0 -0.88053651845E+02 -0.13821285023E+02 -0.82315207091E+02  0.12132710679E+03  0.00000000000E+00 0. -1.
</event>
<event>
 7    1  0.2530765E-009  0.1343910E+03  0.7561462E-02  0.1221082E+00
          1   -1    0    0  501    0  0.00000000000E+00  0.00000000000E+00  0.46258912524E+03  0.46258912524E+03  0.00000000000E+00 0. -1.
         -1   -1    0    0    0  501 -0.00000000000E+00 -0.00000000000E+00 -0.60402004156E+02  0.60402004156E+02  0.00000000000E+00 0.  1.
         25    2    1    2    0    0  0.79252067925E+02 -0.21574890529E+02  0.62998618636E+02  0.16236647724E+03  0.12509069034E+03 0.  0.
          5    1    3    3  502    0  0.87403580101E+02  0.31896157464E+02  0.53136107662E+02  0.10722718411E+03  0.41800000000E+01 0. -1.
         -5    1    3    3    0  502 -0.81515121763E+01 -0.53471047993E+02  0.98625109748E+01  0.55139293130E+02  0.41800000000E+01 0. -1.
        -11    1    1    2    0    0 -0.42498422316E+02  0.56497442235E+02  0.17343039745E+03  0.18728635732E+03  0.00000000000E+00 0. -1.
         11    1    1    2    0    0 -0.36753645609E+02 -0.34922551706E+02  0.16575810500E+03  0.17333829483E+03  0.00000000000E+00 0.  1.
</event>
<event>
 7    1  0.2530765E-009  0.1127285E+03  0.7561462E-02  0.1255599E+00
          1   -1    0    0  501    0  0.00000000000E+00  0.00000000000E+00  0.49594462517E+03  0.49594462517E+03  0.00000000000E+00 0. -1.
         -1   -1    0    0    0  501 -0.00000000000E+00 -0.00000000000E+00 -0.35789921971E+02  0.35789921971E+02  0.00000000000E+00 0.  1.
         25    2    1    2    0    0 -0.55177110341E+02 -0.53876862404E+02  0.25528142653E+03  0.29455462282E+03  0.12508632732E+03 0.  0.
          5    1    3    3  502    0 -0.89883334320E+02 -0.54580108889E+02  0.22461628228E+03  0.24804827906E+03  0.41800000000E+01 0.  1.
         -5    1    3    3    0  502  0.34706223979E+02  0.70324648454E+00  0.30665144246E+02  0.46506343762E+02  0.41800000000E+01 0.  1.
        -11    1    1    2    0    0  0.33096689609E+02  0.75704834527E+01  0.96034052349E+01  0.35283543967E+02  0.00000000000E+00 0.  1.
         11    1    1    2    0    0  0.22080420732E+02  0.46306378951E+02  0.19526987144E+03  0.20189638036E+03  0.00000000000E+00 0. -1.
</event>
<event>
 7    1  0.2530765E-009  0.1477761E+03  0.7561462E-02  0.1203233E+00
          2   -1    0    0  501    0  0.00000000000E+00  0.00000000000E+00  0.55500247294E+03  0.55500247294E+03  0.00000000000E+00 0. -1.
         -2   -1    0    0    0  501 -0.00000000000E+00 -0.00000000000E+00 -0.41066850270E+02  0.41066850270E+02  0.00000000000E+00 0.  1.
         25    2    1    2    0    0  0.71803895640E+02  0.72365422445E+02  0.22707576564E+03  0.27857341151E+03  0.12508872239E+03 0.  0.
          5    1    3    3  502    0 -0.60881121648E+01  0.81950237832E+02  0.12702897060E+03  0.15134972204E+03  0.41800000000E+01 0. -1.
         -5    1    3    3    0  502  0.77892007804E+02 -0.95848153874E+01  0.10004679503E+03  0.12722368947E+03  0.41800000000E+01 0. -1.
        -11    1    1    2    0    0 -0.50017596518E+01  0.20040670911E+02  0.62487083378E+02  0.65812473585E+02  0.00000000000E+00 0. -1.
         11    1    1    2    0    0 -0.66802135988E+02 -0.92406093356E+02  0.22437277366E+03  0.25168343811E+03  0.00000000000E+00 0.  1.
</event>
<event>
 7    1  0.2530765E-009  0.2212627E+03  0.7561462E-02  0.1132945E+00
         -1   -1    0    0    0  501 -0.00000000000E+00  0.00000000000E+00  0.55804042663E+02  0.55804042663E+02  0.00000000000E+00 0.  1.
          1   -1    0    0  501    0  0.00000000000E+00 -0.00000000000E+00 -0.11172010347E+04  0.11172010347E+04  0.00000000000E+00 0. -1.
         25    2    1    2    0    0  0.20015703508E+02 -0.21131602146E+03 -0.71542078171E+03  0.75665683568E+03  0.12509029846E+03 0.  0.
          5    1    3    3  502    0  0.16843121705E+02 -0.14276149020E+03 -0.26953698358E+03  0.30550317797E+03  0.41800000000E+01 0. -1.
         -5    1    3    3    0  502  0.31725818027E+01 -0.68554531261E+02 -0.44588379813E+03  0.45115365771E+03  0.41800000000E+01 0. -1.
        -11    1    1    2    0    0 -0.55069802933E+02  0.11622488431E+03 -0.21790265442E+03  0.25302662653E+03  0.00000000000E+00 0.  1.
         11    1    1    2    0    0  0.35054099426E+02  0.95091137151E+02 -0.12807355586E+03  0.16332161511E+03  0.00000000000E+00 0. -1.
</event>
<event>
 7    1  0.2530765E-009  0.1086616E+03  0.7561462E-02  0.1263069E+00
          3   -1    0    0  501    0  0.00000000000E+00  0.00000000000E+00  0.50516683904E+03  0.50516683904E+03  0.00000000000E+00 0. -1.
         -3   -1    0    0    0  501 -0.00000000000E+00 -0.00000000000E+00 -0.39419415795E+02  0.39419415795E+02  0.00000000000E+00 0.  1.
         25    2    1    2    0    0  0.48116696732E+02  0.68037666483E+02  0.31991205202E+03  0.35346112408E+03  0.12508678843E+03 0.  0.
          5    1    3    3  502    0  0.68366212131E+02  0.20494194708E+02  0.76981199279E+02  0.10505964221E+03  0.41800000000E+01 0.  1.
         -5    1    3    3    0  502 -0.20249515398E+02  0.47543471775E+02  0.24293085274E+03  0.24840148187E+03  0.41800000000E+01 0.  1.
        -11    1    1    2    0    0  0.47322438406E+01 -0.26076910754E+02  0.11302413255E+03  0.11608985289E+03  0.00000000000E+00 0. -1.
         11    1    1    2    0    0 -0.52848940573E+02 -0.41960755729E+02  0.32811238676E+02  0.75035277867E+02  0.00000000000E+00 0.  1.
</event>
<event>
 7    1  0.2530765E-009  0.7893341E+02  0.7561462E-02  0.1332106E+00
         -2   -1    0    0    0  501 -0.00000000000E+00  0.00000000000E+00  0.11120940343E+03  0.11120940343E+03  0.00000000000E+00 0.  1.
          2   -1    0    0  501    0  0.00000000000E+00 -0.00000000000E+00 -0.21522872273E+03  0.21522872273E+03  0.00000000000E+00 0. -1.
         25    2    1    2    0    0 -0.60593850033E+02 -0.12539674665E+02 -0.15207513547E+03  0.20640200841E+03  0.12508430815E+03 0.  0.
          5    1    3    3  502    0 -0.24275588655E+02 -0.75893662094E+01 -0.16523510373E+03  0.16723341349E+03  0.41800000000E+01 0. -1.
         -5    1    3    3    0  502 -0.36318261378E+02 -0.49503084556E+01  0.13159968261E+02  0.39168594919E+02  0.41800000000E+01 0. -1.
        -11    1    1    2    0    0 -0.16782161685E+02 -0.19179594874E+00  0.37278786770E+02  0.40882584062E+02  0.00000000000E+00 0.  1.
         11    1    1    2    0    0  0.77376011719E+02  0.12731470614E+02  0.10777029397E+02  0.79153533693E+02  0.00000000000E+00 0. -1.
</event>
<event>
 7    1  0.2530765E-009  0.8539196E+02  0.7561462E-02  0.1314411E+00
          2   -1    0    0  501    0  0.00000000000E+00  0.00000000000E+00  0.26785135015E+03  0.26785135015E+03  0.00000000000E+00 0.  1.
         -2   -1    0    0    0  501 -0.00000000000E+00 -0.00000000000E+00 -0.58128708964E+02  0.58128708964E+02  0.00000000000E+00 0. -1.
         25    2    1    2    0    0 -0.48456989287E+01  0.37313779452E+02  0.61694249835E+02  0.14446175567E+03  0.12508884623E+03 0.  0.
          5    1    3    3  502    0 -0.20799227754E+02  0.49925903240E+02 -0.21771662828E+02  0.58452385681E+02  0.41800000000E+01 0. -1.
         -5    1    3    3    0  502  0.15953528825E+02 -0.12612123788E+02  0.83465912664E+02  0.86009369985E+02  0.41800000000E+01 0. -1.
        -11    1    1    2    0    0 -0.22983973753E+02  0.21018094067E+02  0.87855501761E+02  0.93212727229E+02  0.00000000000E+00 0.  1.
         11    1    1    2    0    0  0.27829672682E+02 -0.58331873519E+02  0.60172889590E+02  0.88305576220E+02  0.00000000000E+00 0. -1.
</event>
<event>
 7    1  0.2530765E-009  0.8940507E+02  0.7561462E-02  0.1304299E+00
          1   -1    0    0  501    0  0.00000000000E+00  0.00000000000E+00  0.92324515411E+02  0.92324515411E+02  0.00000000000E+00 0. -1.
         -1   -1    0    0    0  501 -0.00000000000E+00 -0.00000000000E+00 -0.23652890441E+03  0.23652890441E+03  0.00000000000E+00 0.  1.
         25    2    1    2    0    0 -0.34644323049E+02  0.59437956505E+02  0.27415940926E+01  0.14278277151E+03  0.12508518581E+03 0.  0.
          5    1    3    3  502    0 -0.43214915452E+02  0.57902308365E+02 -0.50771603485E+02  0.88404945291E+02  0.41800000000E+01 0. -1.
         -5    1    3    3    0  502  0.85705924024E+01  0.15356481397E+01  0.53513197578E+02  0.54377826219E+02  0.41800000000E+01 0. -1.
        -11    1    1    2    0    0 -0.16265052389E+00 -0.61886666262E+02 -0.13613420061E+03  0.14954098599E+03  0.00000000000E+00 0.  1.
         11    1    1    2    0    0  0.34806973573E+02  0.24487097572E+01 -0.10811782485E+02  0.36529662321E+02  0.00000000000E+00 0. -1.
</event>
<event>
 7    1  0.2530765E-009  0.9629919E+02  0.7561462E-02  0.1288277E+00
          2   -1    0    0  501    0  0.00000000000E+00  0.00000000000E+00  0.78718550581E+03  0.78718550581E+03  0.00000000000E+00 0. -1.
         -2   -1    0    0    0  501 -0.00000000000E+00 -0.00000000000E+00 -0.23348209394E+02  0.23348209394E+02  0.00000000000E+00 0.  1.
         25    2    1    2    0    0  0.66356116125E+02  0.46023923450E+02  0.39214288442E+03  0.41945800764E+03  0.12509053801E+03 0.  0.
          5    1    3    3  502    0  0.57736838345E+02  0.28242485268E+02  0.39394904714E+03  0.39917978985E+03  0.41800000000E+01 0.  1.
         -5    1    3    3    0  502  0.86192777799E+01  0.17781438182E+02 -0.18061627252E+01  0.20278217798E+02  0.41800000000E+01 0.  1.
        -11    1    1    2    0    0 -0.50625831841E+02  0.84187818963E+01  0.26835004705E+03  0.27321346689E+03  0.00000000000E+00 0. -1.
         11    1    1    2    0    0 -0.15730284284E+02 -0.54442705346E+02  0.10334436494E+03  0.11786224067E+03  0.00000000000E+00 0.  1.
</event>
<event>
 7    1  0.2530765E-009  0.1085631E+03  0.7561462E-02  0.1263254E+00
         -1   -1    0    0    0  501 -0.00000000000E+00  0.00000000000E+00  0.16234921039E+03  0.16234921039E+03  0.00000000000E+00 0.  1.
          1   -1    0    0  501    0  0.00000000000E+00 -0.00000000000E+00 -0.19996517142E+03  0.19996517142E+03  0.00000000000E+00 0. -1.
         25    2    1    2    0    0  0.29205345833E+02 -0.79059067166E+02 -0.13211264501E+03  0.20051168972E+03  0.12509156014E+03 0.  0.
          5    1    3    3  502    0  0.32808695011E+02 -0.40024842589E+02 -0.14887813635E+03  0.15767235133E+03  0.41800000000E+01 0.  1.
         -5    1    3    3    0  502 -0.36033491783E+01 -0.39034224577E+02  0.16765491341E+02  0.42839338388E+02  0.41800000000E+01 0.  1.
        -11    1    1    2    0    0 -0.14079364894E+01 -0.21451890878E+02  0.64838875217E+00  0.21507819866E+02  0.00000000000E+00 0. -1.
         11    1    1    2    0    0 -0.27797409344E+02  0.10051095804E+03  0.93848295224E+02  0.14029487221E+03  0.00000000000E+00 0.  1.
</event>
<event>
 7    1  0.2530765E-009  0.1282476E+03  0.7561462E-02  0.1230079E+00
         -1   -1    0    0    0  501 -0.00000000000E+00  0.00000000000E+00  0.51209562948E+02  0.51209562948E+02  0.00000000000E+00 0.  1.
          1   -1    0    0  501    0  0.00000000000E+00 -0.00000000000E+00 -0.46756642145E+03  0.46756642145E+03  0.00000000000E+00 0. -1.
         25    2    1    2    0    0  0.37059868109E+02 -0.91305343962E+02 -0.13719752125E+03  0.21019111831E+03  0.12508815579E+03 0.  0.
          5    1    3    3  502    0 -0.24286060940E+02 -0.59001883565E+02 -0.92507188594E+01  0.64607145267E+02  0.41800000000E+01 0. -1.
         -5    1    3    3    0  502  0.61345929049E+02 -0.32303460398E+02 -0.12794680239E+03  0.14558397304E+03  0.41800000000E+01 0. -1.
        -11    1    1    2    0    0  0.21137652775E+02  0.41180454909E+02 -0.56442931010E+02  0.72996127927E+02  0.00000000000E+00 0.  1.
         11    1    1    2    0    0 -0.58197520884E+02  0.50124889053E+02 -0.22271640624E+03  0.23558873816E+03  0.00000000000E+00 0. -1.
</event>
<event>
 7    1  0.2530765E-009  0.7731758E+02  0.7561462E-02  0.1336841E+00
          1   -1    0    0  501    0  0.00000000000E+00  0.00000000000E+00  0.40401202057E+03  0.40401202057E+03  0.00000000000E+00 0. -1.
         -1   -1    0    0    0  501 -0.00000000000E+00 -0.00000000000E+00 -0.58993461502E+02  0.58993461502E+02  0.00000000000E+00 0.  1.
         25    2    1    2    0    0 -0.33716163167E+02  0.53624335437E+01  0.35148415525E+03  0.37463765827E+03  0.12508688281E+03 0.  0.
          5    1    3    3  502    0  0.35911289211E+02  0.29363229311E+02  0.20972129424E+03  0.21483089532E+03  0.41800000000E+01 0. -1.
         -5    1    3    3    0  502 -0.69627452378E+02 -0.24000795767E+02  0.14176286101E+03  0.15980676294E+03  0.41800000000E+01 0. -1.
        -11    1    1    2    0    0  0.21782177976E+02 -0.18895530974E+01  0.37100376153E+02  0.43063576244E+02  0.00000000000E+00 0. -1.
         11    1    1    2    0    0  0.11933985192E+02 -0.34728804464E+01 -0.43565972335E+02  0.45304247556E+02  0.00000000000E+00 0.  1.
</event>
<event>
 7    1  0.2530765E-009  0.1032473E+03  0.7561462E-02  0.1273612E+00
         -1   -1    0    0    0  501 -0.00000000000E+00  0.00000000000E+00  0.19672987878E+02  0.19672987878E+02  0.00000000000E+00 0.  1.
          1   -1    0    0  501    0  0.00000000000E+00 -0.00000000000E+00 -0.87870056380E+03  0.87870056380E+03  0.00000000000E+00 0. -1.
         25    2    1    2    0    0 -0.40420460149E+02  0.23217395104E+02 -0.63254869242E+03  0.64648177216E+03  0.12509185589E+03 0.  0.
          5    1    3    3  502    0 -0.82986164780E+02  0.26262254264E+02 -0.34930735171E+03  0.36001320518E+03  0.41800000000E+01 0.  1.
         -5    1    3    3    0  502  0.42565704632E+02 -0.30448591606E+01 -0.28324134071E+03  0.28646856697E+03  0.41800000000E+01 0.  1.
        -11    1    1    2    0    0  0.29681490860E+02  0.17436788511E+02 -0.19831963370E+03  0.20128514502E+03  0.00000000000E+00 0. -1.
         11    1    1    2    0    0  0.10738969289E+02 -0.40654183615E+02 -0.28159249803E+02  0.50606634508E+02  0.00000000000E+00 0.  1.
</event>
<event>
 7    1  0.2530765E-009  0.1048954E+03  0.7561462E-02  0.1270326E+00
         -3   -1    0    0    0  501 -0.00000000000E+00  0.00000000000E+00  0.78476273563E+02  0.78476273563E+02  0.00000000000E+00 0.  1.
          3   -1    0    0  501    0  0.00000000000E+00 -0.00000000000E+00 -0.24605438808E+03  0.24605438808E+03  0.00000000000E+00 0. -1.
         25    2    1    2    0    0  0.52328132909E+02 -0.84684403549E+01 -0.11529305504E+02  0.13634860106E+03  0.12509223856E+03 0.  0.
          5    1    3    3  502    0 -0.32597197388E+02  0.26769368998E+02 -0.12871507709E+02  0.44298132069E+02  0.41800000000E+01 0.  1.
         -5    1    3    3    0  502  0.84925330298E+02 -0.35237809353E+02  0.13422022049E+01  0.92050468988E+02  0.41800000000E+01 0.  1.
        -11    1    1    2    0    0 -0.15491940956E+02 -0.22446341749E+02 -0.26266003250E+01  0.27399589810E+02  0.00000000000E+00 0.  1.
         11    1    1    2    0    0 -0.36836191953E+02  0.30914782103E+02 -0.15342220869E+03  0.16078247078E+03  0.00000000000E+00 0. -1.
</event>
<event>
 7    1  0.2530765E-009  0.8035175E+02  0.7561462E-02  0.1328056E+00
          3   -1    0    0  501    0  0.00000000000E+00  0.00000000000E+00  0.46577665639E+03  0.46577665639E+03  0.00000000000E+00 0. -1.
         -3   -1    0    0    0  501 -0.00000000000E+00 -0.00000000000E+00 -0.27178719379E+02  0.27178719379E+02  0.00000000000E+00 0.  1.
         25    2    1    2    0    0 -0.14041269444E+02  0.78498615559E+01  0.32744470905E+03  0.35089496942E+03  0.12509382281E+03 0.  0.
          5    1    3    3  502    0  0.23631119746E+01 -0.32018805720E+02  0.15389803938E+02  0.35848384666E+02  0.41800000000E+01 0. -1.
         -5    1    3    3    0  502 -0.16404381419E+02  0.39868667276E+02  0.31205490512E+03  0.31504658476E+03  0.41800000000E+01 0. -1.
        -11    1    1    2    0    0 -0.39522811937E+01  0.36728218973E+02  0.68349578295E+02  0.77693290886E+02  0.00000000000E+00 0. -1.
         11    1    1    2    0    0  0.17993550638E+02 -0.44578080529E+02  0.42803649664E+02  0.64367115461E+02  0.00000000000E+00 0.  1.
</event>
<event>
 7    1  0.2530765E-009  0.8221133E+02  0.7561462E-02  0.1322891E+00
          2   -1    0    0  501    0  0.00000000000E+00  0.00000000000E+00  0.20700612042E+03  0.20700612042E+03  0.00000000000E+00 0.  1.
         -2   -1    0    0    0  501 -0.00000000000E+00 -0.00000000000E+00 -0.85251154329E+02  0.85251154329E+02  0.00000000000E+00 0. -1.
         25    2    1    2    0    0 -0.46365783206E+02  0.57008385155E+02  0.44722675847E+02  0.15181459658E+03  0.12509121539E+03 0.  0.
          5    1    3    3  502    0 -0.31223631740E+01  0.45766010305E+02 -0.36665949783E+02  0.58873942662E+02  0.41800000000E+01 0.  1.
         -5    1    3    3    0  502 -0.43243420032E+02  0.11242374850E+02  0.81388625630E+02  0.92940653916E+02  0.41800000000E+01 0.  1.
        -11    1    1    2    0    0  0.33726151618E+02 -0.41163727535E+02 -0.72953793781E+01  0.53713390582E+02  0.00000000000E+00 0. -1.
         11    1    1    2    0    0  0.12639631588E+02 -0.15844657620E+02  0.84327669628E+02  0.86729287594E+02  0.00000000000E+00 0.  1.
</event>
<event>
 7    1  0.2530765E-009  0.1159460E+03  0.7561462E-02  0.1249939E+00
          1   -1    0    0  501    0  0.00000000000E+00  0.00000000000E+00  0.22647105489E+03  0.22647105489E+03  0.00000000000E+00 0. -1.
         -1   -1    0    0    0  501 -0.00000000000E+00 -0.00000000000E+00 -0.95596493923E+02  0.95596493923E+02  0.00000000000E+00 0.  1.
         25    2    1    2    0    0 -0.65904935350E+02  0.72318411652E+02  0.51983149996E+02  0.16710611217E+03  0.12509513049E+03 0.  0.
          5    1    3    3  502    0 -0.65334539336E+02  0.27992483466E+02  0.85580202431E+02  0.11132665723E+03  0.41800000000E+01 0. -1.
         -5    1    3    3    0  502 -0.57039601368E+00  0.44325928186E+02 -0.33597052435E+02  0.55779454941E+02  0.41800000000E+01 0. -1.
        -11    1    1    2    0    0 -0.34334991959E+00  0.10277135322E+02  0.41369343002E+02  0.42628159003E+02  0.00000000000E+00 0. -1.
         11    1    1    2    0    0  0.66248285270E+02 -0.82595546974E+02  0.37522067967E+02  0.11233327764E+03  0.00000000000E+00 0.  1.
</event>
<event>
 7    1  0.2530765E-009  0.8743557E+02  0.7561462E-02  0.1309183E+00
         -2   -1    0    0    0  501 -0.00000000000E+00  0.00000000000E+00  0.13865736202E+03  0.13865736202E+03  0.00000000000E+00 0.  1.
          2   -1    0    0  501    0  0.00000000000E+00 -0.00000000000E+00 -0.15675453443E+03  0.15675453443E+03  0.00000000000E+00 0. -1.
         25    2    1    2    0    0  0.43801999401E+02 -0.22303988004E+02 -0.99785670462E+02  0.16739341304E+03  0.12508913489E+03 0.  0.
          5    1    3    3  502    0 -0.10976207372E+02 -0.33825487581E+02 -0.10507859202E+03  0.11101181756E+03  0.41800000000E+01 0. -1.
         -5    1    3    3    0  502  0.54778206773E+02  0.11521499578E+02  0.52929215543E+01  0.56381595476E+02  0.41800000000E+01 0. -1.
        -11    1    1    2    0    0  0.17821302074E+02  0.14690605518E+01  0.54776161546E+02  0.57621044942E+02  0.00000000000E+00 0.  1.
         11    1    1    2    0    0 -0.61623301475E+02  0.20834927452E+02  0.26912336511E+02  0.70397438470E+02  0.00000000000E+00 0. -1.
</event>
<event>
 7    1  0.2530765E-009  0.9860714E+02  0.7561462E-02  0.1283252E+00
         -2   -1    0    0    0  501 -0.00000000000E+00  0.00000000000E+00  0.42501473150E+02  0.42501473150E+02  0.00000000000E+00 0.  1.
          2   -1    0    0  501    0  0.00000000000E+00 -0.00000000000E+00 -0.56369009182E+03  0.56369009182E+03  0.00000000000E+00 0. -1.
         25    2    1    2    0    0  0.57573982268E+02 -0.53024793300E+02 -0.43423102419E+03  0.45861787986E+03  0.12508950882E+03 0.  0.
          5    1    3    3  502    0  0.14800750823E+02 -0.12140114101E+01 -0.35204405777E+03  0.35238193350E+03  0.41800000000E+01 0. -1.
         -5    1    3    3    0  502  0.42773231445E+02 -0.51810781890E+02 -0.82186966420E+02  0.10623594635E+03  0.41800000000E+01 0. -1.
        -11    1    1    2    0    0 -0.76224949075E+02  0.23895590741E+02 -0.78431585274E+02  0.11194979092E+03  0.00000000000E+00 0.  1.
         11    1    1    2    0    0  0.18650966807E+02  0.29129202559E+02 -0.85260092078E+01  0.35623894195E+02  0.00000000000E+00 0. -1.
</event>
<event>
 7    1  0.2530765E-009  0.8834652E+02  0.7561462E-02  0.1306906E+00
          1   -1    0    0  501    0  0.00000000000E+00  0.00000000000E+00  0.51485619734E+03  0.51485619734E+03  0.00000000000E+00 0. -1.
         -1   -1    0    0    0  501 -0.00000000000E+00 -0.00000000000E+00 -0.27839256381E+02  0.27839256381E+02  0.00000000000E+00 0.  1.
         25    2    1    2    0    0 -0.42703694057E+02  0.26031956960E+02  0.25337458313E+03  0.28696213399E+03  0.12508924294E+03 0.  0.
          5    1    3    3  502    0 -0.37712295541E+02  0.44878560596E+02  0.25952487406E+03  0.26609572543E+03  0.41800000000E+01 0.  1.
         -5    1    3    3    0  502 -0.49913985161E+01 -0.18846603635E+02 -0.61502909308E+01  0.20866408562E+02  0.41800000000E+01 0.  1.
        -11    1    1    2    0    0 -0.15422941916E+02  0.18988149748E+02  0.27162660118E+02  0.36554439852E+02  0.00000000000E+00 0.  1.
         11    1    1    2    0    0  0.58126635973E+02 -0.45020106709E+02  0.20647969772E+03  0.21917887988E+03  0.00000000000E+00 0. -1.
</event>
<event>
 7    1  0.2530765E-009  0.1030541E+03  0.7561462E-02  0.1274002E+00
         -3   -1    0    0    0  501 -0.00000000000E+00  0.00000000000E+00  0.82166199900E+03  0.82166199900E+03  0.00000000000E+00 0.  1.
          3   -1    0    0  501    0  0.00000000000E+00 -0.00000000000E+00 -0.20113335200E+02  0.20113335200E+02  0.00000000000E+00 0. -1.
         25    2    1    2    0    0 -0.45870090457E+02 -0.37482453698E+01  0.60580507243E+03  0.62029473879E+03  0.12509061777E+03 0.  0.
          5    1    3    3  502    0 -0.70556472811E+02 -0.19818770670E+02  0.56525241919E+03  0.56999892046E+03  0.41800000000E+01 0. -1.
         -5    1    3    3    0  502  0.24686382355E+02  0.16070525300E+02  0.40552653243E+02  0.50295818337E+02  0.41800000000E+01 0. -1.
        -11    1    1    2    0    0 -0.27164942508E+02  0.11512612432E+02  0.45215246448E+02  0.53989747710E+02  0.00000000000E+00 0. -1.
         11    1    1    2    0    0  0.73035032965E+02 -0.77643670625E+01  0.15052834492E+03  0.16749084769E+03  0.00000000000E+00 0.  1.
</event>
<event>
 7    1  0.2530765E-009  0.9604273E+02  0.7561462E-02  0.1288845E+00
          4   -1    0    0  501    0  0.00000000000E+00  0.00000000000E+00  0.15870665448E+03  0.15870665448E+03  0.00000000000E+00 0. -1.
         -4   -1    0    0    0  501 -0.00000000000E+00 -0.00000000000E+00 -0.82312069330E+02  0.82312069330E+02  0.00000000000E+00 0.  1.
         25    2    1    2    0    0 -0.16839539180E+02  0.32231695275E+02  0.34493689920E+02  0.13475577260E+03  0.12508737484E+03 0.  0.
          5    1    3    3  502    0 -0.55236278048E+02 -0.21950149427E+02  0.33187893967E+02  0.68203842842E+02  0.41800000000E+01 0.  1.
         -5    1    3    3    0  502  0.38396738868E+02  0.54181844702E+02  0.13057959532E+01  0.66551929755E+02  0.41800000000E+01 0.  1.
        -11    1    1    2    0    0  0.14307911641E+02  0.13789318291E+02 -0.20589039190E+02  0.28614160292E+02  0.00000000000E+00 0.  1.
         11    1    1    2    0    0  0.25316275394E+01 -0.46021013565E+02  0.62489934417E+02  0.77648790918E+02  0.00000000000E+00 0. -1.
</event>
<event>
 7    1  0.2530765E-009  0.1059452E+03  0.7561462E-02  0.1268268E+00
          1   -1    0    0  501    0  0.00000000000E+00  0.00000000000E+00  0.16223504256E+03  0.16223504256E+03  0.00000000000E+00 0. -1.
         -1   -1    0    0    0  501 -0.00000000000E+00 -0.00000000000E+00 -0.86194695536E+02  0.86194695536E+02  0.00000000000E+00 0.  1.
         25    2    1    2    0    0  0.25873811623E+02  0.25425655331E+02  0.85175440895E+01  0.13051562024E+03  0.12508341414E+03 0.  0.
          5    1    3    3  502    0  0.26968973471E+02  0.73874448355E+02  0.18413091026E+02  0.80878142727E+02  0.41800000000E+01 0.  1.
         -5    1    3    3    0  502 -0.10951618476E+01 -0.48448793024E+02 -0.98955469368E+01  0.49637477515E+02  0.41800000000E+01 0.  1.
        -11    1    1    2    0    0 -0.36685156747E+02 -0.47439772576E+02  0.71226508440E+02  0.93110408936E+02  0.00000000000E+00 0. -1.
         11    1    1    2    0    0  0.10811345123E+02  0.22014117245E+02 -0.37037055090E+01  0.24803708916E+02  0.00000000000E+00 0.  1.
</event>
<event>
 7    1  0.2530765E-009  0.1162664E+03  0.7561462E-02  0.1249387E+00
          1   -1    0    0  501    0  0.00000000000E+00  0.00000000000E+00  0.66113211341E+03  0.66113211341E+03  0.00000000000E+00 0. -1.
         -1   -1    0    0    0  501 -0.00000000000E+00 -0.00000000000E+00 -0.28746390748E+02  0.28746390748E+02  0.00000000000E+00 0.  1.
         25    2    1    2    0    0 -0.66105708281E+02  0.36212441588E+02  0.25380838051E+03  0.29282723253E+03  0.12509112078E+03 0.  0.
          5    1    3    3  502    0  0.20337915790E+02  0.22196665382E+02  0.16594239780E+03  0.16870291806E+03  0.41800000000E+01 0.  1.
         -5    1    3    3    0  502 -0.86443624071E+02  0.14015776206E+02  0.87865982712E+02  0.12412431447E+03  0.41800000000E+01 0.  1.
        -11    1    1    2    0    0 -0.20808548098E+02 -0.12890180559E+02  0.41618470691E+02  0.48283014938E+02  0.00000000000E+00 0.  1.
         11    1    1    2    0    0  0.86914256379E+02 -0.23322261029E+02  0.33695887146E+03  0.34876825670E+03  0.00000000000E+00 0. -1.
</event>
<event>
 7    1  0.2530765E-009  0.6615063E+02  0.7561462E-02  0.1373695E+00
         -3   -1    0    0    0  501 -0.00000000000E+00  0.00000000000E+00  0.17722571362E+03  0.17722571362E+03  0.00000000000E+00 0.  1.
          3   -1    0    0  501    0  0.00000000000E+00 -0.00000000000E+00 -0.99908851745E+02  0.99908851745E+02  0.00000000000E+00 0. -1.
         25    2    1    2    0    0 -0.62279488526E+02 -0.15736398933E+02 -0.12058228983E+01  0.14062390456E+03  0.12508900665E+03 0.  0.
          5    1    3    3  502    0 -0.11472869702E+02 -0.11676675847E+02 -0.60213877723E+02  0.62539227437E+02  0.41800000000E+01 0.  1.
         -5    1    3    3    0  502 -0.50806618824E+02 -0.40597230855E+01  0.59008054825E+02  0.78084677127E+02  0.41800000000E+01 0.  1.
        -11    1    1    2    0    0  0.18576258324E+02  0.56183485647E+01 -0.20237853807E+02  0.28039506783E+02  0.00000000000E+00 0. -1.
         11    1    1    2    0    0  0.43703230202E+02  0.10118050368E+02  0.98760538585E+02  0.10847115402E+03  0.00000000000E+00 0.  1.
</event>
<event>
 7    1  0.2530765E-009  0.1800966E+03  0.7561462E-02  0.1167710E+00
         -2   -1    0    0    0  501 -0.00000000000E+00  0.00000000000E+00  0.32247354263E+02  0.32247354263E+02  0.00000000000E+00 0.  1.
          2   -1    0    0  501    0  0.00000000000E+00 -0.00000000000E+00 -0.14583495884E+04  0.14583495884E+04  0.00000000000E+00 0. -1.
         25    2    1    2    0    0  0.11886774794E+03 -0.11716892815E+03 -0.44207174336E+03  0.48880719023E+03  0.12508774408E+03 0.  0.
          5    1    3    3  502    0  0.61978443645E+02 -0.10412395596E+03 -0.39654657685E+03  0.41466828393E+03  0.41800000000E+01 0. -1.
         -5    1    3    3    0  502  0.56889304291E+02 -0.13044972188E+02 -0.45525166511E+02  0.74138906304E+02  0.41800000000E+01 0. -1.
        -11    1    1    2    0    0 -0.12350007060E+03  0.89858152989E+02 -0.91037097860E+03  0.92309375135E+03  0.00000000000E+00 0.  1.
         11    1    1    2    0    0  0.46323226668E+01  0.27310775159E+02 -0.73659512149E+02  0.78696001062E+02  0.00000000000E+00 0. -1.
</event>
<event>
 7    1  0.2530765E-009  0.2787677E+03  0.7561462E-02  0.1096364E+00
          1   -1    0    0  501    0  0.00000000000E+00  0.00000000000E+00  0.54551224606E+03  0.54551224606E+03  0.00000000000E+00 0. -1.
         -1   -1    0    0    0  501 -0.00000000000E+00 -0.00000000000E+00 -0.17697366587E+03  0.17697366587E+03  0.00000000000E+00 0.  1.
         25    2    1    2    0    0 -0.14494105359E+03  0.22740658250E+03  0.31387433761E+03  0.43230279101E+03  0.12508773132E+03 0.  0.
          5    1    3    3  502    0 -0.11514574271E+03  0.22249643938E+03  0.21943539687E+03  0.33306541910E+03  0.41800000000E+01 0.  1.
         -5    1    3    3    0  502 -0.29795310873E+02  0.49101431200E+01  0.94438940738E+02  0.99237371908E+02  0.41800000000E+01 0.  1.
        -11    1    1    2    0    0  0.13009229206E+03 -0.15398827455E+03  0.76166260962E+01  0.20172854569E+03  0.00000000000E+00 0. -1.
         11    1    1    2    0    0  0.14848761524E+02 -0.73418307952E+02  0.47047616483E+02  0.88454575224E+02  0.00000000000E+00 0.  1.
</event>
<event>
 7    1  0.2530765E-009  0.3815252E+03  0.7561462E-02  0.1050371E+00
          2   -1    0    0  501    0  0.00000000000E+00  0.00000000000E+00  0.71151665052E+03  0.71151665052E+03  0.00000000000E+00 0. -1.
         -2   -1    0    0    0  501 -0.00000000000E+00 -0.00000000000E+00 -0.24908081700E+03  0.24908081700E+03  0.00000000000E+00 0.  1.
         25    2    1    2    0    0  0.36684688677E+03  0.83646128588E+02  0.40919169000E+03  0.56978720349E+03  0.12508519072E+03 0.  0.
          5    1    3    3  502    0  0.91135234271E+02  0.11750477587E+02  0.32726066630E+02  0.97632845324E+02  0.41800000000E+01 0.  1.
         -5    1    3    3    0  502  0.27571165250E+03  0.71895651002E+02  0.37646562337E+03  0.47215435817E+03  0.41800000000E+01 0.  1.
        -11    1    1    2    0    0 -0.30514826451E+03 -0.10198113403E+03  0.33463195385E+02  0.32347395641E+03  0.00000000000E+00 0. -1.
         11    1    1    2    0    0 -0.61698622260E+02  0.18335005446E+02  0.19780948132E+02  0.67336307610E+02  0.00000000000E+00 0.  1.
</event>
<event>
 7    1  0.2530765E-009  0.8804617E+02  0.7561462E-02  0.1307653E+00
         -2   -1    0    0    0  501 -0.00000000000E+00  0.00000000000E+00  0.30865279487E+02  0.30865279487E+02  0.00000000000E+00 0.  1.
          2   -1    0    0  501    0  0.00000000000E+00 -0.00000000000E+00 -0.52319995451E+03  0.52319995451E+03  0.00000000000E+00 0. -1.
         25    2    1    2    0    0 -0.53177011511E+02 -0.29552710237E+02 -0.21602027551E+03  0.25693092286E+03  0.12509029722E+03 0.  0.
          5    1    3    3  502    0 -0.62158871284E+01 -0.21627944820E+02  0.10670681446E+02  0.25253536237E+02  0.41800000000E+01 0.  1.
         -5    1    3    3    0  502 -0.46961124383E+02 -0.79247654173E+01 -0.22669095695E+03  0.23167738663E+03  0.41800000000E+01 0.  1.
        -11    1    1    2    0    0 -0.20473151181E+02 -0.88858041632E+01 -0.96628913200E+02  0.99172850626E+02  0.00000000000E+00 0. -1.
         11    1    1    2    0    0  0.73650162693E+02  0.38438514401E+02 -0.17968548631E+03  0.19796146051E+03  0.00000000000E+00 0.  1.
</event>
<event>
 7    1  0.2530765E-009  0.8129154E+02  0.7561462E-02  0.1325426E+00
          3   -1    0    0  501    0  0.00000000000E+00  0.00000000000E+00  0.15826216645E+02  0.15826216645E+02  0.00000000000E+00 0. -1.
         -3   -1    0    0    0  501 -0.00000000000E+00 -0.00000000000E+00 -0.15015548928E+04  0.15015548928E+04  0.00000000000E+00 0.  1.
         25    2    1    2    0    0 -0.46586245943E+02  0.22595908540E+02 -0.12784089482E+04  0.12855567704E+04  0.12508364207E+03 0.  0.
          5    1    3    3  502    0  0.16955590392E+01  0.30348511317E+02 -0.73476534408E+02  0.79625250820E+02  0.41800000000E+01 0.  1.
         -5    1    3    3    0  502 -0.48281804982E+02 -0.77526027773E+01 -0.12049324138E+04  0.12059315195E+04  0.41800000000E+01 0.  1.
        -11    1    1    2    0    0  0.33379749491E+02 -0.45471778691E+02 -0.19440218150E+03  0.20242059803E+03  0.00000000000E+00 0.  1.
         11    1    1    2    0    0  0.13206496451E+02  0.22875870151E+02 -0.12917546461E+02  0.29403741093E+02  0.00000000000E+00 0. -1.
</event>
<event>
 7    1  0.2530765E-009  0.1201846E+03  0.7561462E-02  0.1242793E+00
         -1   -1    0    0    0  501 -0.00000000000E+00  0.00000000000E+00  0.18094116487E+02  0.18094116487E+02  0.00000000000E+00 0.  1.
          1   -1    0    0  501    0  0.00000000000E+00 -0.00000000000E+00 -0.17490394087E+04  0.17490394087E+04  0.00000000000E+00 0. -1.
         25    2    1    2    0    0 -0.91217500076E+01  0.57956123874E+02 -0.15497490083E+04  0.15558954850E+04  0.12508658270E+03 0.  0.
          5    1    3    3  502    0 -0.14412944830E+02  0.96478720884E+02 -0.12003724179E+04  0.12043368676E+04  0.41800000000E+01 0.  1.
         -5    1    3    3    0  502  0.52911948222E+01 -0.38522597010E+02 -0.34937659031E+03  0.35155861741E+03  0.41800000000E+01 0.  1.
        -11    1    1    2    0    0  0.44601500129E+02 -0.50483602254E+02 -0.14559431042E+03  0.16042316272E+03  0.00000000000E+00 0. -1.
         11    1    1    2    0    0 -0.35479750122E+02 -0.74725216193E+01 -0.35601973548E+02  0.50814877433E+02  0.00000000000E+00 0.  1.
</event>
<event>
 7    1  0.2530765E-009  0.1929717E+03  0.7561462E-02  0.1155808E+00
          1   -1    0    0  501    0  0.00000000000E+00  0.00000000000E+00  0.12648747819E+04  0.12648747819E+04  0.00000000000E+00 0. -1.
         -1   -1    0    0    0  501 -0.00000000000E+00 -0.00000000000E+00 -0.49809425737E+02  0.49809425737E+02  0.00000000000E+00 0.  1.
         25    2    1    2    0    0 -0.11433625175E+03  0.11259238429E+03  0.20740934555E+03  0.29054375152E+03  0.12508881430E+03 0.  0.
          5    1    3    3  502    0 -0.12792674891E+03  0.12886744922E+03  0.18935817025E+03  0.26238533038E+03  0.41800000000E+01 0. -1.
         -5    1    3    3    0  502  0.13590497162E+02 -0.16275064933E+02  0.18051175295E+02  0.28158421142E+02  0.41800000000E+01 0. -1.
        -11    1    1    2    0    0  0.92936227059E+02 -0.30419292094E+02  0.50953115240E+03  0.51882990556E+03  0.00000000000E+00 0.  1.
         11    1    1    2    0    0  0.21400024694E+02 -0.82173092193E+02  0.49812485820E+03  0.50531055055E+03  0.00000000000E+00 0. -1.
</event>
<event>
 7    1  0.2530765E-009  0.1560998E+03  0.7561462E-02  0.1193172E+00
         -1   -1    0    0    0  501 -0.00000000000E+00  0.00000000000E+00  0.28773857032E+02  0.28773857032E+02  0.00000000000E+00 0.  1.
          1   -1    0    0  501    0  0.00000000000E+00 -0.00000000000E+00 -0.10526332643E+04  0.10526332643E+04  0.00000000000E+00 0. -1.
         25    2    1    2    0    0  0.10950233733E+03  0.67563132935E+02 -0.67764617416E+03  0.70100439542E+03  0.12508911318E+03 0.  0.
          5    1    3    3  502    0  0.12148971369E+03  0.16536087181E+02 -0.53738559444E+03  0.55121134080E+03  0.41800000000E+01 0.  1.
         -5    1    3    3    0  502 -0.11987376363E+02  0.51027045754E+02 -0.14026057972E+03  0.14979305462E+03  0.41800000000E+01 0.  1.
        -11    1    1    2    0    0 -0.68149501670E+02 -0.67015348300E+02 -0.31327846000E+03  0.32753443328E+03  0.00000000000E+00 0. -1.
         11    1    1    2    0    0 -0.41352835659E+02 -0.54778463477E+00 -0.32934773092E+02  0.52868292611E+02  0.00000000000E+00 0.  1.
</event>
<event>
 7    1  0.2530765E-009  0.1644365E+03  0.7561462E-02  0.1183777E+00
         -2   -1    0    0    0  501 -0.00000000000E+00  0.00000000000E+00  0.57426810143E+03  0.57426810143E+03  0.00000000000E+00 0.  1.
          2   -1    0    0  501    0  0.00000000000E+00 -0.00000000000E+00 -0.67004667083E+02  0.67004667083E+02  0.00000000000E+00 0. -1.
         25    2    1    2    0    0 -0.65938458221E+02 -0.13468422011E+03  0.36499076279E+03  0.41394829436E+03  0.12508882469E+03 0.  0.
          5    1    3    3  502    0 -0.49308473150E+02 -0.83030065086E+01  0.19547273095E+03  0.20181012459E+03  0.41800000000E+01 0.  1.
         -5    1    3    3    0  502 -0.16629985071E+02 -0.12638121360E+03  0.16951803185E+03  0.21213816978E+03  0.41800000000E+01 0.  1.
        -11    1    1    2    0    0  0.34079804868E+02  0.48531023724E+02  0.16064330912E+01  0.59323469140E+02  0.00000000000E+00 0. -1.
         11    1    1    2    0    0  0.31858653353E+02  0.86153196388E+02  0.14066623846E+03  0.16800100501E+03  0.00000000000E+00 0.  1.
</event>
<event>
 7    1  0.2530765E-009  0.9424775E+02  0.7561462E-02  0.1292879E+00
         -2   -1    0    0    0  501 -0.00000000000E+00  0.00000000000E+00  0.19816235764E+02  0.19816235764E+02  0.00000000000E+00 0.  1.
          2   -1    0    0  501    0  0.00000000000E+00 -0.00000000000E+00 -0.72538218468E+03  0.72538218468E+03  0.00000000000E+00 0. -1.
         25    2    1    2    0    0 -0.80861793587E+01  0.56265000595E-01 -0.56462443745E+03  0.57837227323E+03  0.12509333161E+03 0.  0.
          5    1    3    3  502    0 -0.52333009230E+02 -0.38555091657E+02 -0.25407182418E+03  0.26228839698E+03  0.41800000000E+01 0.  1.
         -5    1    3    3    0  502  0.44246829871E+02  0.38611356658E+02 -0.31055261327E+03  0.31608387625E+03  0.41800000000E+01 0.  1.
        -11    1    1    2    0    0 -0.24721052379E+02  0.14428180243E+02 -0.88611699178E+01  0.29963697171E+02  0.00000000000E+00 0.  1.
         11    1    1    2    0    0  0.32807231738E+02 -0.14484445243E+02 -0.13208034155E+03  0.13686245004E+03  0.00000000000E+00 0. -1.
</event>
<event>
 7    1  0.2530765E-009  0.1606021E+03  0.7561462E-02  0.1188019E+00
         -2   -1    0    0    0  501 -0.00000000000E+00  0.00000000000E+00  0.46423105561E+02  0.46423105561E+02  0.00000000000E+00 0. -1.
          2   -1    0    0  501    0  0.00000000000E+00 -0.00000000000E+00 -0.12603064355E+04  0.12603064355E+04  0.00000000000E+00 0.  1.
         25    2    1    2    0    0 -0.99411811881E+02  0.72460987925E+02 -0.11039820145E+04  0.11178358619E+04  0.12508965843E+03 0.  0.
          5    1    3    3  502    0 -0.19721736693E+02  0.90440883491E+02 -0.64496049260E+03  0.65158269599E+03  0.41800000000E+01 0.  1.
         -5    1    3    3    0  502 -0.79690075189E+02 -0.17979895565E+02 -0.45902152193E+03  0.46625316592E+03  0.41800000000E+01 0.  1.
        -11    1    1    2    0    0 -0.86445711783E+01 -0.29023062815E+02 -0.48657542551E+02  0.57311632616E+02  0.00000000000E+00 0.  1.
         11    1    1    2    0    0  0.10805638306E+03 -0.43437925110E+02 -0.61243772861E+02  0.13158204654E+03  0.00000000000E+00 0. -1.
</event>
<event>
 7    1  0.2530765E-009  0.1433320E+03  0.7561462E-02  0.1208915E+00
          2   -1    0    0  501    0  0.00000000000E+00  0.00000000000E+00  0.16791661298E+04  0.16791661298E+04  0.00000000000E+00 0. -1.
         -2   -1    0    0    0  501 -0.00000000000E+00 -0.00000000000E+00 -0.15033945340E+02  0.15033945340E+02  0.00000000000E+00 0.  1.
         25    2    1    2    0    0  0.73774723492E+02 -0.73321254417E+02  0.10808642955E+04  0.10930382881E+04  0.12508540196E+03 0.  0.
          5    1    3    3  502    0 -0.25746240146E+02  0.94075461454E+00  0.72627009996E+02  0.77174535190E+02  0.41800000000E+01 0.  1.
         -5    1    3    3    0  502  0.99520963638E+02 -0.74262009032E+02  0.10082372855E+04  0.10158637529E+04  0.41800000000E+01 0.  1.
        -11    1    1    2    0    0 -0.87765190770E+02  0.33210863309E+02  0.48669261096E+03  0.49565652191E+03  0.00000000000E+00 0. -1.
         11    1    1    2    0    0  0.13990467277E+02  0.40110391109E+02  0.96575278012E+02  0.10550526514E+03  0.00000000000E+00 0.  1.
</event>
<event>
 7    1  0.2530765E-009  0.1014908E+03  0.7561462E-02  0.1277192E+00
          1   -1    0    0  501    0  0.00000000000E+00  0.00000000000E+00  0.61441698635E+03  0.61441698635E+03  0.00000000000E+00 0. -1.
         -1   -1    0    0    0  501 -0.00000000000E+00 -0.00000000000E+00 -0.39944853816E+02  0.39944853816E+02  0.00000000000E+00 0.  1.
         25    2    1    2    0    0  0.54283917875E+02  0.45005489619E+02  0.12527979495E+03  0.19056484382E+03  0.12509074642E+03 0.  0.
          5    1    3    3  502    0  0.35989219181E+02 -0.51878613312E+01  0.13161086801E+03  0.13660538342E+03  0.41800000000E+01 0. -1.
         -5    1    3    3    0  502  0.18294698694E+02  0.50193350950E+02 -0.63310730568E+01  0.53959460394E+02  0.41800000000E+01 0. -1.
        -11    1    1    2    0    0  0.23612167250E+02 -0.20113383016E+02  0.83556629748E+02  0.89127958539E+02  0.00000000000E+00 0. -1.
         11    1    1    2    0    0 -0.77896085126E+02 -0.24892106603E+02  0.36563570783E+03  0.37466903781E+03  0.00000000000E+00 0.  1.
</event>
<event>
 7    1  0.2530765E-009  0.9124406E+02  0.7561462E-02  0.1299867E+00
         -2   -1    0    0    0  501 -0.00000000000E+00  0.00000000000E+00  0.26154981618E+02  0.26154981618E+02  0.00000000000E+00 0. -1.
          2   -1    0    0  501    0  0.00000000000E+00 -0.00000000000E+00 -0.46258644202E+03  0.46258644202E+03  0.00000000000E+00 0.  1.
         25    2    1    2    0    0 -0.16296150164E+02 -0.12230759570E+01 -0.25467160564E+03  0.28420501865E+03  0.12509118866E+03 0.  0.
          5    1    3    3  502    0  0.52996138679E+02 -0.99942424603E+01 -0.86008684463E+02  0.10160433948E+03  0.41800000000E+01 0. -1.
         -5    1    3    3    0  502 -0.69292288843E+02  0.87711665033E+01 -0.16866292118E+03  0.18260067918E+03  0.41800000000E+01 0. -1.
        -11    1    1    2    0    0 -0.16545786332E+02  0.15447379269E+02 -0.37257074737E+01  0.22940476625E+02  0.00000000000E+00 0. -1.
         11    1    1    2    0    0  0.32841936496E+02 -0.14224303311E+02 -0.17803414728E+03  0.18159592836E+03  0.00000000000E+00 0.  1.
</event>
<event>
 7    1  0.2530765E-009  0.1184662E+03  0.7561462E-02  0.1245649E+00
          2   -1    0    0  501    0  0.00000000000E+00  0.00000000000E+00  0.54477217287E+03  0.54477217287E+03  0.00000000000E+00 0. -1.
         -2   -1    0    0    0  501 -0.00000000000E+00 -0.00000000000E+00 -0.45852261622E+02  0.45852261622E+02  0.00000000000E+00 0.  1.
         25    2    1    2    0    0 -0.90470293730E+02  0.22422418502E+02  0.13042181230E+03  0.20333493614E+03  0.12509040024E+03 0.  0.
          5    1    3    3  502    0 -0.91743515251E+02 -0.20936701029E+02  0.12900380794E+03  0.15973313026E+03  0.41800000000E+01 0. -1.
         -5    1    3    3    0  502  0.12732215214E+01  0.43359119531E+02  0.14180043598E+01  0.43601805879E+02  0.41800000000E+01 0. -1.
        -11    1    1    2    0    0  0.39799791012E+02 -0.27286562493E+02  0.73455532953E+02  0.87887969476E+02  0.00000000000E+00 0.  1.
         11    1    1    2    0    0  0.50670502718E+02  0.48641439910E+01  0.29504256599E+03  0.29940152887E+03  0.00000000000E+00 0. -1.
</event>
<event>
 7    1  0.2530765E-009  0.1760235E+03  0.7561462E-02  0.1171708E+00
         -1   -1    0    0    0  501 -0.00000000000E+00  0.00000000000E+00  0.54124194978E+02  0.54124194978E+02  0.00000000000E+00 0.  1.
          1   -1    0    0  501    0  0.00000000000E+00 -0.00000000000E+00 -0.76052226137E+03  0.76052226137E+03  0.00000000000E+00 0. -1.
         25    2    1    2    0    0 -0.99162484965E+02  0.13578751853E+03 -0.40973603998E+03  0.46021985375E+03  0.12508893922E+03 0.  0.
          5    1    3    3  502    0 -0.17535921903E+02  0.99849181322E+01  0.32196445330E+01  0.20857748153E+02  0.41800000000E+01 0.  1.
         -5    1    3    3    0  502 -0.81626563062E+02  0.12580260040E+03 -0.41295568451E+03  0.43936210560E+03  0.41800000000E+01 0.  1.
        -11    1    1    2    0    0  0.10243812252E+03 -0.92546644809E+02 -0.16142170119E+03  0.21240389833E+03  0.00000000000E+00 0.  1.
         11    1    1    2    0    0 -0.32756375524E+01 -0.43240873720E+02 -0.13524032523E+03  0.14202270427E+03  0.00000000000E+00 0. -1.
</event>
<event>
 7    1  0.2530765E-009  0.1421685E+03  0.7561462E-02  0.1210441E+00
         -3   -1    0    0    0  501 -0.00000000000E+00  0.00000000000E+00  0.34654466221E+02  0.34654466221E+02  0.00000000000E+00 0.  1.
          3   -1    0    0  501    0  0.00000000000E+00 -0.00000000000E+00 -0.67359728366E+03  0.67359728366E+03  0.00000000000E+00 0. -1.
         25    2    1    2    0    0 -0.92403642937E+02 -0.12713699232E+02 -0.22050875354E+03  0.27013218371E+03  0.12508882810E+03 0.  0.
          5    1    3    3  502    0 -0.68573556433E+02 -0.67053383052E+02 -0.12490962779E+03  0.15753849160E+03  0.41800000000E+01 0. -1.
         -5    1    3    3    0  502 -0.23830086504E+02  0.54339683820E+02 -0.95599125744E+02  0.11259369211E+03  0.41800000000E+01 0. -1.
        -11    1    1    2    0    0  0.99403530499E+02  0.35085363450E+02 -0.36129524725E+03  0.37635927023E+03  0.00000000000E+00 0.  1.
         11    1    1    2    0    0 -0.69998875622E+01 -0.22371664218E+02 -0.57138816653E+02  0.61760295937E+02  0.00000000000E+00 0. -1.
</event>
<event>
 7    1  0.2530765E-009  0.3705586E+03  0.7561462E-02  0.1054480E+00
         -1   -1    0    0    0  501 -0.00000000000E+00  0.00000000000E+00  0.88558342852E+03  0.88558342852E+03  0.00000000000E+00 0.  1.
          1   -1    0    0  501    0  0.00000000000E+00 -0.00000000000E+00 -0.15906857249E+03  0.15906857249E+03  0.00000000000E+00 0. -1.
         25    2    1    2    0    0  0.40749794374E+02 -0.35598914553E+03  0.40645068009E+03  0.55609221870E+03  0.12509029889E+03 0.  0.
          5    1    3    3  502    0  0.40710760101E+02 -0.25381526414E+02  0.40739456057E+02  0.63077440903E+02  0.41800000000E+01 0. -1.
         -5    1    3    3    0  502  0.39034273378E-01 -0.33060761912E+03  0.36571122403E+03  0.49301477780E+03  0.41800000000E+01 0. -1.
        -11    1    1    2    0    0 -0.55596436166E+01  0.26050259508E+03  0.18549849914E+03  0.31984715860E+03  0.00000000000E+00 0.  1.
         11    1    1    2    0    0 -0.35190150758E+02  0.95486550457E+02  0.13456567680E+03  0.16871262372E+03  0.00000000000E+00 0. -1.
</event>
<event>
 7    1  0.2530765E-009  0.8104457E+02  0.7561462E-02  0.1326113E+00
          2   -1    0    0  501    0  0.00000000000E+00  0.00000000000E+00  0.25468458526E+02  0.25468458526E+02  0.00000000000E+00 0. -1.
         -2   -1    0    0    0  501 -0.00000000000E+00 -0.00000000000E+00 -0.56056618770E+03  0.56056618770E+03  0.00000000000E+00 0.  1.
         25    2    1    2    0    0  0.13378187847E+02  0.46526437528E+02 -0.26901938881E+03  0.30060132983E+03  0.12508414224E+03 0.  0.
          5    1    3    3  502    0  0.28037933399E+02  0.58110610343E+01 -0.25240647931E+03  0.25405983023E+03  0.41800000000E+01 0. -1.
         -5    1    3    3    0  502 -0.14659745552E+02  0.40715376494E+02 -0.16612909498E+02  0.46541499596E+02  0.41800000000E+01 0. -1.
        -11    1    1    2    0    0  0.26017474019E+02 -0.42822866955E+02 -0.21532278522E+03  0.22107602476E+03  0.00000000000E+00 0.  1.
         11    1    1    2    0    0 -0.39395661866E+02 -0.37035705727E+01 -0.50755555142E+02  0.64357291635E+02  0.00000000000E+00 0. -1.
</event>
<event>
 7    1  0.2530765E-009  0.1658160E+03  0.7561462E-02  0.1182283E+00
         -1   -1    0    0    0  501 -0.00000000000E+00  0.00000000000E+00  0.10705293149E+03  0.10705293149E+03  0.00000000000E+00 0.  1.
          1   -1    0    0  501    0  0.00000000000E+00 -0.00000000000E+00 -0.44018672674E+03  0.44018672674E+03  0.00000000000E+00 0. -1.
         25    2    1    2    0    0  0.15474474765E+03  0.69432150114E+01 -0.39972234414E+02  0.20307589095E+03  0.12509153768E+03 0.  0.
          5    1    3    3  502    0  0.37992902114E+02  0.12761245768E+02  0.43560019619E+02  0.59340186331E+02  0.41800000000E+01 0.  1.
         -5    1    3    3    0  502  0.11675184554E+03 -0.58180307568E+01 -0.83532254033E+02  0.14373570462E+03  0.41800000000E+01 0.  1.
        -11    1    1    2    0    0  0.46411395106E+01  0.12936173962E+02 -0.57140336351E+01  0.14884050292E+02  0.00000000000E+00 0.  1.
         11    1    1    2    0    0 -0.15938588716E+03 -0.19879388973E+02 -0.28744752720E+03  0.32927971699E+03  0.00000000000E+00 0. -1.
</event>
<event>
 7    1  0.2530765E-009  0.7501047E+02  0.7561462E-02  0.1343839E+00
          2   -1    0    0  501    0  0.00000000000E+00  0.00000000000E+00  0.85623223719E+03  0.85623223719E+03  0.00000000000E+00 0. -1.
         -2   -1    0    0    0  501 -0.00000000000E+00 -0.00000000000E+00 -0.15749705724E+02  0.15749705724E+02  0.00000000000E+00 0.  1.
         25    2    1    2    0    0  0.26349105647E+02  0.12327133300E+02  0.58730710019E+03  0.60118404613E+03  0.12508554593E+03 0.  0.
          5    1    3    3  502    0  0.10512887902E+02 -0.16960018990E+02  0.55235656286E+03  0.55273267317E+03  0.41800000000E+01 0. -1.
         -5    1    3    3    0  502  0.15836217745E+02  0.29287152290E+02  0.34950537327E+02  0.48451372955E+02  0.41800000000E+01 0. -1.
        -11    1    1    2    0    0  0.27740709146E+02  0.18950776575E+02  0.86318710152E+02  0.92626122660E+02  0.00000000000E+00 0.  1.
         11    1    1    2    0    0 -0.54089814793E+02 -0.31277909875E+02  0.16685672112E+03  0.17817177412E+03  0.00000000000E+00 0. -1.
</event>
<event>
 7    1  0.2530765E-009  0.8101282E+02  0.7561462E-02  0.1326202E+00
         -1   -1    0    0    0  501 -0.00000000000E+00  0.00000000000E+00  0.62897577100E+02  0.62897577100E+02  0.00000000000E+00 0.  1.
          1   -1    0    0  501    0  0.00000000000E+00 -0.00000000000E+00 -0.18856918270E+03  0.18856918270E+03  0.00000000000E+00 0. -1.
         25    2    1    2    0    0  0.66053534684E+01  0.59323844324E+01 -0.73128414494E+02  0.14517022511E+03  0.12509118823E+03 0.  0.
          5    1    3    3  502    0  0.14936191583E+02 -0.42712479634E+02 -0.83038355791E+02  0.94658790759E+02  0.41800000000E+01 0.  1.
         -5    1    3    3    0  502 -0.83308381145E+01  0.48644864066E+02  0.99099412969E+01  0.50511434351E+02  0.41800000000E+01 0.  1.
        -11    1    1    2    0    0  0.20539068232E+02 -0.26118560409E+02  0.10419217023E+02  0.34822300399E+02  0.00000000000E+00 0.  1.
         11    1    1    2    0    0 -0.27144421701E+02  0.20186175977E+02 -0.62962408128E+02  0.71474234289E+02  0.00000000000E+00 0. -1.
</event>
<event>
 7    1  0.2530765E-009  0.3109100E+03  0.7561462E-02  0.1079911E+00
          2   -1    0    0  501    0  0.00000000000E+00  0.00000000000E+00  0.13849136537E+04  0.13849136537E+04  0.00000000000E+00 0. -1.
         -2   -1    0    0    0  501 -0.00000000000E+00 -0.00000000000E+00 -0.75440361975E+02  0.75440361975E+02  0.00000000000E+00 0.  1.
         25    2    1    2    0    0 -0.30140501225E+03  0.60277986360E+01  0.57734332856E+03  0.66321529548E+03  0.12509153989E+03 0.  0.
          5    1    3    3  502    0 -0.12853250090E+03  0.52243479131E+02  0.32906146376E+03  0.35713989448E+03  0.41800000000E+01 0. -1.
         -5    1    3    3    0  502 -0.17287251135E+03 -0.46215680495E+02  0.24828186480E+03  0.30607540100E+03  0.41800000000E+01 0. -1.
        -11    1    1    2    0    0  0.20545013572E+03  0.14259385779E+02  0.58610845113E+03  0.62123763958E+03  0.00000000000E+00 0.  1.
         11    1    1    2    0    0  0.95954876531E+02 -0.20287184415E+02  0.14602151200E+03  0.17590108058E+03  0.00000000000E+00 0. -1.
</event>
<event>
 7    1  0.2530765E-009  0.1356024E+03  0.7561462E-02  0.1219372E+00
         -2   -1    0    0    0  501 -0.00000000000E+00  0.00000000000E+00  0.15990741119E+03  0.15990741119E+03  0.00000000000E+00 0.  1.
          2   -1    0    0  501    0  0.00000000000E+00 -0.00000000000E+00 -0.12347443219E+03  0.12347443219E+03  0.00000000000E+00 0. -1.
         25    2    1    2    0    0 -0.50313242472E+02  0.72598179024E+02  0.31362360031E+02  0.15631067995E+03  0.12509001988E+03 0.  0.
          5    1    3    3  502    0 -0.84001727350E+02  0.19361051508E+02  0.11447212903E+01  0.86312938197E+02  0.41800000000E+01 0.  1.
         -5    1    3    3    0  502  0.33688484878E+02  0.53237127516E+02  0.30217638741E+02  0.69997741753E+02  0.41800000000E+01 0.  1.
        -11    1    1    2    0    0  0.28087872593E+02  0.14682692490E+02  0.17414270975E+02  0.36163059594E+02  0.00000000000E+00 0.  1.
         11    1    1    2    0    0  0.22225369879E+02 -0.87280871514E+02 -0.12343652012E+02  0.90908103838E+02  0.00000000000E+00 0. -1.
</event>
<event>
 7    1  0.2530765E-009  0.1132736E+03  0.7561462E-02  0.1254625E+00
          2   -1    0    0  501    0  0.00000000000E+00  0.00000000000E+00  0.17667531100E+03  0.17667531100E+03  0.00000000000E+00 0. -1.
         -2   -1    0    0    0  501 -0.00000000000E+00 -0.00000000000E+00 -0.79462358701E+02  0.79462358701E+02  0.00000000000E+00 0.  1.
         25    2    1    2    0    0  0.34173258396E+02  0.26246675900E+02  0.28808121806E+02  0.13540626396E+03  0.12509296084E+03 0.  0.
          5    1    3    3  502    0 -0.29400662959E+02 -0.33380858309E+02  0.14548773329E+02  0.46987443953E+02  0.41800000000E+01 0. -1.
         -5    1    3    3    0  502  0.63573921354E+02  0.59627534210E+02  0.14259348477E+02  0.88418820006E+02  0.41800000000E+01 0. -1.
        -11    1    1    2    0    0 -0.33660414275E+02  0.25891734465E+02  0.49616892824E+02  0.65308816068E+02  0.00000000000E+00 0. -1.
         11    1    1    2    0    0 -0.51284412076E+00 -0.52138410366E+02  0.18787937675E+02  0.55422589678E+02  0.00000000000E+00 0.  1.
</event>
<event>
 7    1  0.2530765E-009  0.1194300E+03  0.7561462E-02  0.1244040E+00
          2   -1    0    0  501    0  0.00000000000E+00  0.00000000000E+00  0.37335594092E+02  0.37335594092E+02  0.00000000000E+00 0. -1.
         -2   -1    0    0    0  501 -0.00000000000E+00 -0.00000000000E+00 -0.46690580126E+03  0.46690580126E+03  0.00000000000E+00 0.  1.
         25    2    1    2    0    0 -0.23759219965E+01  0.62124681034E+02 -0.15868550724E+03  0.21141326638E+03  0.12509739404E+03 0.  0.
          5    1    3    3  502    0 -0.47877703228E+02  0.69707737047E+02 -0.64444563519E+02  0.10640496811E+03  0.41800000000E+01 0.  1.
         -5    1    3    3    0  502  0.45501781231E+02 -0.75830560129E+01 -0.94240943718E+02  0.10500829828E+03  0.41800000000E+01 0.  1.
        -11    1    1    2    0    0  0.15399655217E+02 -0.82371335734E+02 -0.23605981909E+03  0.25049236419E+03  0.00000000000E+00 0.  1.
         11    1    1    2    0    0 -0.13023733220E+02  0.20246654700E+02 -0.34824880845E+02  0.42335764779E+02  0.00000000000E+00 0. -1.
</event>
<event>
 7    1  0.2530765E-009  0.1687137E+03  0.7561462E-02  0.1179196E+00
         -1   -1    0    0    0  501 -0.00000000000E+00  0.00000000000E+00  0.23732653955E+04  0.23732653955E+04  0.00000000000E+00 0.  1.
          1   -1    0    0  501    0  0.00000000000E+00 -0.00000000000E+00 -0.15850484767E+02  0.15850484767E+02  0.00000000000E+00 0. -1.
         25    2    1    2    0    0 -0.64653690801E+02 -0.12127373209E+03  0.17334535379E+04  0.17433864087E+04  0.12509030381E+03 0.  0.
          5    1    3    3  502    0  0.92031284599E+01 -0.96412797698E+02  0.12417492888E+04  0.12455275565E+04  0.41800000000E+01 0. -1.
         -5    1    3    3    0  502 -0.73856819261E+02 -0.24860934393E+02  0.49170424908E+03  0.49785885226E+03  0.41800000000E+01 0. -1.
        -11    1    1    2    0    0 -0.21696856504E+02  0.22787858384E+02  0.18451143227E+03  0.18717507502E+03  0.00000000000E+00 0.  1.
         11    1    1    2    0    0  0.86350547305E+02  0.98485873707E+02  0.43944994053E+03  0.45855439653E+03  0.00000000000E+00 0. -1.
</event>
<event>
 7    1  0.2530765E-009  0.1302983E+03  0.7561462E-02  0.1227014E+00
         -2   -1    0    0    0  501 -0.00000000000E+00  0.00000000000E+00  0.26108451703E+02  0.26108451703E+02  0.00000000000E+00 0.  1.
          2   -1    0    0  501    0  0.00000000000E+00 -0.00000000000E+00 -0.75146775692E+03  0.75146775692E+03  0.00000000000E+00 0. -1.
         25    2    1    2    0    0  0.43612026011E+02 -0.73555065266E+02 -0.33549303366E+03  0.36812371654E+03  0.12508852307E+03 0.  0.
          5    1    3    3  502    0  0.53656161335E+02  0.12905229545E+02 -0.19586604560E+03  0.20353503093E+03  0.41800000000E+01 0.  1.
         -5    1    3    3    0  502 -0.10044135324E+02 -0.86460294811E+02 -0.13962698806E+03  0.16458868560E+03  0.41800000000E+01 0.  1.
        -11    1    1    2    0    0 -0.78779783899E+00  0.75248265865E+02 -0.30784392951E+03  0.31690819976E+03  0.00000000000E+00 0.  1.
         11    1    1    2    0    0 -0.42824228172E+02 -0.16932005993E+01 -0.82022342049E+02  0.92544292325E+02  0.00000000000E+00 0. -1.
</event>
<event>
 7    1  0.2530765E-009  0.1973248E+03  0.7561462E-02  0.1152016E+00
          2   -1    0    0  501    0  0.00000000000E+00  0.00000000000E+00  0.20850907689E+04  0.20850907689E+04  0.00000000000E+00 0. -1.
         -2   -1    0    0    0  501 -0.00000000000E+00 -0.00000000000E+00 -0.19321354054E+02  0.19321354054E+02  0.00000000000E+00 0.  1.
         25    2    1    2    0    0  0.11673426749E+03  0.11648198768E+03  0.12488009772E+04  0.12658383469E+04  0.12509155561E+03 0.  0.
          5    1    3    3  502    0  0.45340837671E+02  0.12580958723E+03  0.87078317605E+03  0.88100207485E+03  0.41800000000E+01 0. -1.
         -5    1    3    3    0  502  0.71393429821E+02 -0.93275995503E+01  0.37801780112E+03  0.38483627207E+03  0.41800000000E+01 0. -1.
        -11    1    1    2    0    0  0.15880494336E+02 -0.12851380034E+02  0.10661339036E+03  0.10855304267E+03  0.00000000000E+00 0.  1.
         11    1    1    2    0    0 -0.13261476183E+03 -0.10363060764E+03  0.71035504730E+03  0.73002073335E+03  0.00000000000E+00 0. -1.
</event>
<event>
 7    1  0.2530765E-009  0.1214005E+03  0.7561462E-02  0.1240804E+00
          1   -1    0    0  501    0  0.00000000000E+00  0.00000000000E+00  0.95834581309E+03  0.95834581309E+03  0.00000000000E+00 0. -1.
         -1   -1    0    0    0  501 -0.00000000000E+00 -0.00000000000E+00 -0.19107375766E+02  0.19107375766E+02  0.00000000000E+00 0.  1.
         25    2    1    2    0    0  0.80690130259E+02  0.54993704222E+01  0.50426610459E+03  0.52580690262E+03  0.12508978538E+03 0.  0.
          5    1    3    3  502    0  0.10033753463E+03 -0.36162569140E+01  0.48841007545E+03  0.49864072474E+03  0.41800000000E+01 0. -1.
         -5    1    3    3    0  502 -0.19647404375E+02  0.91156273362E+01  0.15856029144E+02  0.27166177880E+02  0.41800000000E+01 0. -1.
        -11    1    1    2    0    0 -0.49547776470E+02  0.40983947227E+02  0.19897084013E+03  0.20910299210E+03  0.00000000000E+00 0.  1.
         11    1    1    2    0    0 -0.31142353789E+02 -0.46483317650E+02  0.23600149261E+03  0.24254329414E+03  0.00000000000E+00 0. -1.
</event>
<event>
 7    1  0.2530765E-009  0.1261251E+03  0.7561462E-02  0.1233321E+00
         -3   -1    0    0    0  501 -0.00000000000E+00  0.00000000000E+00  0.15328649232E+03  0.15328649232E+03  0.00000000000E+00 0.  1.
          3   -1    0    0  501    0  0.00000000000E+00 -0.00000000000E+00 -0.13348338137E+03  0.13348338137E+03  0.00000000000E+00 0. -1.
         25    2    1    2    0    0 -0.94353764592E+01 -0.89757968302E+02 -0.12916112109E+02  0.15478810410E+03  0.12508801708E+03 0.  0.
          5    1    3    3  502    0  0.20036563541E+02  0.26543402513E+02 -0.88581692097E+01  0.34669232141E+02  0.41800000000E+01 0. -1.
         -5    1    3    3    0  502 -0.29471940000E+02 -0.11630137081E+03 -0.40579428991E+01  0.12011887196E+03  0.41800000000E+01 0. -1.
        -11    1    1    2    0    0 -0.12431422524E+01  0.87819496222E+02  0.57467274214E+02  0.10495854860E+03  0.00000000000E+00 0.  1.
         11    1    1    2    0    0  0.10678518712E+02  0.19384720798E+01 -0.24748051160E+02  0.27023220980E+02  0.00000000000E+00 0. -1.
</event>
<event>
 7    1  0.2530765E-009  0.1002384E+03  0.7561462E-02  0.1279795E+00
         -1   -1    0    0    0  501 -0.00000000000E+00  0.00000000000E+00  0.15853159997E+02  0.15853159997E+02  0.00000000000E+00 0.  1.
          1   -1    0    0  501    0  0.00000000000E+00 -0.00000000000E+00 -0.83158801506E+03  0.83158801506E+03  0.00000000000E+00 0. -1.
         25    2    1    2    0    0 -0.20114434785E+02 -0.16744198436E+02 -0.56863493546E+03  0.58281915774E+03  0.12509005609E+03 0.  0.
          5    1    3    3  502    0  0.39799480853E+02  0.21392692195E+02 -0.34927822063E+03  0.35221356272E+03  0.41800000000E+01 0.  1.
         -5    1    3    3    0  502 -0.59913915638E+02 -0.38136890631E+02 -0.21935671483E+03  0.23060559502E+03  0.41800000000E+01 0.  1.
        -11    1    1    2    0    0  0.43470318310E+02 -0.13704870855E+02 -0.70866239220E+02  0.84258625198E+02  0.00000000000E+00 0.  1.
         11    1    1    2    0    0 -0.23355883525E+02  0.30449069291E+02 -0.17623368038E+03  0.18036339212E+03  0.00000000000E+00 0. -1.
</event>
<event>
 7    1  0.2530765E-009  0.3375093E+03  0.7561462E-02  0.1067862E+00
         -1   -1    0    0    0  501 -0.00000000000E+00  0.00000000000E+00  0.62858164425E+03  0.62858164425E+03  0.00000000000E+00 0.  1.
          1   -1    0    0  501    0  0.00000000000E+00 -0.00000000000E+00 -0.22990780320E+03  0.22990780320E+03  0.00000000000E+00 0. -1.
         25    2    1    2    0    0 -0.60165410341E+02 -0.32840658383E+03  0.37915233570E+02  0.35854672604E+03  0.12508968348E+03 0.  0.
          5    1    3    3  502    0 -0.13495805935E+02 -0.71288085151E+02  0.62749802168E+02  0.96016342018E+02  0.41800000000E+01 0.  1.
         -5    1    3    3    0  502 -0.46669604406E+02 -0.25711849868E+03 -0.24834568598E+02  0.26253038402E+03  0.41800000000E+01 0.  1.
        -11    1    1    2    0    0  0.65992993554E+02  0.16826799541E+03  0.14812440899E+03  0.23368789874E+03  0.00000000000E+00 0. -1.
         11    1    1    2    0    0 -0.58275832129E+01  0.16013858842E+03  0.21263419849E+03  0.26625482267E+03  0.00000000000E+00 0.  1.
</event>
<event>
 7    1  0.2530765E-009  0.1353213E+03  0.7561462E-02  0.1219767E+00
          2   -1    0    0  501    0  0.00000000000E+00  0.00000000000E+00  0.78920573587E+03  0.78920573587E+03  0.00000000000E+00 0. -1.
         -2   -1    0    0    0  501 -0.00000000000E+00 -0.00000000000E+00 -0.24086998289E+02  0.24086998289E+02  0.00000000000E+00 0.  1.
         25    2    1    2    0    0 -0.75768619853E+02 -0.65453665860E+01  0.35540135019E+03  0.38437250970E+03  0.12509348874E+03 0.  0.
          5    1    3    3  502    0 -0.60537749010E+02 -0.62312929426E+02  0.23909111354E+03  0.25442042608E+03  0.41800000000E+01 0.  1.
         -5    1    3    3    0  502 -0.15230870843E+02  0.55767562840E+02  0.11631023664E+03  0.12995208363E+03  0.41800000000E+01 0.  1.
        -11    1    1    2    0    0  0.58037954515E+02  0.51365489784E+02  0.28033249349E+03  0.29084897217E+03  0.00000000000E+00 0. -1.
         11    1    1    2    0    0  0.17730665338E+02 -0.44820123198E+02  0.12938489391E+03  0.13807125229E+03  0.00000000000E+00 0.  1.
</event>
<event>
 7    1  0.2530765E-009  0.1600632E+03  0.7561462E-02  0.1188625E+00
          2   -1    0    0  501    0  0.00000000000E+00  0.00000000000E+00  0.15266564642E+04  0.15266564642E+04  0.00000000000E+00 0.  1.
         -2   -1    0    0    0  501 -0.00000000000E+00 -0.00000000000E+00 -0.26568266965E+02  0.26568266965E+02  0.00000000000E+00 0. -1.
         25    2    1    2    0    0 -0.90958769239E+02 -0.79605216648E+02  0.12382172332E+04  0.12503759741E+04  0.12509065395E+03 0.  0.
          5    1    3    3  502    0  0.13829780684E+02  0.19827573580E+02  0.31077308179E+03  0.31173991767E+03  0.41800000000E+01 0. -1.
         -5    1    3    3    0  502 -0.10478854992E+03 -0.99432790227E+02  0.92744415141E+03  0.93863605638E+03  0.41800000000E+01 0. -1.
        -11    1    1    2    0    0  0.24428421327E+02 -0.19811786775E+02  0.41128398786E+02  0.51776441075E+02  0.00000000000E+00 0. -1.
         11    1    1    2    0    0  0.66530347912E+02  0.99417003423E+02  0.22074256529E+03  0.25107231606E+03  0.00000000000E+00 0.  1.
</event>
<event>
 7    1  0.2530765E-009  0.1556695E+03  0.7561462E-02  0.1193674E+00
          1   -1    0    0  501    0  0.00000000000E+00  0.00000000000E+00  0.18627062953E+03  0.18627062953E+03  0.00000000000E+00 0. -1.
         -1   -1    0    0    0  501 -0.00000000000E+00 -0.00000000000E+00 -0.14947245375E+03  0.14947245375E+03  0.00000000000E+00 0.  1.
         25    2    1    2    0    0  0.10966024388E+03 -0.66650318367E+02 -0.15797812398E+02  0.17990116413E+03  0.12508886422E+03 0.  0.
          5    1    3    3  502    0 -0.18085169764E+02  0.10054599580E+02 -0.22285019881E+02  0.30696300253E+02  0.41800000000E+01 0.  1.
         -5    1    3    3    0  502  0.12774541364E+03 -0.76704917947E+02  0.64872074830E+01  0.14920486388E+03  0.41800000000E+01 0.  1.
        -11    1    1    2    0    0 -0.80946185647E+02  0.15369554959E+02  0.94502370882E+01  0.82932594144E+02  0.00000000000E+00 0.  1.
         11    1    1    2    0    0 -0.28714058230E+02  0.51280763408E+02  0.43145751094E+02  0.72909325009E+02  0.00000000000E+00 0. -1.
</event>
<event>
 7    1  0.2530765E-009  0.1773781E+03  0.7561462E-02  0.1170365E+00
         -2   -1    0    0    0  501 -0.00000000000E+00  0.00000000000E+00  0.92469959651E+02  0.92469959651E+02  0.00000000000E+00 0. -1.
          2   -1    0    0  501    0  0.00000000000E+00 -0.00000000000E+00 -0.35293106537E+03  0.35293106537E+03  0.00000000000E+00 0.  1.
         25    2    1    2    0    0  0.12708566095E+03 -0.64626427041E+02 -0.17316746553E+03  0.25683198760E+03  0.12509339888E+03 0.  0.
          5    1    3    3  502    0  0.48314682686E+01  0.31444025153E+02 -0.45112178844E+02  0.55359289044E+02  0.41800000000E+01 0.  1.
         -5    1    3    3    0  502  0.12225419268E+03 -0.96070452194E+02 -0.12805528669E+03  0.20147269855E+03  0.41800000000E+01 0.  1.
        -11    1    1    2    0    0 -0.81985926936E+02  0.84595668875E+02 -0.60246732442E+02  0.13231699882E+03  0.00000000000E+00 0.  1.
         11    1    1    2    0    0 -0.45099734017E+02 -0.19969241834E+02 -0.27046907742E+02  0.56252038596E+02  0.00000000000E+00 0. -1.
</event>
<event>
 7    1  0.2530765E-009  0.1386722E+03  0.7561462E-02  0.1215127E+00
          1   -1    0    0  501    0  0.00000000000E+00  0.00000000000E+00  0.39033092356E+03  0.39033092356E+03  0.00000000000E+00 0. -1.
         -1   -1    0    0    0  501 -0.00000000000E+00 -0.00000000000E+00 -0.61790944499E+02  0.61790944499E+02  0.00000000000E+00 0.  1.
         25    2    1    2    0    0  0.58161502098E+02 -0.97837468256E+02  0.21494787637E+03  0.27350562965E+03  0.12509120423E+03 0.  0.
          5    1    3    3  502    0  0.60120061967E+02 -0.77781643689E+01  0.15153446926E+03  0.16326386454E+03  0.41800000000E+01 0. -1.
         -5    1    3    3    0  502 -0.19585598690E+01 -0.90059303888E+02  0.63413407110E+02  0.11024176511E+03  0.41800000000E+01 0. -1.
        -11    1    1    2    0    0 -0.39292362468E+02  0.99967988048E+02  0.62877378042E+02  0.12446305899E+03  0.00000000000E+00 0.  1.
         11    1    1    2    0    0 -0.18869139630E+02 -0.21305197914E+01  0.50714724655E+02  0.54153179425E+02  0.00000000000E+00 0. -1.
</event>
<event>
 7    1  0.2530765E-009  0.1250013E+03  0.7561462E-02  0.1235067E+00
          3   -1    0    0  501    0  0.00000000000E+00  0.00000000000E+00  0.24202025096E+03  0.24202025096E+03  0.00000000000E+00 0. -1.
         -3   -1    0    0    0  501 -0.00000000000E+00 -0.00000000000E+00 -0.75274306623E+02  0.75274306623E+02  0.00000000000E+00 0.  1.
         25    2    1    2    0    0  0.61188116089E+02  0.46101782759E+02  0.11101658701E+03  0.18395801419E+03  0.12508600430E+03 0.  0.
          5    1    3    3  502    0  0.85054249461E+02  0.38132215144E+01  0.31862836473E+02  0.91002630499E+02  0.41800000000E+01 0. -1.
         -5    1    3    3    0  502 -0.23866133372E+02  0.42288561245E+02  0.79153750535E+02  0.92955383695E+02  0.41800000000E+01 0. -1.
        -11    1    1    2    0    0 -0.27884059884E+02 -0.69789332175E+02  0.53793460048E+02  0.92421902301E+02  0.00000000000E+00 0.  1.
         11    1    1    2    0    0 -0.33304056205E+02  0.23687549416E+02  0.19358972819E+01  0.40914641088E+02  0.00000000000E+00 0. -1.
</event>
<event>
 7    1  0.2530765E-009  0.1119450E+03  0.7561462E-02  0.1257010E+00
         -2   -1    0    0    0  501 -0.00000000000E+00  0.00000000000E+00  0.11927218271E+02  0.11927218271E+02  0.00000000000E+00 0.  1.
          2   -1    0    0  501    0  0.00000000000E+00 -0.00000000000E+00 -0.13159908091E+04  0.13159908091E+04  0.00000000000E+00 0. -1.
         25    2    1    2    0    0  0.47295909467E+02 -0.71429608159E+01 -0.93936996923E+03  0.94886823657E+03  0.12508823421E+03 0.  0.
          5    1    3    3  502    0  0.41852222524E+02 -0.57472568422E+02 -0.72822346902E+03  0.73169775036E+03  0.41800000000E+01 0. -1.
         -5    1    3    3    0  502  0.54436869438E+01  0.50329607606E+02 -0.21114650021E+03  0.21717048621E+03  0.41800000000E+01 0. -1.
        -11    1    1    2    0    0 -0.73559094877E+02 -0.32493776624E+01 -0.23283248464E+03  0.24419759376E+03  0.00000000000E+00 0. -1.
         11    1    1    2    0    0  0.26263185409E+02  0.10392338478E+02 -0.13186113696E+03  0.13485219704E+03  0.00000000000E+00 0.  1.
</event>
<event>
 7    1  0.2530765E-009  0.2228515E+03  0.7561462E-02  0.1131775E+00
         -2   -1    0    0    0  501 -0.00000000000E+00  0.00000000000E+00  0.60180880226E+02  0.60180880226E+02  0.00000000000E+00 0.  1.
          2   -1    0    0  501    0  0.00000000000E+00 -0.00000000000E+00 -0.11161314352E+04  0.11161314352E+04  0.00000000000E+00 0. -1.
         25    2    1    2    0    0  0.15404850239E+03 -0.13018693379E+03 -0.81602566580E+03  0.84983808523E+03  0.12508918836E+03 0.  0.
          5    1    3    3  502    0  0.61661479933E+02  0.15968075290E+02 -0.24635869693E+03  0.25449400285E+03  0.41800000000E+01 0. -1.
         -5    1    3    3    0  502  0.92387022458E+02 -0.14615500908E+03 -0.56966696887E+03  0.59534408238E+03  0.41800000000E+01 0. -1.
        -11    1    1    2    0    0 -0.14400912653E+03  0.95486132426E+02 -0.14729863272E+03  0.22705311540E+03  0.00000000000E+00 0.  1.
         11    1    1    2    0    0 -0.10039375862E+02  0.34700801367E+02 -0.92626256437E+02  0.99421114783E+02  0.00000000000E+00 0. -1.
</event>
<event>
 7    1  0.2530765E-009  0.2205745E+03  0.7561462E-02  0.1133455E+00
         -1   -1    0    0    0  501 -0.00000000000E+00  0.00000000000E+00  0.13366028929E+03  0.13366028929E+03  0.00000000000E+00 0.  1.
          1   -1    0    0  501    0  0.00000000000E+00 -0.00000000000E+00 -0.39123621187E+03  0.39123621187E+03  0.00000000000E+00 0. -1.
         25    2    1    2    0    0  0.15417790162E+03 -0.12530573352E+03 -0.11363719438E+03  0.26083207136E+03  0.12509038853E+03 0.  0.
          5    1    3    3  502    0  0.75167324551E+02  0.12010369277E+02 -0.39706191759E+02  0.85955975443E+02  0.41800000000E+01 0.  1.
         -5    1    3    3    0  502  0.79010577070E+02 -0.13731610279E+03 -0.73931002624E+02  0.17487609592E+03  0.41800000000E+01 0.  1.
        -11    1    1    2    0    0 -0.13308158553E+03  0.12862096982E+03 -0.89491830666E+02  0.20557930353E+03  0.00000000000E+00 0. -1.
         11    1    1    2    0    0 -0.21096316094E+02 -0.33152363072E+01 -0.54446897524E+02  0.58485126267E+02  0.00000000000E+00 0.  1.
</event>
<event>
 7    1  0.2530765E-009  0.1532367E+03  0.7561462E-02  0.1196551E+00
          1   -1    0    0  501    0  0.00000000000E+00  0.00000000000E+00  0.12164562170E+03  0.12164562170E+03  0.00000000000E+00 0. -1.
         -1   -1    0    0    0  501 -0.00000000000E+00 -0.00000000000E+00 -0.22357334608E+03  0.22357334608E+03  0.00000000000E+00 0.  1.
         25    2    1    2    0    0 -0.73067433136E+02  0.96253857560E+02 -0.76193253081E+02  0.18988615435E+03  0.12509070677E+03 0.  0.
          5    1    3    3  502    0  0.27810939572E+02  0.13667127734E+01 -0.35834249582E+02  0.45572822019E+02  0.41800000000E+01 0. -1.
         -5    1    3    3    0  502 -0.10087837271E+03  0.94887144786E+02 -0.40359003499E+02  0.14431333233E+03  0.41800000000E+01 0. -1.
        -11    1    1    2    0    0  0.86717131090E+02 -0.75824166489E+02  0.58222395674E+01  0.11533890723E+03  0.00000000000E+00 0. -1.
         11    1    1    2    0    0 -0.13649697954E+02 -0.20429691070E+02 -0.31556710873E+02  0.39993906193E+02  0.00000000000E+00 0.  1.
</event>
<event>
 7    1  0.2530765E-009  0.8810562E+02  0.7561462E-02  0.1307505E+00
         -2   -1    0    0    0  501 -0.00000000000E+00  0.00000000000E+00  0.21366975000E+03  0.21366975000E+03  0.00000000000E+00 0.  1.
          2   -1    0    0  501    0  0.00000000000E+00 -0.00000000000E+00 -0.65693598626E+02  0.65693598626E+02  0.00000000000E+00 0. -1.
         25    2    1    2    0    0  0.25789433192E+02 -0.61015941808E+01  0.13041312302E+03  0.18263770668E+03  0.12508646981E+03 0.  0.
          5    1    3    3  502    0  0.61949799743E+02 -0.41782032923E+02  0.93188722768E+02  0.11952040167E+03  0.41800000000E+01 0. -1.
         -5    1    3    3    0  502 -0.36160366551E+02  0.35680438742E+02  0.37224400253E+02  0.63117305013E+02  0.41800000000E+01 0. -1.
        -11    1    1    2    0    0 -0.12783358704E+02 -0.18549545453E+02  0.49470953991E+02  0.54358763646E+02  0.00000000000E+00 0.  1.
         11    1    1    2    0    0 -0.13006074488E+02  0.24651139634E+02 -0.31907925635E+02  0.42366878303E+02  0.00000000000E+00 0. -1.
</event>
<event>
 7    1  0.2530765E-009  0.8980203E+02  0.7561462E-02  0.1303332E+00
          1   -1    0    0  501    0  0.00000000000E+00  0.00000000000E+00  0.13093699645E+03  0.13093699645E+03  0.00000000000E+00 0. -1.
         -1   -1    0    0    0  501 -0.00000000000E+00 -0.00000000000E+00 -0.11100076011E+03  0.11100076011E+03  0.00000000000E+00 0.  1.
         25    2    1    2    0    0 -0.24103889190E+01  0.31417065551E+02  0.54684072698E+02  0.14010772432E+03  0.12508790758E+03 0.  0.
          5    1    3    3  502    0  0.44259114988E+02 -0.28591697297E+02  0.22922987352E+02  0.57613281134E+02  0.41800000000E+01 0.  1.
         -5    1    3    3    0  502 -0.46669503907E+02  0.60008762848E+02  0.31761085346E+02  0.82494443182E+02  0.41800000000E+01 0.  1.
        -11    1    1    2    0    0 -0.18086384857E+02 -0.20680673768E+02 -0.60960754108E+02  0.66865694688E+02  0.00000000000E+00 0.  1.
         11    1    1    2    0    0  0.20496773776E+02 -0.10736391783E+02  0.26212917749E+02  0.34964337555E+02  0.00000000000E+00 0. -1.
</event>
<event>
 7    1  0.2530765E-009  0.2853006E+03  0.7561462E-02  0.1092829E+00
          2   -1    0    0  501    0  0.00000000000E+00  0.00000000000E+00  0.18615521192E+04  0.18615521192E+04  0.00000000000E+00 0.  1.
         -2   -1    0    0    0  501 -0.00000000000E+00 -0.00000000000E+00 -0.46362817568E+02  0.46362817568E+02  0.00000000000E+00 0. -1.
         25    2    1    2    0    0  0.22991791261E+03 -0.13718642573E+03  0.75889595857E+03  0.81440325785E+03  0.12508888245E+03 0.  0.
          5    1    3    3  502    0  0.18600320493E+03 -0.47865373132E+02  0.55839692947E+03  0.59051916940E+03  0.41800000000E+01 0.  1.
         -5    1    3    3    0  502  0.43914707678E+02 -0.89321052600E+02  0.20049902910E+03  0.22388408845E+03  0.41800000000E+01 0.  1.
        -11    1    1    2    0    0 -0.20447567454E+03  0.86224294140E+02  0.75742818221E+03  0.78926699005E+03  0.00000000000E+00 0.  1.
         11    1    1    2    0    0 -0.25442238070E+02  0.50962131592E+02  0.29886516082E+03  0.30424468884E+03  0.00000000000E+00 0. -1.
</event>
<event>
 7    1  0.2530765E-009  0.1377101E+03  0.7561462E-02  0.1216444E+00
         -1   -1    0    0    0  501 -0.00000000000E+00  0.00000000000E+00  0.78251746245E+03  0.78251746245E+03  0.00000000000E+00 0.  1.
          1   -1    0    0  501    0  0.00000000000E+00 -0.00000000000E+00 -0.36427439534E+02  0.36427439534E+02  0.00000000000E+00 0. -1.
         25    2    1    2    0    0 -0.80665642638E+02  0.33901532511E+02  0.16633481910E+03  0.22576786277E+03  0.12509035137E+03 0.  0.
          5    1    3    3  502    0 -0.11070478466E+03  0.42478375553E+02  0.11319024471E+03  0.16398007694E+03  0.41800000000E+01 0. -1.
         -5    1    3    3    0  502  0.30039142026E+02 -0.85768430413E+01  0.53144574396E+02  0.61787785831E+02  0.41800000000E+01 0. -1.
        -11    1    1    2    0    0  0.54385405013E+02 -0.64860688481E+02  0.37511296304E+03  0.38454442686E+03  0.00000000000E+00 0.  1.
         11    1    1    2    0    0  0.26280237625E+02  0.30959155970E+02  0.20464224077E+03  0.20863261235E+03  0.00000000000E+00 0. -1.
</event>
<event>
 7    1  0.2530765E-009  0.1377613E+03  0.7561462E-02  0.1216373E+00
          1   -1    0    0  501    0  0.00000000000E+00  0.00000000000E+00  0.21499375698E+03  0.21499375698E+03  0.00000000000E+00 0. -1.
         -1   -1    0    0    0  501 -0.00000000000E+00 -0.00000000000E+00 -0.11935638695E+03  0.11935638695E+03  0.00000000000E+00 0.  1.
         25    2    1    2    0    0  0.20792428763E+02  0.96084399441E+02  0.11746795482E+03  0.19776487255E+03  0.12509071707E+03 0.  0.
          5    1    3    3  502    0 -0.35920842598E+02  0.95436033390E+02  0.79772564324E+02  0.12953562375E+03  0.41800000000E+01 0.  1.
         -5    1    3    3    0  502  0.56713271361E+02  0.64836605050E+00  0.37695390498E+02  0.68229248800E+02  0.41800000000E+01 0.  1.
        -11    1    1    2    0    0 -0.30886417346E+02 -0.14034710500E+02 -0.39480008917E+02  0.52053962187E+02  0.00000000000E+00 0.  1.
         11    1    1    2    0    0  0.10093988583E+02 -0.82049688941E+02  0.17649424132E+02  0.84531309188E+02  0.00000000000E+00 0. -1.
</event>
<event>
 7    1  0.2530765E-009  0.1772743E+03  0.7561462E-02  0.1170467E+00
          2   -1    0    0  501    0  0.00000000000E+00  0.00000000000E+00  0.15397746146E+04  0.15397746146E+04  0.00000000000E+00 0. -1.
         -2   -1    0    0    0  501 -0.00000000000E+00 -0.00000000000E+00 -0.49047918359E+02  0.49047918359E+02  0.00000000000E+00 0.  1.
         25    2    1    2    0    0  0.34335193456E+02  0.15967184640E+03  0.13168908055E+04  0.13328626005E+04  0.12508922469E+03 0.  0.
          5    1    3    3  502    0 -0.13098314661E+01  0.10161030021E+03  0.11173649800E+04  0.11219841085E+04  0.41800000000E+01 0. -1.
         -5    1    3    3    0  502  0.35645024923E+02  0.58061546188E+02  0.19952582546E+03  0.21087849197E+03  0.41800000000E+01 0. -1.
        -11    1    1    2    0    0  0.27384267281E+02 -0.74723509207E+02  0.98983567040E+02  0.12700884799E+03  0.00000000000E+00 0. -1.
         11    1    1    2    0    0 -0.61719460737E+02 -0.84948337196E+02  0.74852323706E+02  0.12895108449E+03  0.00000000000E+00 0.  1.
</event>
<event>
 7    1  0.2530765E-009  0.8354937E+02  0.7561462E-02  0.1319270E+00
         -2   -1    0    0    0  501 -0.00000000000E+00  0.00000000000E+00  0.11593337432E+03  0.11593337432E+03  0.00000000000E+00 0.  1.
          2   -1    0    0  501    0  0.00000000000E+00 -0.00000000000E+00 -0.19057692303E+03  0.19057692303E+03  0.00000000000E+00 0. -1.
         25    2    1    2    0    0  0.96958399353E+01  0.50817660414E+01  0.62706573673E+02  0.14035347410E+03  0.12508856723E+03 0.  0.
          5    1    3    3  502    0  0.47380404878E+02  0.93657689230E+00  0.84098889086E+02  0.96622334313E+02  0.41800000000E+01 0. -1.
         -5    1    3    3    0  502 -0.37684564942E+02  0.41451891491E+01 -0.21392315413E+02  0.43731139783E+02  0.41800000000E+01 0. -1.
        -11    1    1    2    0    0 -0.45446532163E+02 -0.17939469597E+01 -0.11549135139E+03  0.12412436416E+03  0.00000000000E+00 0. -1.
         11    1    1    2    0    0  0.35750692228E+02 -0.32878190817E+01 -0.21858770994E+02  0.42032459106E+02  0.00000000000E+00 0.  1.
</event>
<event>
 7    1  0.2530765E-009  0.1176881E+03  0.7561462E-02  0.1246960E+00
          2   -1    0    0  501    0  0.00000000000E+00  0.00000000000E+00  0.71639133530E+03  0.71639133530E+03  0.00000000000E+00 0. -1.
         -2   -1    0    0    0  501 -0.00000000000E+00 -0.00000000000E+00 -0.21025231993E+02  0.21025231993E+02  0.00000000000E+00 0.  1.
         25    2    1    2    0    0 -0.23775520825E+02 -0.46373743536E+02  0.31872925269E+03  0.34634030785E+03  0.12508985907E+03 0.  0.
          5    1    3    3  502    0 -0.47420556644E+02 -0.79959030698E+02  0.24069093464E+03  0.25805378160E+03  0.41800000000E+01 0.  1.
         -5    1    3    3    0  502  0.23645035818E+02  0.33585287162E+02  0.78038318052E+02  0.88286526248E+02  0.41800000000E+01 0.  1.
        -11    1    1    2    0    0  0.24098859475E+02  0.71732463566E+02  0.32300216449E+03  0.33174794592E+03  0.00000000000E+00 0. -1.
         11    1    1    2    0    0 -0.32333865002E+00 -0.25358720029E+02  0.53634686125E+02  0.59328313520E+02  0.00000000000E+00 0.  1.
</event>
<event>
 7    1  0.2530765E-009  0.1191975E+03  0.7561462E-02  0.1244427E+00
          2   -1    0    0  501    0  0.00000000000E+00  0.00000000000E+00  0.12248413766E+03  0.12248413766E+03  0.00000000000E+00 0. -1.
         -2   -1    0    0    0  501 -0.00000000000E+00 -0.00000000000E+00 -0.15715951433E+03  0.15715951433E+03  0.00000000000E+00 0.  1.
         25    2    1    2    0    0  0.21746049859E+02 -0.45734174378E+02  0.51907481623E+02  0.14459382249E+03  0.12509389059E+03 0.  0.
          5    1    3    3  502    0  0.33843998136E+02 -0.86007821145E+02  0.32189184290E+02  0.97961101939E+02  0.41800000000E+01 0.  1.
         -5    1    3    3    0  502 -0.12097948277E+02  0.40273646767E+02  0.19718297332E+02  0.46632720552E+02  0.41800000000E+01 0.  1.
        -11    1    1    2    0    0 -0.53477729281E+02  0.76157228907E+01 -0.43564820965E+02  0.69395679908E+02  0.00000000000E+00 0.  1.
         11    1    1    2    0    0  0.31731679422E+02  0.38118451487E+02 -0.43018037332E+02  0.65654149592E+02  0.00000000000E+00 0. -1.
</event>
<event>
 7    1  0.2530765E-009  0.2940759E+03  0.7561462E-02  0.1088240E+00
          2   -1    0    0  501    0  0.00000000000E+00  0.00000000000E+00  0.14993645908E+04  0.14993645908E+04  0.00000000000E+00 0. -1.
         -2   -1    0    0    0  501 -0.00000000000E+00 -0.00000000000E+00 -0.70526046989E+02  0.70526046989E+02  0.00000000000E+00 0.  1.
         25    2    1    2    0    0  0.20134897844E+03  0.19960308764E+03  0.44685954700E+03  0.54379700000E+03  0.12509563838E+03 0.  0.
          5    1    3    3  502    0  0.25968302644E+02  0.98148399640E+02  0.20064566300E+03  0.22490801581E+03  0.41800000000E+01 0. -1.
         -5    1    3    3    0  502  0.17538067580E+03  0.10145468800E+03  0.24621388401E+03  0.31888898419E+03  0.41800000000E+01 0. -1.
        -11    1    1    2    0    0 -0.57624105451E+02 -0.66517825753E+02  0.46490290231E+03  0.47315945224E+03  0.00000000000E+00 0. -1.
         11    1    1    2    0    0 -0.14372487299E+03 -0.13308526189E+03  0.51707609453E+03  0.55293418558E+03  0.00000000000E+00 0.  1.
</event>
<event>
 7    1  0.2530765E-009  0.2699730E+03  0.7561462E-02  0.1101295E+00
          3   -1    0    0  501    0  0.00000000000E+00  0.00000000000E+00  0.15062440666E+04  0.15062440666E+04  0.00000000000E+00 0. -1.
         -3   -1    0    0    0  501 -0.00000000000E+00 -0.00000000000E+00 -0.50547746458E+02  0.50547746458E+02  0.00000000000E+00 0.  1.
         25    2    1    2    0    0  0.24120876739E+03  0.52585113646E+02  0.90433008120E+03  0.94573071793E+03  0.12508729523E+03 0.  0.
          5    1    3    3  502    0  0.13769742890E+03 -0.33583974602E+02  0.48215379576E+03  0.50257160728E+03  0.41800000000E+01 0.  1.
         -5    1    3    3    0  502  0.10351133849E+03  0.86169088249E+02  0.42217628543E+03  0.44315911064E+03  0.41800000000E+01 0.  1.
        -11    1    1    2    0    0 -0.23550275407E+03 -0.69505556873E+02  0.51582124064E+03  0.57128287381E+03  0.00000000000E+00 0. -1.
         11    1    1    2    0    0 -0.57060133117E+01  0.16920443227E+02  0.35544998282E+02  0.39778221300E+02  0.00000000000E+00 0.  1.
</event>
<event>
 7    1  0.2530765E-009  0.1340055E+03  0.7561462E-02  0.1221630E+00
          1   -1    0    0  501    0  0.00000000000E+00  0.00000000000E+00  0.40545172048E+03  0.40545172048E+03  0.00000000000E+00 0.  1.
         -1   -1    0    0    0  501 -0.00000000000E+00 -0.00000000000E+00 -0.51244397068E+02  0.51244397068E+02  0.00000000000E+00 0. -1.
         25    2    1    2    0    0  0.60406914316E+02 -0.64583459694E+02  0.13623039682E+03  0.20499494244E+03  0.12507672384E+03 0.  0.
          5    1    3    3  502    0  0.56971144002E+02 -0.99980368229E+02  0.87999663798E+02  0.14492480295E+03  0.41800000000E+01 0.  1.
         -5    1    3    3    0  502  0.34357703141E+01  0.35396908536E+02  0.48230733019E+02  0.60070139496E+02  0.41800000000E+01 0.  1.
        -11    1    1    2    0    0  0.17670168753E+02  0.21669134829E+02  0.10016504213E+03  0.10399433606E+03  0.00000000000E+00 0.  1.
         11    1    1    2    0    0 -0.78077083069E+02  0.42914324865E+02  0.11781188446E+03  0.14770683904E+03  0.00000000000E+00 0. -1.
</event>
<event>
 7    1  0.2530765E-009  0.2055894E+03  0.7561462E-02  0.1145107E+00
          2   -1    0    0  501    0  0.00000000000E+00  0.00000000000E+00  0.17632900180E+04  0.17632900180E+04  0.00000000000E+00 0. -1.
         -2   -1    0    0    0  501 -0.00000000000E+00 -0.00000000000E+00 -0.30403772750E+02  0.30403772750E+02  0.00000000000E+00 0.  1.
         25    2    1    2    0    0 -0.99130794486E+02 -0.15719321755E+03  0.12278037062E+04  0.12480730108E+04  0.12509067689E+03 0.  0.
          5    1    3    3  502    0 -0.16517205709E+02 -0.12010842273E+03  0.89345479033E+03  0.90165280794E+03  0.41800000000E+01 0.  1.
         -5    1    3    3    0  502 -0.82613588777E+02 -0.37084794820E+02  0.33434891585E+03  0.34642020291E+03  0.41800000000E+01 0.  1.
        -11    1    1    2    0    0  0.64885112490E+02  0.37984086965E+02  0.12560605285E+03  0.14638903374E+03  0.00000000000E+00 0.  1.
         11    1    1    2    0    0  0.34245681996E+02  0.11920913059E+03  0.37947648623E+03  0.39923174617E+03  0.00000000000E+00 0. -1.
</event>
<event>
 7    1  0.2530765E-009  0.1333315E+03  0.7561462E-02  0.1222594E+00
         -2   -1    0    0    0  501 -0.00000000000E+00  0.00000000000E+00  0.24330636350E+03  0.24330636350E+03  0.00000000000E+00 0.  1.
          2   -1    0    0  501    0  0.00000000000E+00 -0.00000000000E+00 -0.93383355997E+02  0.93383355997E+02  0.00000000000E+00 0. -1.
         25    2    1    2    0    0 -0.12478541905E+02 -0.85781838847E+02  0.15865026228E+02  0.15301309402E+03  0.12508824884E+03 0.  0.
          5    1    3    3  502    0 -0.62631511331E+02 -0.30688475024E+02 -0.16314770281E+02  0.71750490174E+02  0.41800000000E+01 0. -1.
         -5    1    3    3    0  502  0.50152969426E+02 -0.55093363823E+02  0.32179796510E+02  0.81262603841E+02  0.41800000000E+01 0. -1.
        -11    1    1    2    0    0 -0.34958315496E+02  0.17671758909E+02  0.64120658667E+02  0.75138763319E+02  0.00000000000E+00 0. -1.
         11    1    1    2    0    0  0.47436857401E+02  0.68110079937E+02  0.69937322604E+02  0.10853786216E+03  0.00000000000E+00 0.  1.
</event>
<event>
 7    1  0.2530765E-009  0.6575204E+02  0.7561462E-02  0.1375165E+00
         -2   -1    0    0    0  501 -0.00000000000E+00  0.00000000000E+00  0.13558064909E+03  0.13558064909E+03  0.00000000000E+00 0.  1.
          2   -1    0    0  501    0  0.00000000000E+00 -0.00000000000E+00 -0.90375325475E+02  0.90375325475E+02  0.00000000000E+00 0. -1.
         25    2    1    2    0    0 -0.24511980572E+02 -0.19122393642E+01  0.32103678505E+02  0.13145703351E+03  0.12508321883E+03 0.  0.
          5    1    3    3  502    0 -0.57771922770E+02  0.64124410587E+01  0.62494682667E+02  0.85450407972E+02  0.41800000000E+01 0.  1.
         -5    1    3    3    0  502  0.33259942198E+02 -0.83246804229E+01 -0.30391004162E+02  0.46006625535E+02  0.41800000000E+01 0.  1.
        -11    1    1    2    0    0  0.18618450402E+02 -0.12963392949E+02 -0.36168986914E+02  0.42695337760E+02  0.00000000000E+00 0. -1.
         11    1    1    2    0    0  0.58935301708E+01  0.14875632313E+02  0.49270632019E+02  0.51803603293E+02  0.00000000000E+00 0.  1.
</event>
<event>
 7    1  0.2530765E-009  0.1641249E+03  0.7561462E-02  0.1184117E+00
          2   -1    0    0  501    0  0.00000000000E+00  0.00000000000E+00  0.45633160483E+03  0.45633160483E+03  0.00000000000E+00 0. -1.
         -2   -1    0    0    0  501 -0.00000000000E+00 -0.00000000000E+00 -0.19456710924E+03  0.19456710924E+03  0.00000000000E+00 0.  1.
         25    2    1    2    0    0  0.95199482130E+02  0.11822958099E+03 -0.11955748186E+03  0.23018037704E+03  0.12509132380E+03 0.  0.
          5    1    3    3  502    0  0.16048998860E+02  0.32692176823E+02  0.25058534555E+02  0.44404406807E+02  0.41800000000E+01 0. -1.
         -5    1    3    3    0  502  0.79150483270E+02  0.85537404164E+02 -0.14461601642E+03  0.18577597024E+03  0.41800000000E+01 0. -1.
        -11    1    1    2    0    0  0.11366331690E+02 -0.43142846933E+02  0.67668235493E+02  0.81052383262E+02  0.00000000000E+00 0.  1.
         11    1    1    2    0    0 -0.10656581382E+03 -0.75086734053E+02  0.31365374195E+03  0.33966595376E+03  0.00000000000E+00 0. -1.
</event>
<event>
 7    1  0.2530765E-009  0.2360315E+03  0.7561462E-02  0.1122465E+00
         -1   -1    0    0    0  501 -0.00000000000E+00  0.00000000000E+00  0.39014588370E+02  0.39014588370E+02  0.00000000000E+00 0.  1.
          1   -1    0    0  501    0  0.00000000000E+00 -0.00000000000E+00 -0.16364566775E+04  0.16364566775E+04  0.00000000000E+00 0. -1.
         25    2    1    2    0    0 -0.21312278806E+03  0.48555276476E+02 -0.10460077294E+04  0.10758985161E+04  0.12508600761E+03 0.  0.
          5    1    3    3  502    0 -0.14760288966E+03  0.89500441129E+02 -0.66004121148E+03  0.68225275027E+03  0.41800000000E+01 0.  1.
         -5    1    3    3    0  502 -0.65519898397E+02 -0.40945164653E+02 -0.38596651788E+03  0.39364576578E+03  0.41800000000E+01 0.  1.
        -11    1    1    2    0    0  0.56874235498E+02 -0.31038511243E+02 -0.82004009299E+02  0.10451184328E+03  0.00000000000E+00 0.  1.
         11    1    1    2    0    0  0.15624855256E+03 -0.17516765233E+02 -0.46943035043E+03  0.49506090650E+03  0.00000000000E+00 0. -1.
</event>
<event>
 7    1  0.2530765E-009  0.9311808E+02  0.7561462E-02  0.1295472E+00
         -2   -1    0    0    0  501 -0.00000000000E+00  0.00000000000E+00  0.36380825729E+02  0.36380825729E+02  0.00000000000E+00 0.  1.
          2   -1    0    0  501    0  0.00000000000E+00 -0.00000000000E+00 -0.33839522245E+03  0.33839522245E+03  0.00000000000E+00 0. -1.
         25    2    1    2    0    0  0.19813079272E+02 -0.37973006542E+00 -0.19501526678E+03  0.23253268961E+03  0.12509114740E+03 0.  0.
          5    1    3    3  502    0  0.64858481354E+02 -0.10602424117E+02 -0.16402986348E+03  0.17675492218E+03  0.41800000000E+01 0. -1.
         -5    1    3    3    0  502 -0.45045402082E+02  0.10222694051E+02 -0.30985403296E+02  0.55777767433E+02  0.41800000000E+01 0. -1.
        -11    1    1    2    0    0 -0.33405875527E+02  0.27760721743E+02 -0.16068918031E+02  0.46312204850E+02  0.00000000000E+00 0.  1.
         11    1    1    2    0    0  0.13592796255E+02 -0.27380991677E+02 -0.90930211910E+02  0.95931153716E+02  0.00000000000E+00 0. -1.
</event>
<event>
 7    1  0.2530765E-009  0.1322690E+03  0.7561462E-02  0.1224127E+00
          2   -1    0    0  501    0  0.00000000000E+00  0.00000000000E+00  0.58140231523E+03  0.58140231523E+03  0.00000000000E+00 0. -1.
         -2   -1    0    0    0  501 -0.00000000000E+00 -0.00000000000E+00 -0.34401159588E+02  0.34401159588E+02  0.00000000000E+00 0.  1.
         25    2    1    2    0    0 -0.70047102417E+02  0.56647945553E+02  0.26239561380E+03  0.30432629232E+03  0.12508975881E+03 0.  0.
          5    1    3    3  502    0  0.63274652359E+01  0.62175335827E+02  0.18523373542E+03  0.19553725563E+03  0.41800000000E+01 0. -1.
         -5    1    3    3    0  502 -0.76374567653E+02 -0.55273902744E+01  0.77161878386E+02  0.10878903669E+03  0.41800000000E+01 0. -1.
        -11    1    1    2    0    0  0.51964050263E+02 -0.80173693970E+02  0.23493021652E+03  0.25361445219E+03  0.00000000000E+00 0.  1.
         11    1    1    2    0    0  0.18083052155E+02  0.23525748417E+02  0.49675325316E+02  0.57862730311E+02  0.00000000000E+00 0. -1.
</event>
<event>
 7    1  0.2530765E-009  0.9869844E+02  0.7561462E-02  0.1283057E+00
         -1   -1    0    0    0  501 -0.00000000000E+00  0.00000000000E+00  0.35755908214E+02  0.35755908214E+02  0.00000000000E+00 0.  1.
          1   -1    0    0  501    0  0.00000000000E+00 -0.00000000000E+00 -0.10363623704E+04  0.10363623704E+04  0.00000000000E+00 0. -1.
         25    2    1    2    0    0  0.14162724934E+02  0.29924752899E+02 -0.95713680876E+03  0.96584358258E+03  0.12508749624E+03 0.  0.
          5    1    3    3  502    0 -0.43189738796E+02  0.39297536191E+02 -0.68727928237E+03  0.68976802932E+03  0.41800000000E+01 0. -1.
         -5    1    3    3    0  502  0.57352463731E+02 -0.93727832922E+01 -0.26985752639E+03  0.27607555326E+03  0.41800000000E+01 0. -1.
        -11    1    1    2    0    0 -0.43612817294E+02 -0.91789452550E+01  0.61149298118E+01  0.44985811484E+02  0.00000000000E+00 0.  1.
         11    1    1    2    0    0  0.29450092360E+02 -0.20745807644E+02 -0.49584583263E+02  0.61288884573E+02  0.00000000000E+00 0. -1.
</event>
<event>
 7    1  0.2530765E-009  0.1291906E+03  0.7561462E-02  0.1228662E+00
         -2   -1    0    0    0  501 -0.00000000000E+00  0.00000000000E+00  0.92970634394E+02  0.92970634394E+02  0.00000000000E+00 0.  1.
          2   -1    0    0  501    0  0.00000000000E+00 -0.00000000000E+00 -0.26375615034E+03  0.26375615034E+03  0.00000000000E+00 0. -1.
         25    2    1    2    0    0 -0.63088544669E+02  0.92875165111E+02 -0.96778677641E+02  0.19395407700E+03  0.12508441460E+03 0.  0.
          5    1    3    3  502    0 -0.11387811025E+01  0.77230640411E+02  0.66549223720E+00  0.77354921761E+02  0.41800000000E+01 0. -1.
         -5    1    3    3    0  502 -0.61949763567E+02  0.15644524699E+02 -0.97444169878E+02  0.11659915524E+03  0.41800000000E+01 0. -1.
        -11    1    1    2    0    0  0.60307202371E+02 -0.63806546870E+02 -0.51125455801E+01  0.87945279598E+02  0.00000000000E+00 0.  1.
         11    1    1    2    0    0  0.27813422981E+01 -0.29068618241E+02 -0.68894292727E+02  0.74827428138E+02  0.00000000000E+00 0. -1.
</event>
<event>
 7    1  0.2530765E-009  0.1363638E+03  0.7561462E-02  0.1218307E+00
          1   -1    0    0  501    0  0.00000000000E+00  0.00000000000E+00  0.20116082968E+03  0.20116082968E+03  0.00000000000E+00 0. -1.
         -1   -1    0    0    0  501 -0.00000000000E+00 -0.00000000000E+00 -0.10276235361E+03  0.10276235361E+03  0.00000000000E+00 0.  1.
         25    2    1    2    0    0 -0.94476906157E+02  0.12535069214E+02  0.53260176073E+02  0.16603324298E+03  0.12508947862E+03 0.  0.
          5    1    3    3  502    0 -0.57320583850E+02 -0.51063070221E+02  0.50933393025E+02  0.92221306639E+02  0.41800000000E+01 0.  1.
         -5    1    3    3    0  502 -0.37156322307E+02  0.63598139434E+02  0.23267830486E+01  0.73811936340E+02  0.41800000000E+01 0.  1.
        -11    1    1    2    0    0 -0.49716757852E+01 -0.21643679673E+02 -0.93866254338E+01  0.24109648835E+02  0.00000000000E+00 0.  1.
         11    1    1    2    0    0  0.99448581942E+02  0.91086104594E+01  0.54524925435E+02  0.11378029148E+03  0.00000000000E+00 0. -1.
</event>
<event>
 7    1  0.2530765E-009  0.2084833E+03  0.7561462E-02  0.1142773E+00
         -1   -1    0    0    0  501 -0.00000000000E+00  0.00000000000E+00  0.18292718912E+03  0.18292718912E+03  0.00000000000E+00 0.  1.
          1   -1    0    0  501    0  0.00000000000E+00 -0.00000000000E+00 -0.28034437560E+03  0.28034437560E+03  0.00000000000E+00 0. -1.
         25    2    1    2    0    0  0.58994144285E+02 -0.18448475529E+03 -0.98361512704E+02  0.25067020731E+03  0.12508249940E+03 0.  0.
          5    1    3    3  502    0 -0.25021979585E+02 -0.98857347510E+02 -0.79046516468E+02  0.12909182307E+03  0.41800000000E+01 0.  1.
         -5    1    3    3    0  502  0.84016123870E+02 -0.85627407776E+02 -0.19314996237E+02  0.12157838423E+03  0.41800000000E+01 0.  1.
        -11    1    1    2    0    0 -0.53333703719E+02  0.13641915449E+03 -0.37031795543E+02  0.15108283670E+03  0.00000000000E+00 0.  1.
         11    1    1    2    0    0 -0.56604405659E+01  0.48065600795E+02  0.37976121763E+02  0.61518520718E+02  0.00000000000E+00 0. -1.
</event>
<event>
 7    1  0.2530765E-009  0.1132450E+03  0.7561462E-02  0.1254676E+00
          2   -1    0    0  501    0  0.00000000000E+00  0.00000000000E+00  0.42054324436E+03  0.42054324436E+03  0.00000000000E+00 0.  1.
         -2   -1    0    0    0  501 -0.00000000000E+00 -0.00000000000E+00 -0.80573332743E+02  0.80573332743E+02  0.00000000000E+00 0. -1.
         25    2    1    2    0    0  0.79281400893E+02 -0.78291053053E+02  0.31683500094E+03  0.35839462274E+03  0.12508900142E+03 0.  0.
          5    1    3    3  502    0  0.25115522419E+02 -0.38461770874E+02  0.14066445935E+02  0.48222760045E+02  0.41800000000E+01 0.  1.
         -5    1    3    3    0  502  0.54165878475E+02 -0.39829282178E+02  0.30276855500E+03  0.31017186270E+03  0.41800000000E+01 0.  1.
        -11    1    1    2    0    0 -0.75202299828E+02  0.66020456973E+02 -0.16148562781E+02  0.10136499750E+03  0.00000000000E+00 0. -1.
         11    1    1    2    0    0 -0.40791010652E+01  0.12270596079E+02  0.39283473454E+02  0.41356956854E+02  0.00000000000E+00 0.  1.
</event>
<event>
 7    1  0.2530765E-009  0.1110920E+03  0.7561462E-02  0.1258561E+00
         -3   -1    0    0    0  501 -0.00000000000E+00  0.00000000000E+00  0.17003322511E+04  0.17003322511E+04  0.00000000000E+00 0.  1.
          3   -1    0    0  501    0  0.00000000000E+00 -0.00000000000E+00 -0.80049264209E+01  0.80049264209E+01  0.00000000000E+00 0. -1.
         25    2    1    2    0    0 -0.25504893954E+02  0.23829380718E+02  0.11315380165E+04  0.11389661764E+04  0.12508928500E+03 0.  0.
          5    1    3    3  502    0  0.14164443822E+02  0.64849838783E+02  0.77693820062E+03  0.77977982344E+03  0.41800000000E+01 0.  1.
         -5    1    3    3    0  502 -0.39669337776E+02 -0.41020458064E+02  0.35459981585E+03  0.35918635294E+03  0.41800000000E+01 0.  1.
        -11    1    1    2    0    0 -0.19558461600E+02 -0.44702435115E+02  0.27147025628E+03  0.27582048722E+03  0.00000000000E+00 0.  1.
         11    1    1    2    0    0  0.45063355554E+02  0.20873054397E+02  0.28931905193E+03  0.29355051392E+03  0.00000000000E+00 0. -1.
</event>
<event>
 7    1  0.2799003E-009  0.2474228E+03  0.7561462E-02  0.1114944E+00
         -1   -1    0    0    0  501 -0.00000000000E+00  0.00000000000E+00  0.31072149413E+02  0.31072149413E+02  0.00000000000E+00 0.  1.
          1   -1    0    0  501    0  0.00000000000E+00 -0.00000000000E+00 -0.24161169013E+04  0.24161169013E+04  0.00000000000E+00 0. -1.
         25    2    1    2    0    0 -0.22463053863E+03 -0.96514923478E+02 -0.14841310479E+04  0.15093266376E+04  0.12509165511E+03 0.  0.
          5    1    3    3  502    0 -0.94703788729E+02 -0.24437182362E+02 -0.29218708888E+03  0.30815053268E+03  0.41800000000E+01 0. -1.
         -5    1    3    3    0  502 -0.12992674991E+03 -0.72077741116E+02 -0.11919439591E+04  0.12011761049E+04  0.41800000000E+01 0. -1.
        -11    1    1    2    0    0  0.13071360626E+03  0.79128798146E+02 -0.40566503618E+03  0.43348764127E+03  0.00000000000E+00 0.  1.
         11    1    1    2    0    0  0.93916932379E+02  0.17386125332E+02 -0.49524866778E+03  0.50437477185E+03  0.00000000000E+00 0. -1.
</event>
<event>
 7    1  0.2530765E-009  0.1035705E+03  0.7561462E-02  0.1272962E+00
         -4   -1    0    0    0  501 -0.00000000000E+00  0.00000000000E+00  0.47116639296E+03  0.47116639296E+03  0.00000000000E+00 0.  1.
          4   -1    0    0  501    0  0.00000000000E+00 -0.00000000000E+00 -0.32194589046E+02  0.32194589046E+02  0.00000000000E+00 0. -1.
         25    2    1    2    0    0  0.47490652214E+02  0.36915818411E+02  0.24519109882E+03  0.28175173382E+03  0.12508886791E+03 0.  0.
          5    1    3    3  502    0  0.69085570752E+02  0.20460121678E+02  0.24378686838E+03  0.25424583037E+03  0.41800000000E+01 0. -1.
         -5    1    3    3    0  502 -0.21594918538E+02  0.16455696733E+02  0.14042304388E+01  0.27505903453E+02  0.41800000000E+01 0. -1.
        -11    1    1    2    0    0 -0.73967886471E+02 -0.22308061821E+02  0.14107066945E+03  0.16084101352E+03  0.00000000000E+00 0.  1.
         11    1    1    2    0    0  0.26477234258E+02 -0.14607756590E+02  0.52710035641E+02  0.60768234661E+02  0.00000000000E+00 0. -1.
</event>
<event>
 7    1  0.2530765E-009  0.1608123E+03  0.7561462E-02  0.1187783E+00
         -1   -1    0    0    0  501 -0.00000000000E+00  0.00000000000E+00  0.88270373394E+02  0.88270373394E+02  0.00000000000E+00 0.  1.
          1   -1    0    0  501    0  0.00000000000E+00 -0.00000000000E+00 -0.46855163473E+03  0.46855163473E+03  0.00000000000E+00 0. -1.
         25    2    1    2    0    0  0.12041342268E+03 -0.23720195804E+02 -0.36459795474E+03  0.40452141217E+03  0.12507543425E+03 0.  0.
          5    1    3    3  502    0  0.12414359266E+03  0.21736616362E+02 -0.22937748150E+03  0.26175487294E+03  0.41800000000E+01 0. -1.
         -5    1    3    3    0  502 -0.37301699755E+01 -0.45456812166E+02 -0.13522047324E+03  0.14276653923E+03  0.41800000000E+01 0. -1.
        -11    1    1    2    0    0 -0.11674656847E+03 -0.87235901064E+01 -0.25271134958E+01  0.11709931074E+03  0.00000000000E+00 0.  1.
         11    1    1    2    0    0 -0.36668542153E+01  0.32443785911E+02 -0.13156193103E+02  0.35201285218E+02  0.00000000000E+00 0. -1.
</event>
<event>
 7    1  0.2530765E-009  0.8891709E+02  0.7561462E-02  0.1305495E+00
         -2   -1    0    0    0  501 -0.00000000000E+00  0.00000000000E+00  0.12238051773E+03  0.12238051773E+03  0.00000000000E+00 0.  1.
          2   -1    0    0  501    0  0.00000000000E+00 -0.00000000000E+00 -0.18925098140E+03  0.18925098140E+03  0.00000000000E+00 0. -1.
         25    2    1    2    0    0  0.38278357406E+02 -0.32598807353E+02 -0.13218469972E+03  0.18880760886E+03  0.12509038107E+03 0.  0.
          5    1    3    3  502    0 -0.22179733195E+02  0.14900188981E+02 -0.10295435052E+03  0.10644729629E+03  0.41800000000E+01 0. -1.
         -5    1    3    3    0  502  0.60458090602E+02 -0.47498996334E+02 -0.29230349201E+02  0.82360312568E+02  0.41800000000E+01 0. -1.
        -11    1    1    2    0    0 -0.40313432056E+02 -0.80822865508E+00 -0.90061116198E+01  0.41315083011E+02  0.00000000000E+00 0. -1.
         11    1    1    2    0    0  0.20350746500E+01  0.33407036008E+02  0.74320347670E+02  0.81508807263E+02  0.00000000000E+00 0.  1.
</event>
<event>
 7    1  0.2530765E-009  0.1504209E+03  0.7561462E-02  0.1199957E+00
          2   -1    0    0  501    0  0.00000000000E+00  0.00000000000E+00  0.25568771277E+03  0.25568771277E+03  0.00000000000E+00 0. -1.
         -2   -1    0    0    0  501 -0.00000000000E+00 -0.00000000000E+00 -0.12090165327E+03  0.12090165327E+03  0.00000000000E+00 0.  1.
         25    2    1    2    0    0  0.11212127174E+03  0.46371502192E+02  0.14008756747E+03  0.22358950021E+03  0.12508494015E+03 0.  0.
          5    1    3    3  502    0  0.96758986441E+02  0.70464593238E+02  0.51427702954E+02  0.13034508579E+03  0.41800000000E+01 0. -1.
         -5    1    3    3    0  502  0.15362285302E+02 -0.24093091046E+02  0.88659864517E+02  0.93244414428E+02  0.41800000000E+01 0. -1.
        -11    1    1    2    0    0 -0.12375137752E+03 -0.57173363580E+02 -0.92817537024E+01  0.13663582214E+03  0.00000000000E+00 0.  1.
         11    1    1    2    0    0  0.11630105772E+02  0.10801861388E+02  0.39802457369E+01  0.16364043689E+02  0.00000000000E+00 0. -1.
</event>
<event>
 7    1  0.2530765E-009  0.1798269E+03  0.7561462E-02  0.1167971E+00
         -2   -1    0    0    0  501 -0.00000000000E+00  0.00000000000E+00  0.11377999925E+03  0.11377999925E+03  0.00000000000E+00 0.  1.
          2   -1    0    0  501    0  0.00000000000E+00 -0.00000000000E+00 -0.33646337604E+03  0.33646337604E+03  0.00000000000E+00 0. -1.
         25    2    1    2    0    0  0.14201134850E+03  0.49437764988E+02 -0.17517961345E+03  0.26257372838E+03  0.12508297309E+03 0.  0.
          5    1    3    3  502    0  0.77327478152E+02  0.90300922460E+02 -0.10519993947E+03  0.15880269248E+03  0.41800000000E+01 0. -1.
         -5    1    3    3    0  502  0.64683870347E+02 -0.40863157472E+02 -0.69979673980E+02  0.10377103590E+03  0.41800000000E+01 0. -1.
        -11    1    1    2    0    0 -0.28022694001E+02 -0.41143926053E+02 -0.53684270283E+02  0.73212669026E+02  0.00000000000E+00 0. -1.
         11    1    1    2    0    0 -0.11398865450E+03 -0.82938389351E+01  0.61805069400E+01  0.11445697788E+03  0.00000000000E+00 0.  1.
</event>
<event>
 7    1  0.2530765E-009  0.9305966E+02  0.7561462E-02  0.1295607E+00
          1   -1    0    0  501    0  0.00000000000E+00  0.00000000000E+00  0.11424759188E+02  0.11424759188E+02  0.00000000000E+00 0. -1.
         -1   -1    0    0    0  501 -0.00000000000E+00 -0.00000000000E+00 -0.17221016360E+04  0.17221016360E+04  0.00000000000E+00 0.  1.
         25    2    1    2    0    0  0.24520830732E+02 -0.10642568757E+02 -0.13970850311E+04  0.14029284756E+04  0.12508872184E+03 0.  0.
          5    1    3    3  502    0  0.27742123240E+02 -0.51124994566E+02 -0.33350973589E+03  0.33856994374E+03  0.41800000000E+01 0.  1.
         -5    1    3    3    0  502 -0.32212925080E+01  0.40482425809E+02 -0.10635752952E+04  0.10643585319E+04  0.41800000000E+01 0.  1.
        -11    1    1    2    0    0  0.25771657974E+02 -0.15726779857E+02 -0.34753726217E+02  0.46036197121E+02  0.00000000000E+00 0. -1.
         11    1    1    2    0    0 -0.50292488706E+02  0.26369348614E+02 -0.27883811956E+03  0.28456172246E+03  0.00000000000E+00 0.  1.
</event>
<event>
 7    1  0.2530765E-009  0.2764970E+03  0.7561462E-02  0.1097618E+00
         -1   -1    0    0    0  501 -0.00000000000E+00  0.00000000000E+00  0.24963327463E+03  0.24963327463E+03  0.00000000000E+00 0.  1.
          1   -1    0    0  501    0  0.00000000000E+00 -0.00000000000E+00 -0.48793377647E+03  0.48793377647E+03  0.00000000000E+00 0. -1.
         25    2    1    2    0    0 -0.26250107656E+03 -0.39956538968E+02 -0.33096918136E+03  0.44236863007E+03  0.12508423424E+03 0.  0.
          5    1    3    3  502    0 -0.10646049623E+03  0.19906874152E+02 -0.20896923586E+03  0.23540546899E+03  0.41800000000E+01 0. -1.
         -5    1    3    3    0  502 -0.15604058033E+03 -0.59863413120E+02 -0.12199994551E+03  0.20696316108E+03  0.41800000000E+01 0. -1.
        -11    1    1    2    0    0  0.12987365312E+03  0.60400801980E+02  0.26828857228E+02  0.14572306006E+03  0.00000000000E+00 0.  1.
         11    1    1    2    0    0  0.13262742344E+03 -0.20444263012E+02  0.65839822290E+02  0.14947536097E+03  0.00000000000E+00 0. -1.
</event>
<event>
 7    1  0.2530765E-009  0.1592060E+03  0.7561462E-02  0.1189596E+00
          3   -1    0    0  501    0  0.00000000000E+00  0.00000000000E+00  0.55863265334E+02  0.55863265334E+02  0.00000000000E+00 0. -1.
         -3   -1    0    0    0  501 -0.00000000000E+00 -0.00000000000E+00 -0.54850649083E+03  0.54850649083E+03  0.00000000000E+00 0.  1.
         25    2    1    2    0    0 -0.52651015813E+02  0.12515480519E+03 -0.29351541877E+03  0.34674859052E+03  0.12508968480E+03 0.  0.
          5    1    3    3  502    0 -0.74012440025E+02  0.53517301225E+02 -0.23359920633E+03  0.25085454831E+03  0.41800000000E+01 0.  1.
         -5    1    3    3    0  502  0.21361424212E+02  0.71637503962E+02 -0.59916212440E+02  0.95894042210E+02  0.41800000000E+01 0.  1.
        -11    1    1    2    0    0 -0.13239306384E+02 -0.51991144326E+02 -0.11950261951E+03  0.13099326086E+03  0.00000000000E+00 0.  1.
         11    1    1    2    0    0  0.65890322197E+02 -0.73163660860E+02 -0.79625187206E+02  0.12662790477E+03  0.00000000000E+00 0. -1.
</event>
<event>
 7    1  0.2530765E-009  0.1662288E+03  0.7561462E-02  0.1181839E+00
         -2   -1    0    0    0  501 -0.00000000000E+00  0.00000000000E+00  0.77900675516E+02  0.77900675516E+02  0.00000000000E+00 0.  1.
          2   -1    0    0  501    0  0.00000000000E+00 -0.00000000000E+00 -0.57315216502E+03  0.57315216502E+03  0.00000000000E+00 0. -1.
         25    2    1    2    0    0 -0.79187509433E+02  0.11218696719E+03 -0.44069778938E+03  0.47824508790E+03  0.12508894948E+03 0.  0.
          5    1    3    3  502    0 -0.10671772195E+03  0.51262238093E+02 -0.29437795303E+03  0.31732056483E+03  0.41800000000E+01 0.  1.
         -5    1    3    3    0  502  0.27530212520E+02  0.60924729099E+02 -0.14631983635E+03  0.16092452308E+03  0.41800000000E+01 0.  1.
        -11    1    1    2    0    0  0.43523039997E+02 -0.19495337893E+02 -0.55904790515E+02  0.73482438805E+02  0.00000000000E+00 0.  1.
         11    1    1    2    0    0  0.35664469436E+02 -0.92691629299E+02  0.13510903891E+01  0.99325313830E+02  0.00000000000E+00 0. -1.
</event>
<event>
 7    1  0.2530765E-009  0.1288279E+03  0.7561462E-02  0.1229205E+00
         -1   -1    0    0    0  501 -0.00000000000E+00  0.00000000000E+00  0.45029479034E+03  0.45029479034E+03  0.00000000000E+00 0.  1.
          1   -1    0    0  501    0  0.00000000000E+00 -0.00000000000E+00 -0.17148392010E+03  0.17148392010E+03  0.00000000000E+00 0. -1.
         25    2    1    2    0    0  0.48349252888E+02 -0.11643699211E+03  0.39310640551E+03  0.43136394614E+03  0.12508790747E+03 0.  0.
          5    1    3    3  502    0  0.24643517890E+02 -0.41822238092E+02  0.24544757625E+02  0.54555660567E+02  0.41800000000E+01 0. -1.
         -5    1    3    3    0  502  0.23705734998E+02 -0.74614754019E+02  0.36856164788E+03  0.37680828557E+03  0.41800000000E+01 0. -1.
        -11    1    1    2    0    0 -0.24025013821E+02  0.95380534565E+02 -0.34260887208E+02  0.10415592184E+03  0.00000000000E+00 0.  1.
         11    1    1    2    0    0 -0.24324239067E+02  0.21056457547E+02 -0.80034648062E+02  0.86258842451E+02  0.00000000000E+00 0. -1.
</event>
<event>
 7    1  0.2530765E-009  0.9208401E+02  0.7561462E-02  0.1297882E+00
         -1   -1    0    0    0  501 -0.00000000000E+00  0.00000000000E+00  0.10709475327E+03  0.10709475327E+03  0.00000000000E+00 0.  1.
          1   -1    0    0  501    0  0.00000000000E+00 -0.00000000000E+00 -0.11136455528E+03  0.11136455528E+03  0.00000000000E+00 0. -1.
         25    2    1    2    0    0 -0.71702413005E+01  0.10226711032E+02 -0.16470018851E+02  0.12679303404E+03  0.12509681843E+03 0.  0.
          5    1    3    3  502    0 -0.59500613723E+02 -0.17245645331E+02  0.81649676771E+01  0.62624870566E+02  0.41800000000E+01 0.  1.
         -5    1    3    3    0  502  0.52330372422E+02  0.27472356363E+02 -0.24634986528E+02  0.64168163471E+02  0.41800000000E+01 0.  1.
        -11    1    1    2    0    0  0.21797543463E+01  0.26083911260E+02  0.38499831994E+02  0.46554901130E+02  0.00000000000E+00 0.  1.
         11    1    1    2    0    0  0.49904869542E+01 -0.36310622292E+02 -0.26299615157E+02  0.45111373385E+02  0.00000000000E+00 0. -1.
</event>
<event>
 7    1  0.2530765E-009  0.1545722E+03  0.7561462E-02  0.1194965E+00
         -2   -1    0    0    0  501 -0.00000000000E+00  0.00000000000E+00  0.10828136425E+03  0.10828136425E+03  0.00000000000E+00 0.  1.
          2   -1    0    0  501    0  0.00000000000E+00 -0.00000000000E+00 -0.24815720911E+03  0.24815720911E+03  0.00000000000E+00 0. -1.
         25    2    1    2    0    0  0.64083448640E+02 -0.10390837814E+03 -0.60810807358E+02  0.18506608944E+03  0.12509142150E+03 0.  0.
          5    1    3    3  502    0 -0.29234662677E+02 -0.49227615883E+02  0.62352614183E+01  0.57744043436E+02  0.41800000000E+01 0.  1.
         -5    1    3    3    0  502  0.93318111317E+02 -0.54680762257E+02 -0.67046068776E+02  0.12732204601E+03  0.41800000000E+01 0.  1.
        -11    1    1    2    0    0 -0.36764491052E+02  0.10959246689E+03 -0.84187285490E+02  0.14300222250E+03  0.00000000000E+00 0.  1.
         11    1    1    2    0    0 -0.27318957588E+02 -0.56840887468E+01  0.51222479911E+01  0.28370261421E+02  0.00000000000E+00 0. -1.
</event>
<event>
 7    1  0.2530765E-009  0.1453008E+03  0.7561462E-02  0.1206369E+00
         -2   -1    0    0    0  501 -0.00000000000E+00  0.00000000000E+00  0.13117555626E+03  0.13117555626E+03  0.00000000000E+00 0.  1.
          2   -1    0    0  501    0  0.00000000000E+00 -0.00000000000E+00 -0.19928563582E+03  0.19928563582E+03  0.00000000000E+00 0. -1.
         25    2    1    2    0    0  0.11908505140E+03 -0.11706354939E+02 -0.32666991778E+02  0.17614768626E+03  0.12507032746E+03 0.  0.
          5    1    3    3  502    0  0.81479308531E+02 -0.44582219404E+02 -0.67686367713E+02  0.11500160338E+03  0.41800000000E+01 0.  1.
         -5    1    3    3    0  502  0.37605742865E+02  0.32875864465E+02  0.35019375936E+02  0.61146082881E+02  0.41800000000E+01 0.  1.
        -11    1    1    2    0    0 -0.67535329170E+02 -0.36636960569E+02 -0.32944265037E+02  0.83597919620E+02  0.00000000000E+00 0. -1.
         11    1    1    2    0    0 -0.51549722226E+02  0.48343315508E+02 -0.24988227423E+01  0.70715586195E+02  0.00000000000E+00 0.  1.
</event>
<event>
 7    1  0.2530765E-009  0.1052525E+03  0.7561462E-02  0.1269623E+00
          2   -1    0    0  501    0  0.00000000000E+00  0.00000000000E+00  0.82728437729E+02  0.82728437729E+02  0.00000000000E+00 0.  1.
         -2   -1    0    0    0  501 -0.00000000000E+00 -0.00000000000E+00 -0.15946247411E+03  0.15946247411E+03  0.00000000000E+00 0. -1.
         25    2    1    2    0    0  0.94097888141E+01  0.24079858604E+02 -0.72675956396E+02  0.14696264736E+03  0.12509133210E+03 0.  0.
          5    1    3    3  502    0 -0.49200909772E+02  0.30288672214E+02 -0.65501951523E+02  0.87442045037E+02  0.41800000000E+01 0. -1.
         -5    1    3    3    0  502  0.58610698586E+02 -0.62088136099E+01 -0.71740048725E+01  0.59520602325E+02  0.41800000000E+01 0. -1.
        -11    1    1    2    0    0  0.22379128160E+02 -0.48493826718E+02  0.64364908133E+01  0.53795027846E+02  0.00000000000E+00 0.  1.
         11    1    1    2    0    0 -0.31788916974E+02  0.24413968115E+02 -0.10494570799E+02  0.41433236631E+02  0.00000000000E+00 0. -1.
</event>
<event>
 7    1  0.2530765E-009  0.1210019E+03  0.7561462E-02  0.1241453E+00
         -2   -1    0    0    0  501 -0.00000000000E+00  0.00000000000E+00  0.18114243647E+02  0.18114243647E+02  0.00000000000E+00 0.  1.
          2   -1    0    0  501    0  0.00000000000E+00 -0.00000000000E+00 -0.82894421615E+03  0.82894421615E+03  0.00000000000E+00 0. -1.
         25    2    1    2    0    0 -0.56090178731E+02 -0.22262557123E+01 -0.48650324641E+03  0.50545441355E+03  0.12509073127E+03 0.  0.
          5    1    3    3  502    0 -0.59682448632E+02  0.52775257203E+02 -0.24320638104E+03  0.25595710309E+03  0.41800000000E+01 0.  1.
         -5    1    3    3    0  502  0.35922699005E+01 -0.55001512915E+02 -0.24329686537E+03  0.24949731046E+03  0.41800000000E+01 0.  1.
        -11    1    1    2    0    0 -0.24590176352E+02  0.85151677649E+01 -0.90657032760E+02  0.94317985793E+02  0.00000000000E+00 0. -1.
         11    1    1    2    0    0  0.80680355084E+02 -0.62889120526E+01 -0.23366969334E+03  0.24728606046E+03  0.00000000000E+00 0.  1.
</event>
<event>
 7    1  0.2530765E-009  0.1016413E+03  0.7561462E-02  0.1276882E+00
          1   -1    0    0  501    0  0.00000000000E+00  0.00000000000E+00  0.16631057274E+03  0.16631057274E+03  0.00000000000E+00 0. -1.
         -1   -1    0    0    0  501 -0.00000000000E+00 -0.00000000000E+00 -0.76983446030E+02  0.76983446030E+02  0.00000000000E+00 0.  1.
         25    2    1    2    0    0 -0.16892229661E+02  0.21421411218E+02  0.56038532722E+02  0.13975481501E+03  0.12508743697E+03 0.  0.
          5    1    3    3  502    0  0.22151936005E+02  0.59256515686E+02  0.56944169788E+02  0.85218271473E+02  0.41800000000E+01 0. -1.
         -5    1    3    3    0  502 -0.39044165666E+02 -0.37835104468E+02 -0.90563706541E+00  0.54536543538E+02  0.41800000000E+01 0. -1.
        -11    1    1    2    0    0  0.41626214325E+02 -0.37356937144E+02 -0.39606856631E+01  0.56071111125E+02  0.00000000000E+00 0.  1.
         11    1    1    2    0    0 -0.24733984664E+02  0.15935525926E+02  0.37249279650E+02  0.47468092634E+02  0.00000000000E+00 0. -1.
</event>
<event>
 7    1  0.2530765E-009  0.2090973E+03  0.7561462E-02  0.1142283E+00
          2   -1    0    0  501    0  0.00000000000E+00  0.00000000000E+00  0.81403473369E+03  0.81403473369E+03  0.00000000000E+00 0. -1.
         -2   -1    0    0    0  501 -0.00000000000E+00 -0.00000000000E+00 -0.14858468228E+03  0.14858468228E+03  0.00000000000E+00 0.  1.
         25    2    1    2    0    0  0.20076801316E+03  0.31190245970E+02  0.69499309253E+03  0.73480762861E+03  0.12508487457E+03 0.  0.
          5    1    3    3  502    0  0.13803150276E+03  0.48922930280E+02  0.29348895432E+03  0.32802345583E+03  0.41800000000E+01 0. -1.
         -5    1    3    3    0  502  0.62736510399E+02 -0.17732684310E+02  0.40150413821E+03  0.40678417278E+03  0.41800000000E+01 0. -1.
        -11    1    1    2    0    0 -0.14579652652E+03 -0.60710586110E+01 -0.62759724398E+02  0.15884668050E+03  0.00000000000E+00 0.  1.
         11    1    1    2    0    0 -0.54971486640E+02 -0.25119187359E+02  0.33216683281E+02  0.68965106867E+02  0.00000000000E+00 0. -1.
</event>
<event>
 7    1  0.2530765E-009  0.8570253E+02  0.7561462E-02  0.1313605E+00
          4   -1    0    0  501    0  0.00000000000E+00  0.00000000000E+00  0.16323566370E+03  0.16323566370E+03  0.00000000000E+00 0.  1.
         -4   -1    0    0    0  501 -0.00000000000E+00 -0.00000000000E+00 -0.78629471006E+02  0.78629471006E+02  0.00000000000E+00 0. -1.
         25    2    1    2    0    0 -0.99725194172E+01  0.13911689518E+02  0.15421839920E+02  0.12719325670E+03  0.12508918880E+03 0.  0.
          5    1    3    3  502    0  0.20062800532E+02  0.37769942783E+02  0.56402045419E+02  0.70906612318E+02  0.41800000000E+01 0.  1.
         -5    1    3    3    0  502 -0.30035319949E+02 -0.23858253264E+02 -0.40980205499E+02  0.56286644384E+02  0.41800000000E+01 0.  1.
        -11    1    1    2    0    0 -0.28382298780E+02 -0.35801257122E+02  0.24475775248E+02  0.51829995847E+02  0.00000000000E+00 0. -1.
         11    1    1    2    0    0  0.38354818197E+02  0.21889567604E+02  0.44708577528E+02  0.62841882160E+02  0.00000000000E+00 0.  1.
</event>
<event>
 7    1  0.3378199E-009  0.1306795E+03  0.7561462E-02  0.1226451E+00
          2   -1    0    0  501    0  0.00000000000E+00  0.00000000000E+00  0.25667379187E+03  0.25667379187E+03  0.00000000000E+00 0. -1.
         -2   -1    0    0    0  501 -0.00000000000E+00 -0.00000000000E+00 -0.80389481024E+02  0.80389481024E+02  0.00000000000E+00 0.  1.
         25    2    1    2    0    0 -0.83238778922E+02  0.36173523621E+02  0.12297493442E+03  0.19750268484E+03  0.12508899990E+03 0.  0.
          5    1    3    3  502    0 -0.10365074990E+03 -0.73580490602E+01  0.67538259104E+02  0.12400204709E+03  0.41800000000E+01 0. -1.
         -5    1    3    3    0  502  0.20411970974E+02  0.43531572681E+02  0.55436675312E+02  0.73500637744E+02  0.41800000000E+01 0. -1.
        -11    1    1    2    0    0  0.64874360311E+02  0.39309060518E+01 -0.64198917428E+01  0.65309644450E+02  0.00000000000E+00 0.  1.
         11    1    1    2    0    0  0.18364418611E+02 -0.40104429673E+02  0.59729268177E+02  0.74250943612E+02  0.00000000000E+00 0. -1.
</event>
<event>
 7    1  0.2530765E-009  0.1255260E+03  0.7561462E-02  0.1234250E+00
         -1   -1    0    0    0  501 -0.00000000000E+00  0.00000000000E+00  0.79551246981E+02  0.79551246981E+02  0.00000000000E+00 0.  1.
          1   -1    0    0  501    0  0.00000000000E+00 -0.00000000000E+00 -0.19987669632E+03  0.19987669632E+03  0.00000000000E+00 0. -1.
         25    2    1    2    0    0 -0.49396413490E+02  0.36818277165E+02 -0.64961556834E+02  0.15383158427E+03  0.12509420951E+03 0.  0.
          5    1    3    3  502    0 -0.82899427737E+02 -0.66769645752E+01 -0.29523088533E+02  0.88351469323E+02  0.41800000000E+01 0.  1.
         -5    1    3    3    0  502  0.33503014247E+02  0.43495241740E+02 -0.35438468301E+02  0.65480114945E+02  0.41800000000E+01 0.  1.
        -11    1    1    2    0    0  0.19591674396E+02  0.32113739059E+02 -0.19530400709E+02  0.42385876113E+02  0.00000000000E+00 0. -1.
         11    1    1    2    0    0  0.29804739094E+02 -0.68932016225E+02 -0.35833491792E+02  0.83210482917E+02  0.00000000000E+00 0.  1.
</event>
<event>
 7    1  0.2530765E-009  0.4213323E+03  0.7561462E-02  0.1036634E+00
          1   -1    0    0  501    0  0.00000000000E+00  0.00000000000E+00  0.13231040667E+04  0.13231040667E+04  0.00000000000E+00 0. -1.
         -1   -1    0    0    0  501 -0.00000000000E+00 -0.00000000000E+00 -0.26079390731E+03  0.26079390731E+03  0.00000000000E+00 0.  1.
         25    2    1    2    0    0 -0.37988707537E+03  0.16743283021E+03  0.10747064995E+04  0.11588743890E+04  0.12509135374E+03 0.  0.
          5    1    3    3  502    0 -0.32608791604E+03  0.10889376284E+03  0.75826402893E+03  0.83257011149E+03  0.41800000000E+01 0.  1.
         -5    1    3    3    0  502 -0.53799159333E+02  0.58539067367E+02  0.31644247055E+03  0.32630427751E+03  0.41800000000E+01 0.  1.
        -11    1    1    2    0    0  0.24600616270E+03 -0.13831453396E+03 -0.40633172486E+02  0.28513329707E+03  0.00000000000E+00 0. -1.
         11    1    1    2    0    0  0.13388091267E+03 -0.29118296246E+02  0.28236832374E+02  0.13989028792E+03  0.00000000000E+00 0.  1.
</event>
<event>
 7    1  0.3426684E-009  0.1300166E+03  0.7561462E-02  0.1227431E+00
          2   -1    0    0  501    0  0.00000000000E+00  0.00000000000E+00  0.57729235826E+03  0.57729235826E+03  0.00000000000E+00 0. -1.
         -2   -1    0    0    0  501 -0.00000000000E+00 -0.00000000000E+00 -0.31595672175E+02  0.31595672175E+02  0.00000000000E+00 0.  1.
         25    2    1    2    0    0  0.54608146706E+02 -0.51640362324E+02  0.23786905150E+03  0.27906875827E+03  0.12509560133E+03 0.  0.
          5    1    3    3  502    0  0.10147821838E+02 -0.87208193631E+02  0.12832982800E+03  0.15554505610E+03  0.41800000000E+01 0. -1.
         -5    1    3    3    0  502  0.44460324868E+02  0.35567831307E+02  0.10953922351E+03  0.12352370217E+03  0.41800000000E+01 0. -1.
        -11    1    1    2    0    0  0.54337954619E+00  0.59356056144E+02  0.11949814035E+03  0.13342879078E+03  0.00000000000E+00 0. -1.
         11    1    1    2    0    0 -0.55151526252E+02 -0.77156938197E+01  0.18832949423E+03  0.19639048138E+03  0.00000000000E+00 0.  1.
</event>
<event>
 7    1  0.2530765E-009  0.1026339E+03  0.7561462E-02  0.1274853E+00
          1   -1    0    0  501    0  0.00000000000E+00  0.00000000000E+00  0.54718761720E+02  0.54718761720E+02  0.00000000000E+00 0. -1.
         -1   -1    0    0    0  501 -0.00000000000E+00 -0.00000000000E+00 -0.26405426998E+03  0.26405426998E+03  0.00000000000E+00 0.  1.
         25    2    1    2    0    0  0.35081273877E+02 -0.28252483866E+02 -0.82863499188E+02  0.15666132326E+03  0.12509001593E+03 0.  0.
          5    1    3    3  502    0  0.51783031236E+02 -0.62864422122E+02 -0.85190856595E+02  0.11793376251E+03  0.41800000000E+01 0.  1.
         -5    1    3    3    0  502 -0.16701757359E+02  0.34611938256E+02  0.23273574072E+01  0.38727560745E+02  0.41800000000E+01 0.  1.
        -11    1    1    2    0    0  0.40811747864E+00 -0.22842601676E+02 -0.19686330772E+01  0.22930907688E+02  0.00000000000E+00 0. -1.
         11    1    1    2    0    0 -0.35489391356E+02  0.51095085542E+02 -0.12450337600E+03  0.13918080076E+03  0.00000000000E+00 0.  1.
</event>
<event>
 7    1  0.2530765E-009  0.1108515E+03  0.7561462E-02  0.1259001E+00
         -4   -1    0    0    0  501 -0.00000000000E+00  0.00000000000E+00  0.19340158285E+04  0.19340158285E+04  0.00000000000E+00 0.  1.
          4   -1    0    0  501    0  0.00000000000E+00 -0.00000000000E+00 -0.75375639313E+01  0.75375639313E+01  0.00000000000E+00 0. -1.
         25    2    1    2    0    0  0.12096768339E+02 -0.19718859825E+02  0.14627321972E+04  0.14682536486E+04  0.12509248823E+03 0.  0.
          5    1    3    3  502    0 -0.52294368883E+02  0.14050239698E+02  0.64984200688E+03  0.65210751917E+03  0.41800000000E+01 0. -1.
         -5    1    3    3    0  502  0.64391137222E+02 -0.33769099522E+02  0.81289019034E+03  0.81614612943E+03  0.41800000000E+01 0. -1.
        -11    1    1    2    0    0  0.34748634882E+02  0.30790962741E+02  0.21982796369E+03  0.22467728998E+03  0.00000000000E+00 0.  1.
         11    1    1    2    0    0 -0.46845403221E+02 -0.11072102916E+02  0.24391810368E+03  0.24862245387E+03  0.00000000000E+00 0. -1.
</event>
<event>
 7    1  0.2750917E-009  0.2224613E+03  0.7561462E-02  0.1132061E+00
          1   -1    0    0  501    0  0.00000000000E+00  0.00000000000E+00  0.11187948559E+04  0.11187948559E+04  0.00000000000E+00 0. -1.
         -1   -1    0    0    0  501 -0.00000000000E+00 -0.00000000000E+00 -0.48461072987E+02  0.48461072987E+02  0.00000000000E+00 0.  1.
         25    2    1    2    0    0 -0.73063559195E+02  0.18891816519E+03  0.46339462885E+03  0.52097104791E+03  0.12509154205E+03 0.  0.
          5    1    3    3  502    0  0.24566144089E+02  0.39837603020E+00  0.63101629263E+02  0.67844986215E+02  0.41800000000E+01 0.  1.
         -5    1    3    3    0  502 -0.97629703284E+02  0.18851978916E+03  0.40029299958E+03  0.45312606169E+03  0.41800000000E+01 0.  1.
        -11    1    1    2    0    0  0.20172406276E+02 -0.11506464506E+03  0.22299666361E+03  0.25174254806E+03  0.00000000000E+00 0.  1.
         11    1    1    2    0    0  0.52891152918E+02 -0.73853520130E+02  0.38394249041E+03  0.39454233288E+03  0.00000000000E+00 0. -1.
</event>
<event>
 7    1  0.2530765E-009  0.1167852E+03  0.7561462E-02  0.1248497E+00
          4   -1    0    0  501    0  0.00000000000E+00  0.00000000000E+00  0.19191851684E+03  0.19191851684E+03  0.00000000000E+00 0. -1.
         -4   -1    0    0    0  501 -0.00000000000E+00 -0.00000000000E+00 -0.84286817185E+02  0.84286817185E+02  0.00000000000E+00 0.  1.
         25    2    1    2    0    0 -0.58314319402E+02  0.28419305627E+02  0.52499867364E+02  0.15037225230E+03  0.12508941366E+03 0.  0.
          5    1    3    3  502    0 -0.40256711374E+02  0.77538871203E+02  0.41133355053E+02  0.96655598162E+02  0.41800000000E+01 0.  1.
         -5    1    3    3    0  502 -0.18057608028E+02 -0.49119565576E+02  0.11366512311E+02  0.53716654142E+02  0.41800000000E+01 0.  1.
        -11    1    1    2    0    0  0.37866577878E+02  0.18705008454E+02 -0.94837518258E+01  0.43286217323E+02  0.00000000000E+00 0.  1.
         11    1    1    2    0    0  0.20447741524E+02 -0.47124314080E+02  0.64615584115E+02  0.82546864395E+02  0.00000000000E+00 0. -1.
</event>
<event>
 7    1  0.2530765E-009  0.1391454E+03  0.7561462E-02  0.1214484E+00
          2   -1    0    0  501    0  0.00000000000E+00  0.00000000000E+00  0.10122404031E+04  0.10122404031E+04  0.00000000000E+00 0. -1.
         -2   -1    0    0    0  501 -0.00000000000E+00 -0.00000000000E+00 -0.24192246357E+02  0.24192246357E+02  0.00000000000E+00 0.  1.
         25    2    1    2    0    0  0.93855353649E+02  0.57118700893E+02  0.61543795080E+03  0.63755978754E+03  0.12508892034E+03 0.  0.
          5    1    3    3  502    0  0.11121432884E+03  0.24731569727E+02  0.31775805564E+03  0.33759136808E+03  0.41800000000E+01 0.  1.
         -5    1    3    3    0  502 -0.17358975186E+02  0.32387131166E+02  0.29767989516E+03  0.29996841945E+03  0.41800000000E+01 0.  1.
        -11    1    1    2    0    0 -0.12416205703E+02  0.14330611105E+02  0.12237445199E+02  0.22567313613E+02  0.00000000000E+00 0.  1.
         11    1    1    2    0    0 -0.81439147947E+02 -0.71449311998E+02  0.36037276071E+03  0.37630554828E+03  0.00000000000E+00 0. -1.
</event>
<event>
 7    1  0.2530765E-009  0.2074176E+03  0.7561462E-02  0.1143627E+00
         -1   -1    0    0    0  501 -0.00000000000E+00  0.00000000000E+00  0.51552094657E+03  0.51552094657E+03  0.00000000000E+00 0.  1.
          1   -1    0    0  501    0  0.00000000000E+00 -0.00000000000E+00 -0.10011899321E+03  0.10011899321E+03  0.00000000000E+00 0. -1.
         25    2    1    2    0    0 -0.18625097823E+03  0.62296325757E+02  0.15673411094E+03  0.28068354877E+03  0.12508962355E+03 0.  0.
          5    1    3    3  502    0  0.62103676879E+01  0.16238584035E+02 -0.11203360137E+02  0.21100899427E+02  0.41800000000E+01 0.  1.
         -5    1    3    3    0  502 -0.19246134592E+03  0.46057741722E+02  0.16793747108E+03  0.25958264934E+03  0.41800000000E+01 0.  1.
        -11    1    1    2    0    0  0.40180969095E+02  0.86186657966E-01  0.12658704538E+02  0.42127906501E+02  0.00000000000E+00 0. -1.
         11    1    1    2    0    0  0.14607000914E+03 -0.62382512415E+02  0.24600913788E+03  0.29282848451E+03  0.00000000000E+00 0.  1.
</event>
<event>
 7    1  0.2530765E-009  0.9216240E+02  0.7561462E-02  0.1297698E+00
         -1   -1    0    0    0  501 -0.00000000000E+00  0.00000000000E+00  0.78414198604E+02  0.78414198604E+02  0.00000000000E+00 0. -1.
          1   -1    0    0  501    0  0.00000000000E+00 -0.00000000000E+00 -0.24060143821E+03  0.24060143821E+03  0.00000000000E+00 0.  1.
         25    2    1    2    0    0  0.21967215013E+02  0.53209108094E+02 -0.15797712239E+03  0.20956602756E+03  0.12508949191E+03 0.  0.
          5    1    3    3  502    0  0.57262210769E+01  0.65695735023E+02 -0.18621926959E+02  0.68651058053E+02  0.41800000000E+01 0. -1.
         -5    1    3    3    0  502  0.16240993936E+02 -0.12486626929E+02 -0.13935519543E+03  0.14091496950E+03  0.41800000000E+01 0. -1.
        -11    1    1    2    0    0  0.18615186041E+02 -0.53615214337E+02 -0.27058962650E+02  0.62875303733E+02  0.00000000000E+00 0.  1.
         11    1    1    2    0    0 -0.40582401054E+02  0.40610624323E+00  0.22848845435E+02  0.46574305526E+02  0.00000000000E+00 0. -1.
</event>
<event>
 7    1  0.2530765E-009  0.1338597E+03  0.7561462E-02  0.1221838E+00
         -2   -1    0    0    0  501 -0.00000000000E+00  0.00000000000E+00  0.15751952360E+02  0.15751952360E+02  0.00000000000E+00 0.  1.
          2   -1    0    0  501    0  0.00000000000E+00 -0.00000000000E+00 -0.28477700314E+04  0.28477700314E+04  0.00000000000E+00 0. -1.
         25    2    1    2    0    0  0.10190061635E+03 -0.66811206323E+01 -0.24894585184E+04  0.24946897219E+04  0.12507885863E+03 0.  0.
          5    1    3    3  502    0  0.23727869609E+02  0.54794159941E+02 -0.74946859851E+03  0.75185508199E+03  0.41800000000E+01 0. -1.
         -5    1    3    3    0  502  0.78172746743E+02 -0.61475280573E+02 -0.17399899199E+04  0.17428346399E+04  0.41800000000E+01 0. -1.
        -11    1    1    2    0    0 -0.14895392208E+02  0.14729600173E+02 -0.70057660212E+01  0.22088788737E+02  0.00000000000E+00 0.  1.
         11    1    1    2    0    0 -0.87005224144E+02 -0.80484795408E+01 -0.33555379465E+03  0.34674347312E+03  0.00000000000E+00 0. -1.
</event>
<event>
 7    1  0.2530765E-009  0.1386415E+03  0.7561462E-02  0.1215169E+00
          1   -1    0    0  501    0  0.00000000000E+00  0.00000000000E+00  0.28099169823E+03  0.28099169823E+03  0.00000000000E+00 0.  1.
         -1   -1    0    0    0  501 -0.00000000000E+00 -0.00000000000E+00 -0.11030194495E+03  0.11030194495E+03  0.00000000000E+00 0. -1.
         25    2    1    2    0    0  0.53393794109E+02 -0.93300166225E+02  0.18680292415E+03  0.24919609194E+03  0.12509013349E+03 0.  0.
          5    1    3    3  502    0  0.50175337844E+02 -0.11317389424E+03  0.19153301475E+03  0.22809704734E+03  0.41800000000E+01 0. -1.
         -5    1    3    3    0  502  0.32184562653E+01  0.19873728016E+02 -0.47300905954E+01  0.21099044600E+02  0.41800000000E+01 0. -1.
        -11    1    1    2    0    0 -0.94235655138E+01  0.88069579713E+02 -0.33262930006E+02  0.94612245351E+02  0.00000000000E+00 0. -1.
         11    1    1    2    0    0 -0.43970228595E+02  0.52305865116E+01  0.17149759130E+02  0.47485305898E+02  0.00000000000E+00 0.  1.
</event>
<event>
 7    1  0.2530765E-009  0.1248140E+03  0.7561462E-02  0.1235360E+00
         -1   -1    0    0    0  501 -0.00000000000E+00  0.00000000000E+00  0.37984644377E+03  0.37984644377E+03  0.00000000000E+00 0.  1.
          1   -1    0    0  501    0  0.00000000000E+00 -0.00000000000E+00 -0.56971612791E+02  0.56971612791E+02  0.00000000000E+00 0. -1.
         25    2    1    2    0    0 -0.92665434627E+02  0.17276830855E+02  0.13108693872E+03  0.20424809236E+03  0.12509247007E+03 0.  0.
          5    1    3    3  502    0 -0.85558724902E+02 -0.13759055921E+02  0.20574946402E+02  0.89165059559E+02  0.41800000000E+01 0. -1.
         -5    1    3    3    0  502 -0.71067097249E+01  0.31035886777E+02  0.11051199232E+03  0.11508303280E+03  0.41800000000E+01 0. -1.
        -11    1    1    2    0    0 -0.15242480315E+02 -0.17021466183E+02  0.24521897819E+02  0.33516965702E+02  0.00000000000E+00 0.  1.
         11    1    1    2    0    0  0.10790791494E+03 -0.25536467228E+00  0.16726599444E+03  0.19905299851E+03  0.00000000000E+00 0. -1.
</event>
<event>
 7    1  0.2530765E-009  0.1349910E+03  0.7561462E-02  0.1220232E+00
          2   -1    0    0  501    0  0.00000000000E+00  0.00000000000E+00  0.11772115072E+04  0.11772115072E+04  0.00000000000E+00 0.  1.
         -2   -1    0    0    0  501 -0.00000000000E+00 -0.00000000000E+00 -0.27141174404E+02  0.27141174404E+02  0.00000000000E+00 0. -1.
         25    2    1    2    0    0  0.26136667735E+02 -0.12565013909E+03  0.67701659547E+03  0.70033561542E+03  0.12508965120E+03 0.  0.
          5    1    3    3  502    0 -0.17433498102E+02 -0.18772398223E+02  0.39128927779E+03  0.39214933521E+03  0.41800000000E+01 0.  1.
         -5    1    3    3    0  502  0.43570165837E+02 -0.10687774087E+03  0.28572731767E+03  0.30818628021E+03  0.41800000000E+01 0.  1.
        -11    1    1    2    0    0 -0.17531605746E+02  0.98558680751E+02  0.46325910648E+03  0.47395165417E+03  0.00000000000E+00 0.  1.
         11    1    1    2    0    0 -0.86050619888E+01  0.27091458344E+02  0.97946308715E+01  0.30065412037E+02  0.00000000000E+00 0. -1.
</event>
<event>
 7    1  0.2530765E-009  0.1417072E+03  0.7561462E-02  0.1211050E+00
          1   -1    0    0  501    0  0.00000000000E+00  0.00000000000E+00  0.10976100888E+03  0.10976100888E+03  0.00000000000E+00 0. -1.
         -1   -1    0    0    0  501 -0.00000000000E+00 -0.00000000000E+00 -0.18696062206E+03  0.18696062206E+03  0.00000000000E+00 0.  1.
         25    2    1    2    0    0  0.87156266789E+02  0.31232487126E+02 -0.36991724676E+02  0.15995983512E+03  0.12508828108E+03 0.  0.
          5    1    3    3  502    0  0.63926032780E+02 -0.42079997517E+02 -0.58033844693E+01  0.76866218388E+02  0.41800000000E+01 0.  1.
         -5    1    3    3    0  502  0.23230234009E+02  0.73312484643E+02 -0.31188340207E+02  0.83093616731E+02  0.41800000000E+01 0.  1.
        -11    1    1    2    0    0  0.66250716183E+01  0.21265550471E+02 -0.79598573169E+00  0.22287862259E+02  0.00000000000E+00 0.  1.
         11    1    1    2    0    0 -0.93781338407E+02 -0.52498037597E+02 -0.39411902776E+02  0.11447393356E+03  0.00000000000E+00 0. -1.
</event>
<event>
 7    1  0.2530765E-009  0.1037023E+03  0.7561462E-02  0.1272698E+00
          1   -1    0    0  501    0  0.00000000000E+00  0.00000000000E+00  0.15968673191E+03  0.15968673191E+03  0.00000000000E+00 0. -1.
         -1   -1    0    0    0  501 -0.00000000000E+00 -0.00000000000E+00 -0.15956714418E+03  0.15956714418E+03  0.00000000000E+00 0.  1.
         25    2    1    2    0    0  0.15859705594E+02 -0.47740931385E+02 -0.10350741795E+03  0.16997058701E+03  0.12508192549E+03 0.  0.
          5    1    3    3  502    0  0.40389422704E+02 -0.74361682346E+02 -0.33617217710E+02  0.91151275330E+02  0.41800000000E+01 0. -1.
         -5    1    3    3    0  502 -0.24529717110E+02  0.26620750961E+02 -0.69890200244E+02  0.78819311678E+02  0.41800000000E+01 0. -1.
        -11    1    1    2    0    0  0.27043841472E+02  0.28276020851E+02  0.43162280606E+01  0.39364102192E+02  0.00000000000E+00 0.  1.
         11    1    1    2    0    0 -0.42903547066E+02  0.19464910534E+02  0.99310777622E+02  0.10991918688E+03  0.00000000000E+00 0. -1.
</event>
<event>
 7    1  0.2530765E-009  0.8398343E+02  0.7561462E-02  0.1318113E+00
         -2   -1    0    0    0  501 -0.00000000000E+00  0.00000000000E+00  0.57007195014E+02  0.57007195014E+02  0.00000000000E+00 0.  1.
          2   -1    0    0  501    0  0.00000000000E+00 -0.00000000000E+00 -0.28559376661E+03  0.28559376661E+03  0.00000000000E+00 0. -1.
         25    2    1    2    0    0  0.15802853917E+02  0.61377313312E+02 -0.99290258555E+02  0.17182229722E+03  0.12508973418E+03 0.  0.
          5    1    3    3  502    0 -0.16065708137E+02  0.60035888284E+01 -0.10598700181E+03  0.10744704281E+03  0.41800000000E+01 0.  1.
         -5    1    3    3    0  502  0.31868562055E+02  0.55373724484E+02  0.66967432509E+01  0.64375254414E+02  0.41800000000E+01 0.  1.
        -11    1    1    2    0    0 -0.22736097928E+02  0.17292533108E+01 -0.96818428320E+02  0.99467223387E+02  0.00000000000E+00 0. -1.
         11    1    1    2    0    0  0.69332440112E+01 -0.63106566623E+02 -0.32477884721E+02  0.71311441013E+02  0.00000000000E+00 0.  1.
</event>
<event>
 7    1  0.2530765E-009  0.1109837E+03  0.7561462E-02  0.1258759E+00
         -2   -1    0    0    0  501 -0.00000000000E+00  0.00000000000E+00  0.39536421257E+03  0.39536421257E+03  0.00000000000E+00 0.  1.
          2   -1    0    0  501    0  0.00000000000E+00 -0.00000000000E+00 -0.42472288514E+02  0.42472288514E+02  0.00000000000E+00 0. -1.
         25    2    1    2    0    0 -0.71798158072E+02  0.75799919599E+01  0.20583256849E+03  0.25144600124E+03  0.12508242685E+03 0.  0.
          5    1    3    3  502    0 -0.24059112102E+02  0.54577760203E+02  0.38400298610E+02  0.71060735411E+02  0.41800000000E+01 0.  1.
         -5    1    3    3    0  502 -0.47739045970E+02 -0.46997768243E+02  0.16743226988E+03  0.18038526583E+03  0.41800000000E+01 0.  1.
        -11    1    1    2    0    0 -0.82658352493E+01  0.10110400641E+02  0.78298210093E+02  0.79379808120E+02  0.00000000000E+00 0.  1.
         11    1    1    2    0    0  0.80063993321E+02 -0.17690392601E+02  0.68761145475E+02  0.10701069173E+03  0.00000000000E+00 0. -1.
</event>
<event>
 7    1  0.2530765E-009  0.1651722E+03  0.7561462E-02  0.1182978E+00
         -2   -1    0    0    0  501 -0.00000000000E+00  0.00000000000E+00  0.88235497102E+03  0.88235497102E+03  0.00000000000E+00 0.  1.
          2   -1    0    0  501    0  0.00000000000E+00 -0.00000000000E+00 -0.37308624107E+02  0.37308624107E+02  0.00000000000E+00 0. -1.
         25    2    1    2    0    0 -0.80483556947E+02  0.11922287389E+03  0.49967632867E+03  0.53480422644E+03  0.12508969017E+03 0.  0.
          5    1    3    3  502    0 -0.11530898838E+02  0.80965266764E+02  0.10959025126E+03  0.13680581720E+03  0.41800000000E+01 0.  1.
         -5    1    3    3    0  502 -0.68952658109E+02  0.38257607125E+02  0.39008607741E+03  0.39799840923E+03  0.41800000000E+01 0.  1.
        -11    1    1    2    0    0  0.38291041973E+02  0.47023852885E+01  0.69015677913E+02  0.79066302054E+02  0.00000000000E+00 0.  1.
         11    1    1    2    0    0  0.42192514974E+02 -0.12392525918E+03  0.27635434034E+03  0.30579306664E+03  0.00000000000E+00 0. -1.
</event>
<event>
 7    1  0.2530765E-009  0.9429659E+02  0.7561462E-02  0.1292768E+00
         -2   -1    0    0    0  501 -0.00000000000E+00  0.00000000000E+00  0.62653284192E+02  0.62653284192E+02  0.00000000000E+00 0.  1.
          2   -1    0    0  501    0  0.00000000000E+00 -0.00000000000E+00 -0.27858547377E+03  0.27858547377E+03  0.00000000000E+00 0. -1.
         25    2    1    2    0    0  0.50760940602E+02  0.12422036099E+02 -0.48641100484E+02  0.14402691519E+03  0.12508723185E+03 0.  0.
          5    1    3    3  502    0 -0.19109046886E+02 -0.25090975698E+02  0.21232824237E+02  0.38249417766E+02  0.41800000000E+01 0.  1.
         -5    1    3    3    0  502  0.69869987488E+02  0.37513011797E+02 -0.69873924721E+02  0.10577749742E+03  0.41800000000E+01 0.  1.
        -11    1    1    2    0    0 -0.45182380291E+02 -0.33060210033E+02 -0.16667235512E+03  0.17582405676E+03  0.00000000000E+00 0. -1.
         11    1    1    2    0    0 -0.55785603111E+01  0.20638173934E+02 -0.61873397406E+00  0.21387786005E+02  0.00000000000E+00 0.  1.
</event>
<event>
 7    1  0.2530765E-009  0.8202439E+02  0.7561462E-02  0.1323403E+00
          1   -1    0    0  501    0  0.00000000000E+00  0.00000000000E+00  0.61212920777E+03  0.61212920777E+03  0.00000000000E+00 0. -1.
         -1   -1    0    0    0  501 -0.00000000000E+00 -0.00000000000E+00 -0.30124538758E+02  0.30124538758E+02  0.00000000000E+00 0.  1.
         25    2    1    2    0    0  0.20097308715E+02  0.75352775544E+02  0.38143779581E+03  0.40893008831E+03  0.12508829863E+03 0.  0.
          5    1    3    3  502    0  0.16341450424E+02  0.26736808254E+02  0.84191774456E+01  0.32714749982E+02  0.41800000000E+01 0.  1.
         -5    1    3    3    0  502  0.37558582907E+01  0.48615967290E+02  0.37301861836E+03  0.37621533833E+03  0.41800000000E+01 0.  1.
        -11    1    1    2    0    0  0.61481311116E+01 -0.33759127103E+02  0.89034527548E+01  0.35450665013E+02  0.00000000000E+00 0.  1.
         11    1    1    2    0    0 -0.26245439826E+02 -0.41593648441E+02  0.19166342045E+03  0.19787299320E+03  0.00000000000E+00 0. -1.
</event>
<event>
 7    1  0.2530765E-009  0.1361997E+03  0.7561462E-02  0.1218536E+00
         -1   -1    0    0    0  501 -0.00000000000E+00  0.00000000000E+00  0.15403018562E+04  0.15403018562E+04  0.00000000000E+00 0.  1.
          1   -1    0    0  501    0  0.00000000000E+00 -0.00000000000E+00 -0.18705579895E+02  0.18705579895E+02  0.00000000000E+00 0. -1.
         25    2    1    2    0    0  0.12352850953E+03  0.32124111879E+02  0.91278663256E+03  0.93011672035E+03  0.12508567327E+03 0.  0.
          5    1    3    3  502    0  0.99410917005E+02  0.34045603326E+02  0.32030707692E+03  0.33712865415E+03  0.41800000000E+01 0.  1.
         -5    1    3    3    0  502  0.24117592530E+02 -0.19214914465E+01  0.59247955564E+03  0.59298806620E+03  0.41800000000E+01 0.  1.
        -11    1    1    2    0    0 -0.18873337444E+02 -0.33011512241E+02  0.66762868100E+02  0.76832567077E+02  0.00000000000E+00 0. -1.
         11    1    1    2    0    0 -0.10465517209E+03  0.88740036165E+00  0.54204677563E+03  0.55205814865E+03  0.00000000000E+00 0.  1.
</event>
<event>
 7    1  0.3001159E-009  0.6755613E+02  0.7561462E-02  0.1368606E+00
         -1   -1    0    0    0  501 -0.00000000000E+00  0.00000000000E+00  0.44320250336E+02  0.44320250336E+02  0.00000000000E+00 0.  1.
          1   -1    0    0  501    0  0.00000000000E+00 -0.00000000000E+00 -0.29765495351E+03  0.29765495351E+03  0.00000000000E+00 0. -1.
         25    2    1    2    0    0 -0.11294175715E+02 -0.22911930761E+02 -0.18399035449E+03  0.22394798042E+03  0.12509089660E+03 0.  0.
          5    1    3    3  502    0 -0.33006089480E+02  0.26643705915E+02 -0.13012518270E+02  0.44565536453E+02  0.41800000000E+01 0. -1.
         -5    1    3    3    0  502  0.21711913765E+02 -0.49555636677E+02 -0.17097783622E+03  0.17938244397E+03  0.41800000000E+01 0. -1.
        -11    1    1    2    0    0  0.13191189134E+02 -0.19110240131E+01  0.20691480323E+02  0.24612940530E+02  0.00000000000E+00 0.  1.
         11    1    1    2    0    0 -0.18970134196E+01  0.24822954775E+02 -0.90035829012E+02  0.93414282899E+02  0.00000000000E+00 0. -1.
</event>
<event>
 7    1  0.2530765E-009  0.1105831E+03  0.7561462E-02  0.1259494E+00
          1   -1    0    0  501    0  0.00000000000E+00  0.00000000000E+00  0.24773463906E+03  0.24773463906E+03  0.00000000000E+00 0. -1.
         -1   -1    0    0    0  501 -0.00000000000E+00 -0.00000000000E+00 -0.65789244672E+02  0.65789244672E+02  0.00000000000E+00 0.  1.
         25    2    1    2    0    0 -0.16704144813E+02  0.59359208219E+02  0.13330732162E+03  0.19292693120E+03  0.12508962679E+03 0.  0.
          5    1    3    3  502    0 -0.19774679022E+02  0.87894296436E+02  0.46637284705E+02  0.10153301926E+03  0.41800000000E+01 0. -1.
         -5    1    3    3    0  502  0.30705342089E+01 -0.28535088217E+02  0.86670036912E+02  0.91393911932E+02  0.41800000000E+01 0. -1.
        -11    1    1    2    0    0 -0.23403656049E+02  0.70079121165E+01 -0.66987385866E+01  0.25332095203E+02  0.00000000000E+00 0.  1.
         11    1    1    2    0    0  0.40107800863E+02 -0.66367120335E+02  0.55336811363E+02  0.95264857337E+02  0.00000000000E+00 0. -1.
</event>
<event>
 7    1  0.2530765E-009  0.1597206E+03  0.7561462E-02  0.1189013E+00
         -2   -1    0    0    0  501 -0.00000000000E+00  0.00000000000E+00  0.60569290204E+02  0.60569290204E+02  0.00000000000E+00 0. -1.
          2   -1    0    0  501    0  0.00000000000E+00 -0.00000000000E+00 -0.52002278867E+03  0.52002278867E+03  0.00000000000E+00 0.  1.
         25    2    1    2    0    0  0.10561373735E+03 -0.66606743747E+02 -0.13872821551E+03  0.22468573115E+03  0.12508972849E+03 0.  0.
          5    1    3    3  502    0  0.43164120353E+01  0.33633329556E+02 -0.27530402084E+02  0.43877416843E+02  0.41800000000E+01 0.  1.
         -5    1    3    3    0  502  0.10129732532E+03 -0.10024007330E+03 -0.11119781343E+03  0.18080831431E+03  0.41800000000E+01 0.  1.
        -11    1    1    2    0    0 -0.87773361924E+02  0.16230134329E+02 -0.12899438000E+03  0.15686660064E+03  0.00000000000E+00 0.  1.
         11    1    1    2    0    0 -0.17840375428E+02  0.50376609419E+02 -0.19173090296E+03  0.19903974709E+03  0.00000000000E+00 0. -1.
</event>
<event>
 7    1  0.2530765E-009  0.1289995E+03  0.7561462E-02  0.1228948E+00
          2   -1    0    0  501    0  0.00000000000E+00  0.00000000000E+00  0.66149130503E+03  0.66149130503E+03  0.00000000000E+00 0. -1.
         -2   -1    0    0    0  501 -0.00000000000E+00 -0.00000000000E+00 -0.36492209599E+02  0.36492209599E+02  0.00000000000E+00 0.  1.
         25    2    1    2    0    0  0.53535641744E+02 -0.45505288640E+02  0.52689711365E+03  0.54607933224E+03  0.12508106370E+03 0.  0.
          5    1    3    3  502    0 -0.14207368696E+02  0.34959904141E+02  0.15370271498E+03  0.15832258593E+03  0.41800000000E+01 0. -1.
         -5    1    3    3    0  502  0.67743010440E+02 -0.80465192781E+02  0.37319439867E+03  0.38775674631E+03  0.41800000000E+01 0. -1.
        -11    1    1    2    0    0 -0.44718722711E+02 -0.19771679913E+02  0.52787596835E+02  0.71952858645E+02  0.00000000000E+00 0. -1.
         11    1    1    2    0    0 -0.88169190327E+01  0.65276968553E+02  0.45314384938E+02  0.79951323735E+02  0.00000000000E+00 0.  1.
</event>
<event>
 7    1  0.2530765E-009  0.1170023E+03  0.7561462E-02  0.1248126E+00
          4   -1    0    0  501    0  0.00000000000E+00  0.00000000000E+00  0.96553042837E+02  0.96553042837E+02  0.00000000000E+00 0. -1.
         -4   -1    0    0    0  501 -0.00000000000E+00 -0.00000000000E+00 -0.14528574013E+03  0.14528574013E+03  0.00000000000E+00 0.  1.
         25    2    1    2    0    0  0.36655845869E+02 -0.33122071079E+02 -0.15541087375E+02  0.13538839551E+03  0.12509104530E+03 0.  0.
          5    1    3    3  502    0  0.77942405413E+02 -0.44484119446E+02 -0.59872406134E+00  0.89842564049E+02  0.41800000000E+01 0. -1.
         -5    1    3    3    0  502 -0.41286559544E+02  0.11362048367E+02 -0.14942363314E+02  0.45545831461E+02  0.41800000000E+01 0. -1.
        -11    1    1    2    0    0 -0.35861635093E+02 -0.24551087376E+02 -0.13772989751E+02  0.45590657043E+02  0.00000000000E+00 0.  1.
         11    1    1    2    0    0 -0.79421077575E+00  0.57673158455E+02 -0.19418620166E+02  0.60859730414E+02  0.00000000000E+00 0. -1.
</event>
<event>
 7    1  0.2530765E-009  0.6871237E+02  0.7561462E-02  0.1364527E+00
          1   -1    0    0  501    0  0.00000000000E+00  0.00000000000E+00  0.46652485527E+03  0.46652485527E+03  0.00000000000E+00 0. -1.
         -1   -1    0    0    0  501 -0.00000000000E+00 -0.00000000000E+00 -0.37713737054E+02  0.37713737054E+02  0.00000000000E+00 0.  1.
         25    2    1    2    0    0  0.52915346974E+02 -0.55985130581E+01  0.13415661715E+03  0.19099107332E+03  0.12509282501E+03 0.  0.
          5    1    3    3  502    0  0.23855431822E+02  0.13516784083E+02  0.14999928683E+03  0.15254194023E+03  0.41800000000E+01 0. -1.
         -5    1    3    3    0  502  0.29059915151E+02 -0.19115297142E+02 -0.15842669676E+02  0.38449133097E+02  0.41800000000E+01 0. -1.
        -11    1    1    2    0    0 -0.41975054638E+02 -0.20237441588E+02  0.27517195604E+03  0.27908970716E+03  0.00000000000E+00 0. -1.
         11    1    1    2    0    0 -0.10940292336E+02  0.25835954646E+02  0.19482545024E+02  0.34157811836E+02  0.00000000000E+00 0.  1.
</event>
<event>
 7    1  0.2699408E-009  0.1781709E+03  0.7561462E-02  0.1169585E+00
         -2   -1    0    0    0  501 -0.00000000000E+00  0.00000000000E+00  0.65590955477E+02  0.65590955477E+02  0.00000000000E+00 0.  1.
          2   -1    0    0  501    0  0.00000000000E+00 -0.00000000000E+00 -0.63479830037E+03  0.63479830037E+03  0.00000000000E+00 0. -1.
         25    2    1    2    0    0  0.13718589938E+03  0.60887071273E+02 -0.15107655612E+03  0.24698463986E+03  0.12510028010E+03 0.  0.
          5    1    3    3  502    0  0.15721370131E+03  0.57933575597E+02 -0.10849966377E+03  0.19965494359E+03  0.41800000000E+01 0.  1.
         -5    1    3    3    0  502 -0.20027801933E+02  0.29534956753E+01 -0.42576892352E+02  0.47329696273E+02  0.41800000000E+01 0.  1.
        -11    1    1    2    0    0 -0.48217162869E+02 -0.62683669515E+02 -0.13326682799E+03  0.15496510789E+03  0.00000000000E+00 0.  1.
         11    1    1    2    0    0 -0.88968736511E+02  0.17965982425E+01 -0.28486396078E+03  0.29843950810E+03  0.00000000000E+00 0. -1.
</event>
<event>
 7    1  0.2530765E-009  0.1391344E+03  0.7561462E-02  0.1214498E+00
         -1   -1    0    0    0  501 -0.00000000000E+00  0.00000000000E+00  0.14375046330E+03  0.14375046330E+03  0.00000000000E+00 0.  1.
          1   -1    0    0  501    0  0.00000000000E+00 -0.00000000000E+00 -0.15496936973E+03  0.15496936973E+03  0.00000000000E+00 0. -1.
         25    2    1    2    0    0 -0.54812504526E+02  0.83449116076E+02  0.10384312749E+02  0.16038795662E+03  0.12509315349E+03 0.  0.
          5    1    3    3  502    0 -0.90707429639E+02  0.63391016784E+02 -0.15198909307E+02  0.11177986422E+03  0.41800000000E+01 0. -1.
         -5    1    3    3    0  502  0.35894925113E+02  0.20058099292E+02  0.25583222056E+02  0.48608092401E+02  0.41800000000E+01 0. -1.
        -11    1    1    2    0    0  0.26367875130E+02  0.10238325495E+02 -0.28532045011E+02  0.40176681549E+02  0.00000000000E+00 0. -1.
         11    1    1    2    0    0  0.28444629396E+02 -0.93687441571E+02  0.69288258320E+01  0.98155194855E+02  0.00000000000E+00 0.  1.
</event>
<event>
 7    1  0.2530765E-009  0.7500067E+02  0.7561462E-02  0.1343869E+00
         -3   -1    0    0    0  501 -0.00000000000E+00  0.00000000000E+00  0.12280038733E+03  0.12280038733E+03  0.00000000000E+00 0.  1.
          3   -1    0    0  501    0  0.00000000000E+00 -0.00000000000E+00 -0.96417310032E+02  0.96417310032E+02  0.00000000000E+00 0. -1.
         25    2    1    2    0    0  0.22063934997E+01  0.18906394019E+02  0.24509304124E+02  0.12888025382E+03  0.12508834450E+03 0.  0.
          5    1    3    3  502    0 -0.43604831082E+02 -0.14159592587E+02 -0.26094965925E+02  0.52917813659E+02  0.41800000000E+01 0.  1.
         -5    1    3    3    0  502  0.45811224581E+02  0.33065986606E+02  0.50604270049E+02  0.75962440160E+02  0.41800000000E+01 0.  1.
        -11    1    1    2    0    0  0.18548584369E+02 -0.19006306728E+02 -0.37427483597E+02  0.45892332758E+02  0.00000000000E+00 0. -1.
         11    1    1    2    0    0 -0.20754977869E+02  0.99912709210E-01  0.39301256767E+02  0.44445110781E+02  0.00000000000E+00 0.  1.
</event>
<event>
 7    1  0.2530765E-009  0.7873160E+02  0.7561462E-02  0.1332690E+00
         -1   -1    0    0    0  501 -0.00000000000E+00  0.00000000000E+00  0.28959917485E+02  0.28959917485E+02  0.00000000000E+00 0.  1.
          1   -1    0    0  501    0  0.00000000000E+00 -0.00000000000E+00 -0.66172684679E+03  0.66172684679E+03  0.00000000000E+00 0. -1.
         25    2    1    2    0    0  0.20514999104E+02 -0.52465055073E+02 -0.50591418158E+03  0.52418600672E+03  0.12509341838E+03 0.  0.
          5    1    3    3  502    0  0.48924523115E+01 -0.21338369166E+02 -0.60520319984E+01  0.23094622309E+02  0.41800000000E+01 0. -1.
         -5    1    3    3    0  502  0.15622546792E+02 -0.31126685907E+02 -0.49986214958E+03  0.50109138441E+03  0.41800000000E+01 0. -1.
        -11    1    1    2    0    0  0.14251085682E+02 -0.17141998655E+02 -0.59687824582E+02  0.63714817463E+02  0.00000000000E+00 0. -1.
         11    1    1    2    0    0 -0.34766084786E+02  0.69607053729E+02 -0.67164923138E+02  0.10278594009E+03  0.00000000000E+00 0.  1.
</event>
<event>
 7    1  0.2530765E-009  0.1465976E+03  0.7561462E-02  0.1204717E+00
         -2   -1    0    0    0  501 -0.00000000000E+00  0.00000000000E+00  0.28576466812E+03  0.28576466812E+03  0.00000000000E+00 0.  1.
          2   -1    0    0  501    0  0.00000000000E+00 -0.00000000000E+00 -0.86697133345E+02  0.86697133345E+02  0.00000000000E+00 0. -1.
         25    2    1    2    0    0 -0.11031215110E+03 -0.80462151590E+01  0.13888316757E+03  0.21718618839E+03  0.12509114250E+03 0.  0.
          5    1    3    3  502    0 -0.13068518416E+02 -0.45739363938E+02  0.90098713751E+02  0.10197120283E+03  0.41800000000E+01 0. -1.
         -5    1    3    3    0  502 -0.97243632681E+02  0.37693148779E+02  0.48784453823E+02  0.11521498556E+03  0.41800000000E+01 0. -1.
        -11    1    1    2    0    0  0.67590269675E+00 -0.26196975103E+02  0.13894655977E+01  0.26242502999E+02  0.00000000000E+00 0. -1.
         11    1    1    2    0    0  0.10963624840E+03  0.34243190262E+02  0.58794901606E+02  0.12903311008E+03  0.00000000000E+00 0.  1.
</event>
<event>
 7    1  0.2530765E-009  0.1811916E+03  0.7561462E-02  0.1166655E+00
         -1   -1    0    0    0  501 -0.00000000000E+00  0.00000000000E+00  0.23808412479E+03  0.23808412479E+03  0.00000000000E+00 0.  1.
          1   -1    0    0  501    0  0.00000000000E+00 -0.00000000000E+00 -0.15352869055E+03  0.15352869055E+03  0.00000000000E+00 0. -1.
         25    2    1    2    0    0  0.13059757536E+03  0.87519375727E+02  0.44501875813E+02  0.20577310457E+03  0.12508711282E+03 0.  0.
          5    1    3    3  502    0  0.12936977981E+03  0.19069531173E+02  0.17239982928E+02  0.13196543623E+03  0.41800000000E+01 0.  1.
         -5    1    3    3    0  502  0.12277955439E+01  0.68449844554E+02  0.27261892884E+02  0.73807668334E+02  0.41800000000E+01 0.  1.
        -11    1    1    2    0    0 -0.41408785253E+02 -0.54645741940E+01 -0.24606253842E+02  0.48476971806E+02  0.00000000000E+00 0. -1.
         11    1    1    2    0    0 -0.89188790105E+02 -0.82054801533E+02  0.64659812266E+02  0.13736273897E+03  0.00000000000E+00 0.  1.
</event>
<event>
 7    1  0.2530765E-009  0.4993746E+02  0.7561462E-02  0.1445679E+00
         -2   -1    0    0    0  501 -0.00000000000E+00  0.00000000000E+00  0.12146564113E+03  0.12146564113E+03  0.00000000000E+00 0.  1.
          2   -1    0    0  501    0  0.00000000000E+00 -0.00000000000E+00 -0.11119253062E+03  0.11119253062E+03  0.00000000000E+00 0. -1.
         25    2    1    2    0    0  0.48169790215E+01  0.92871234293E+01 -0.34541734813E+02  0.13019592407E+03  0.12509353801E+03 0.  0.
          5    1    3    3  502    0 -0.49177272329E+01 -0.20534473822E+02  0.42096500914E+02  0.47280402340E+02  0.41800000000E+01 0.  1.
         -5    1    3    3    0  502  0.97347062544E+01  0.29821597251E+02 -0.76638235727E+02  0.82915521730E+02  0.41800000000E+01 0.  1.
        -11    1    1    2    0    0  0.18014719166E+02 -0.14684598704E+02  0.66543106365E+02  0.70485122902E+02  0.00000000000E+00 0.  1.
         11    1    1    2    0    0 -0.22831698188E+02  0.53974752752E+01 -0.21728261035E+02  0.31977124778E+02  0.00000000000E+00 0. -1.
</event>
<event>
 7    1  0.2530765E-009  0.1350492E+03  0.7561462E-02  0.1220150E+00
         -2   -1    0    0    0  501 -0.00000000000E+00  0.00000000000E+00  0.26591856724E+03  0.26591856724E+03  0.00000000000E+00 0.  1.
          2   -1    0    0  501    0  0.00000000000E+00 -0.00000000000E+00 -0.84395945010E+02  0.84395945010E+02  0.00000000000E+00 0. -1.
         25    2    1    2    0    0 -0.42584341561E+02  0.94593411477E+02  0.10061296086E+03  0.19113381686E+03  0.12509128032E+03 0.  0.
          5    1    3    3  502    0 -0.66553549386E+01  0.11585499941E+03  0.52918657634E+02  0.12761085911E+03  0.41800000000E+01 0.  1.
         -5    1    3    3    0  502 -0.35928986622E+02 -0.21261587930E+02  0.47694303227E+02  0.63522957750E+02  0.41800000000E+01 0.  1.
        -11    1    1    2    0    0  0.31197927307E+02 -0.95626177569E+02  0.27104917701E+02  0.10417462776E+03  0.00000000000E+00 0. -1.
         11    1    1    2    0    0  0.11386414254E+02  0.10327660916E+01  0.53804743672E+02  0.55006067638E+02  0.00000000000E+00 0.  1.
</event>
<event>
 7    1  0.2530765E-009  0.1195247E+03  0.7561462E-02  0.1243883E+00
         -1   -1    0    0    0  501 -0.00000000000E+00  0.00000000000E+00  0.11281478426E+03  0.11281478426E+03  0.00000000000E+00 0.  1.
          1   -1    0    0  501    0  0.00000000000E+00 -0.00000000000E+00 -0.14105995986E+03  0.14105995986E+03  0.00000000000E+00 0. -1.
         25    2    1    2    0    0  0.55306348600E+02  0.16887294312E+02  0.11731895387E+02  0.13830918120E+03  0.12509124402E+03 0.  0.
          5    1    3    3  502    0 -0.22231329379E+01  0.59280927834E+02 -0.15929548944E+02  0.61566172973E+02  0.41800000000E+01 0. -1.
         -5    1    3    3    0  502  0.57529481538E+02 -0.42393633522E+02  0.27661444332E+02  0.76743008227E+02  0.41800000000E+01 0. -1.
        -11    1    1    2    0    0 -0.66505284906E+02  0.19998287955E+02 -0.30621357602E+02  0.75898300264E+02  0.00000000000E+00 0.  1.
         11    1    1    2    0    0  0.11198936306E+02 -0.36885582267E+02 -0.93557133887E+01  0.39667262655E+02  0.00000000000E+00 0. -1.
</event>
<event>
 7    1  0.2530765E-009  0.1212749E+03  0.7561462E-02  0.1241009E+00
          1   -1    0    0  501    0  0.00000000000E+00  0.00000000000E+00  0.22042751526E+03  0.22042751526E+03  0.00000000000E+00 0. -1.
         -1   -1    0    0    0  501 -0.00000000000E+00 -0.00000000000E+00 -0.82954710081E+02  0.82954710081E+02  0.00000000000E+00 0.  1.
         25    2    1    2    0    0 -0.63042278463E+02 -0.65794766083E+01  0.22743040648E+02  0.14207664834E+03  0.12510359594E+03 0.  0.
          5    1    3    3  502    0 -0.61368440644E+02  0.49329206635E+02  0.32248130229E+02  0.85187266875E+02  0.41800000000E+01 0. -1.
         -5    1    3    3    0  502 -0.16738378191E+01 -0.55908683244E+02 -0.95050895806E+01  0.56889381461E+02  0.41800000000E+01 0. -1.
        -11    1    1    2    0    0  0.73593176841E+02  0.31879009460E+02  0.10520005799E+03  0.13228484087E+03  0.00000000000E+00 0.  1.
         11    1    1    2    0    0 -0.10550898378E+02 -0.25299532851E+02  0.95297065349E+01  0.29020736133E+02  0.00000000000E+00 0. -1.
</event>
<event>
 7    1  0.2530765E-009  0.1657005E+03  0.7561462E-02  0.1182407E+00
         -2   -1    0    0    0  501 -0.00000000000E+00  0.00000000000E+00  0.18486438236E+03  0.18486438236E+03  0.00000000000E+00 0.  1.
          2   -1    0    0  501    0  0.00000000000E+00 -0.00000000000E+00 -0.16858623090E+03  0.16858623090E+03  0.00000000000E+00 0. -1.
         25    2    1    2    0    0 -0.12104012623E+03  0.42402790502E+02 -0.44654751470E+02  0.18463510509E+03  0.12508943362E+03 0.  0.
          5    1    3    3  502    0 -0.12574954428E+03 -0.64447300194E+01 -0.14329903024E+02  0.12679629708E+03  0.41800000000E+01 0. -1.
         -5    1    3    3    0  502  0.47094180530E+01  0.48847520521E+02 -0.30324848445E+02  0.57838808016E+02  0.41800000000E+01 0. -1.
        -11    1    1    2    0    0 -0.14181925716E+02 -0.92712997022E+01  0.13733749273E+02  0.21810545255E+02  0.00000000000E+00 0. -1.
         11    1    1    2    0    0  0.13522205195E+03 -0.33131490800E+02  0.47199153651E+02  0.14700496291E+03  0.00000000000E+00 0.  1.
</event>
<event>
 7    1  0.2530765E-009  0.6629334E+02  0.7561462E-02  0.1373171E+00
         -2   -1    0    0    0  501 -0.00000000000E+00  0.00000000000E+00  0.25773768814E+02  0.25773768814E+02  0.00000000000E+00 0.  1.
          2   -1    0    0  501    0  0.00000000000E+00 -0.00000000000E+00 -0.52962963807E+03  0.52962963807E+03  0.00000000000E+00 0. -1.
         25    2    1    2    0    0  0.13637796038E+02 -0.37848714615E+02 -0.32570284099E+03  0.35120742265E+03  0.12508316601E+03 0.  0.
          5    1    3    3  502    0  0.19716947674E+01  0.58200344507E+01  0.99945689196E+01  0.12454886156E+02  0.41800000000E+01 0.  1.
         -5    1    3    3    0  502  0.11666101270E+02 -0.43668749066E+02 -0.33569740991E+03  0.33875253650E+03  0.41800000000E+01 0.  1.
        -11    1    1    2    0    0  0.25390577301E+02 -0.64034917150E-02 -0.96910362691E+01  0.27177152916E+02  0.00000000000E+00 0. -1.
         11    1    1    2    0    0 -0.39028373338E+02  0.37855118107E+02 -0.16846199199E+03  0.17701883131E+03  0.00000000000E+00 0.  1.
</event>
<event>
 7    1  0.2530765E-009  0.1068481E+03  0.7561462E-02  0.1266521E+00
          2   -1    0    0  501    0  0.00000000000E+00  0.00000000000E+00  0.69849267153E+02  0.69849267153E+02  0.00000000000E+00 0. -1.
         -2   -1    0    0    0  501 -0.00000000000E+00 -0.00000000000E+00 -0.25909032077E+03  0.25909032077E+03  0.00000000000E+00 0.  1.
         25    2    1    2    0    0 -0.35739785579E+00  0.52945093991E+02 -0.17795122103E+03  0.22387876403E+03  0.12510696706E+03 0.  0.
          5    1    3    3  502    0  0.47003552180E+02 -0.14187719661E+02 -0.40920311253E+02  0.64051304278E+02  0.41800000000E+01 0. -1.
         -5    1    3    3    0  502 -0.47360950036E+02  0.67132813652E+02 -0.13703090977E+03  0.15982745975E+03  0.41800000000E+01 0. -1.
        -11    1    1    2    0    0  0.29458522103E+02 -0.11741304890E+02  0.27064727748E+02  0.41691273104E+02  0.00000000000E+00 0. -1.
         11    1    1    2    0    0 -0.29101124247E+02 -0.41203789101E+02 -0.38354560341E+02  0.63369550792E+02  0.00000000000E+00 0.  1.
</event>
<event>
 7    1  0.2530765E-009  0.1302254E+03  0.7561462E-02  0.1227122E+00
          2   -1    0    0  501    0  0.00000000000E+00  0.00000000000E+00  0.16752960090E+04  0.16752960090E+04  0.00000000000E+00 0. -1.
         -2   -1    0    0    0  501 -0.00000000000E+00 -0.00000000000E+00 -0.15690442719E+02  0.15690442719E+02  0.00000000000E+00 0.  1.
         25    2    1    2    0    0  0.79494586059E+02 -0.73250837327E+02  0.12071873941E+04  0.12184554565E+04  0.12508885036E+03 0.  0.
          5    1    3    3  502    0 -0.36180088925E+01 -0.29712522424E+02  0.80025773575E+03  0.80082822128E+03  0.41800000000E+01 0.  1.
         -5    1    3    3    0  502  0.83112594952E+02 -0.43538314903E+02  0.40692965840E+03  0.41762723521E+03  0.41800000000E+01 0.  1.
        -11    1    1    2    0    0 -0.49462767916E+02 -0.76165331650E+01  0.15816119081E+03  0.16589014216E+03  0.00000000000E+00 0. -1.
         11    1    1    2    0    0 -0.30031818144E+02  0.80867370492E+02  0.29425698131E+03  0.30664085305E+03  0.00000000000E+00 0.  1.
</event>
<event>
 7    1  0.2530765E-009  0.1781371E+03  0.7561462E-02  0.1169618E+00
          1   -1    0    0  501    0  0.00000000000E+00  0.00000000000E+00  0.35786149645E+03  0.35786149645E+03  0.00000000000E+00 0. -1.
         -1   -1    0    0    0  501 -0.00000000000E+00 -0.00000000000E+00 -0.12630704265E+03  0.12630704265E+03  0.00000000000E+00 0.  1.
         25    2    1    2    0    0  0.45102356720E+02 -0.16173876185E+03  0.39772024591E+02  0.21313321454E+03  0.12510117319E+03 0.  0.
          5    1    3    3  502    0  0.36981211802E+02 -0.10437595187E+03 -0.37033223738E+02  0.11683698650E+03  0.41800000000E+01 0. -1.
         -5    1    3    3    0  502  0.81211449187E+01 -0.57362809986E+02  0.76805248329E+02  0.96296228042E+02  0.41800000000E+01 0. -1.
        -11    1    1    2    0    0  0.22537433005E+02  0.69025296728E+02  0.47894188648E+02  0.86984370901E+02  0.00000000000E+00 0. -1.
         11    1    1    2    0    0 -0.67639789725E+02  0.92713465125E+02  0.14388824057E+03  0.18405095366E+03  0.00000000000E+00 0.  1.
</event>
<event>
 7    1  0.2530765E-009  0.9384646E+02  0.7561462E-02  0.1293795E+00
         -1   -1    0    0    0  501 -0.00000000000E+00  0.00000000000E+00  0.14503481139E+03  0.14503481139E+03  0.00000000000E+00 0.  1.
          1   -1    0    0  501    0  0.00000000000E+00 -0.00000000000E+00 -0.98000816332E+02  0.98000816332E+02  0.00000000000E+00 0. -1.
         25    2    1    2    0    0  0.33467243034E+02 -0.31262928849E+00 -0.95421268236E+01  0.12984234745E+03  0.12509128232E+03 0.  0.
          5    1    3    3  502    0  0.80547411379E+02  0.68890562516E+01  0.67356482880E+00  0.80952273998E+02  0.41800000000E+01 0.  1.
         -5    1    3    3    0  502 -0.47080168345E+02 -0.72016855401E+01 -0.10215691652E+02  0.48890073450E+02  0.41800000000E+01 0.  1.
        -11    1    1    2    0    0  0.10043938839E+02  0.10196899032E+02 -0.19983295114E+02  0.24580267307E+02  0.00000000000E+00 0. -1.
         11    1    1    2    0    0 -0.43511181873E+02 -0.98842697436E+01  0.76559416995E+02  0.88613012967E+02  0.00000000000E+00 0.  1.
</event>
<event>
 7    1  0.2530765E-009  0.1158239E+03  0.7561462E-02  0.1250150E+00
          1   -1    0    0  501    0  0.00000000000E+00  0.00000000000E+00  0.86478453231E+02  0.86478453231E+02  0.00000000000E+00 0. -1.
         -1   -1    0    0    0  501 -0.00000000000E+00 -0.00000000000E+00 -0.18077752677E+03  0.18077752677E+03  0.00000000000E+00 0.  1.
         25    2    1    2    0    0  0.40310210633E+02 -0.35656893716E+02 -0.87413134676E+02  0.16180836812E+03  0.12507823444E+03 0.  0.
          5    1    3    3  502    0  0.81364367170E+02 -0.43055726316E+02 -0.72709921469E+02  0.11738041103E+03  0.41800000000E+01 0. -1.
         -5    1    3    3    0  502 -0.41054156536E+02  0.73988326002E+01 -0.14703213206E+02  0.44427957092E+02  0.41800000000E+01 0. -1.
        -11    1    1    2    0    0 -0.64092332639E+02  0.14429180770E+02  0.14217437472E+02  0.67217288618E+02  0.00000000000E+00 0. -1.
         11    1    1    2    0    0  0.23782122006E+02  0.21227712946E+02 -0.21103376339E+02  0.38230323265E+02  0.00000000000E+00 0.  1.
</event>
<event>
 7    1  0.2530765E-009  0.1685253E+03  0.7561462E-02  0.1179395E+00
          1   -1    0    0  501    0  0.00000000000E+00  0.00000000000E+00  0.78664686101E+02  0.78664686101E+02  0.00000000000E+00 0. -1.
         -1   -1    0    0    0  501 -0.00000000000E+00 -0.00000000000E+00 -0.37036727691E+03  0.37036727691E+03  0.00000000000E+00 0.  1.
         25    2    1    2    0    0  0.12999865930E+03 -0.23482852621E+02 -0.15332935436E+03  0.23792309532E+03  0.12508562103E+03 0.  0.
          5    1    3    3  502    0  0.89787110013E+02 -0.74562068732E+02 -0.98420328713E+02  0.15272609706E+03  0.41800000000E+01 0. -1.
         -5    1    3    3    0  502  0.40211549291E+02  0.51079216111E+02 -0.54909025652E+02  0.85196998263E+02  0.41800000000E+01 0. -1.
        -11    1    1    2    0    0 -0.77432658810E+02  0.53942856472E+02 -0.59543549931E+02  0.11158441985E+03  0.00000000000E+00 0. -1.
         11    1    1    2    0    0 -0.52566000495E+02 -0.30460003852E+02 -0.78829686512E+02  0.99524447842E+02  0.00000000000E+00 0.  1.
</event>
<event>
 7    1  0.2530765E-009  0.1072505E+03  0.7561462E-02  0.1265748E+00
         -3   -1    0    0    0  501 -0.00000000000E+00  0.00000000000E+00  0.14624728423E+03  0.14624728423E+03  0.00000000000E+00 0.  1.
          3   -1    0    0  501    0  0.00000000000E+00 -0.00000000000E+00 -0.10134663640E+03  0.10134663640E+03  0.00000000000E+00 0. -1.
         25    2    1    2    0    0 -0.42306964134E+02 -0.14749923116E+02  0.65254407711E+02  0.14803022966E+03  0.12508945488E+03 0.  0.
          5    1    3    3  502    0  0.20824551619E+02  0.41915501193E+02  0.14926008807E+02  0.49303441354E+02  0.41800000000E+01 0. -1.
         -5    1    3    3    0  502 -0.63131515753E+02 -0.56665424309E+02  0.50328398904E+02  0.98726788308E+02  0.41800000000E+01 0. -1.
        -11    1    1    2    0    0  0.39199154134E+02  0.40660855651E+02  0.12259830147E+02  0.57794310294E+02  0.00000000000E+00 0.  1.
         11    1    1    2    0    0  0.31078099995E+01 -0.25910932535E+02 -0.32613590020E+02  0.41769380673E+02  0.00000000000E+00 0. -1.
</event>
<event>
 7    1  0.2530765E-009  0.9734013E+02  0.7561462E-02  0.1285991E+00
          1   -1    0    0  501    0  0.00000000000E+00  0.00000000000E+00  0.11220627202E+03  0.11220627202E+03  0.00000000000E+00 0. -1.
         -1   -1    0    0    0  501 -0.00000000000E+00 -0.00000000000E+00 -0.11710281970E+03  0.11710281970E+03  0.00000000000E+00 0.  1.
         25    2    1    2    0    0 -0.32529008545E+02  0.57084906457E+01 -0.12721208419E+02  0.13000302818E+03  0.12509290520E+03 0.  0.
          5    1    3    3  502    0 -0.10017497588E+02 -0.53702348574E+02 -0.32036783872E+02  0.63467475302E+02  0.41800000000E+01 0. -1.
         -5    1    3    3    0  502 -0.22511510957E+02  0.59410839220E+02  0.19315575453E+02  0.66535552883E+02  0.41800000000E+01 0. -1.
        -11    1    1    2    0    0 -0.21640006901E+02 -0.41245611838E+01 -0.27032104454E+02  0.34871715972E+02  0.00000000000E+00 0.  1.
         11    1    1    2    0    0  0.54169015446E+02 -0.15839294619E+01  0.34856765191E+02  0.64434347568E+02  0.00000000000E+00 0. -1.
</event>
<event>
 7    1  0.2530765E-009  0.1471102E+03  0.7561462E-02  0.1204070E+00
         -1   -1    0    0    0  501 -0.00000000000E+00  0.00000000000E+00  0.92034415916E+02  0.92034415916E+02  0.00000000000E+00 0.  1.
          1   -1    0    0  501    0  0.00000000000E+00 -0.00000000000E+00 -0.33659355760E+03  0.33659355760E+03  0.00000000000E+00 0. -1.
         25    2    1    2    0    0  0.11575683678E+03  0.14854473665E+02 -0.39451044969E+02  0.17556671943E+03  0.12508791858E+03 0.  0.
          5    1    3    3  502    0  0.81788453168E+02 -0.48153687550E+02 -0.41875031818E+02  0.10382253795E+03  0.41800000000E+01 0. -1.
         -5    1    3    3    0  502  0.33968383609E+02  0.63008161215E+02  0.24239868493E+01  0.71744181485E+02  0.41800000000E+01 0. -1.
        -11    1    1    2    0    0 -0.70816157929E+01  0.13461355547E+02  0.39795366237E+01  0.15722407167E+02  0.00000000000E+00 0.  1.
         11    1    1    2    0    0 -0.10867522098E+03 -0.28315829212E+02 -0.20908763334E+03  0.23733884691E+03  0.00000000000E+00 0. -1.
</event>
<event>
 7    1  0.2530765E-009  0.1384426E+03  0.7561462E-02  0.1215440E+00
          2   -1    0    0  501    0  0.00000000000E+00  0.00000000000E+00  0.11434202354E+03  0.11434202354E+03  0.00000000000E+00 0.  1.
         -2   -1    0    0    0  501 -0.00000000000E+00 -0.00000000000E+00 -0.18500041058E+03  0.18500041058E+03  0.00000000000E+00 0. -1.
         25    2    1    2    0    0  0.50882932321E+02 -0.85859811087E+02 -0.53758214774E+02  0.16881286384E+03  0.12508739897E+03 0.  0.
          5    1    3    3  502    0 -0.17348725389E+01  0.30122809831E+02  0.12245205600E+00  0.30461136704E+02  0.41800000000E+01 0. -1.
         -5    1    3    3    0  502  0.52617804860E+02 -0.11598262092E+03 -0.53880666830E+02  0.13835172714E+03  0.41800000000E+01 0. -1.
        -11    1    1    2    0    0  0.15170727093E+02  0.24634489196E+02  0.17848851635E+02  0.33993977748E+02  0.00000000000E+00 0.  1.
         11    1    1    2    0    0 -0.66053659414E+02  0.61225321891E+02 -0.34749023897E+02  0.96535592526E+02  0.00000000000E+00 0. -1.
</event>
<event>
 7    1  0.2530765E-009  0.1081861E+03  0.7561462E-02  0.1263966E+00
         -2   -1    0    0    0  501 -0.00000000000E+00  0.00000000000E+00  0.26721088404E+02  0.26721088404E+02  0.00000000000E+00 0.  1.
          2   -1    0    0  501    0  0.00000000000E+00 -0.00000000000E+00 -0.59102323047E+03  0.59102323047E+03  0.00000000000E+00 0. -1.
         25    2    1    2    0    0  0.90905831667E+01  0.20770301558E+02 -0.16364049094E+03  0.20721897118E+03  0.12508975821E+03 0.  0.
          5    1    3    3  502    0  0.62604835340E+02 -0.12297699173E+02 -0.77459130518E+02  0.10043897706E+03  0.41800000000E+01 0. -1.
         -5    1    3    3    0  502 -0.53514252174E+02  0.33068000731E+02 -0.86181360425E+02  0.10677999411E+03  0.41800000000E+01 0. -1.
        -11    1    1    2    0    0  0.44830167241E+01  0.33320489833E+02 -0.14339681879E+03  0.14728543757E+03  0.00000000000E+00 0. -1.
         11    1    1    2    0    0 -0.13573599891E+02 -0.54090791391E+02 -0.25726483233E+03  0.26323991013E+03  0.00000000000E+00 0.  1.
</event>
<event>
 7    1  0.2530765E-009  0.9477703E+02  0.7561462E-02  0.1291679E+00
          3   -1    0    0  501    0  0.00000000000E+00  0.00000000000E+00  0.31999289656E+02  0.31999289656E+02  0.00000000000E+00 0. -1.
         -3   -1    0    0    0  501 -0.00000000000E+00 -0.00000000000E+00 -0.29047282311E+03  0.29047282311E+03  0.00000000000E+00 0.  1.
         25    2    1    2    0    0 -0.19201117925E+02 -0.28769673147E+02 -0.15473509615E+03  0.20195738253E+03  0.12508979716E+03 0.  0.
          5    1    3    3  502    0  0.21237900031E+02  0.42488530703E+02 -0.59850671588E+02  0.76523845490E+02  0.41800000000E+01 0.  1.
         -5    1    3    3    0  502 -0.40439017956E+02 -0.71258203850E+02 -0.94884424563E+02  0.12543353704E+03  0.41800000000E+01 0.  1.
        -11    1    1    2    0    0  0.95068107812E+01 -0.13472884280E+02 -0.41652526453E+02  0.44797667596E+02  0.00000000000E+00 0. -1.
         11    1    1    2    0    0  0.96943071437E+01  0.42242557427E+02 -0.62085910847E+02  0.75717062639E+02  0.00000000000E+00 0.  1.
</event>
<event>
 7    1  0.2530765E-009  0.1067269E+03  0.7561462E-02  0.1266754E+00
          1   -1    0    0  501    0  0.00000000000E+00  0.00000000000E+00  0.72230195635E+03  0.72230195635E+03  0.00000000000E+00 0. -1.
         -1   -1    0    0    0  501 -0.00000000000E+00 -0.00000000000E+00 -0.23412412699E+02  0.23412412699E+02  0.00000000000E+00 0.  1.
         25    2    1    2    0    0 -0.64344659954E+02 -0.10035950475E+02  0.47600073129E+03  0.49645221397E+03  0.12508856464E+03 0.  0.
          5    1    3    3  502    0 -0.10627022429E+01 -0.43448372004E+02  0.33929237877E+03  0.34209016510E+03  0.41800000000E+01 0.  1.
         -5    1    3    3    0  502 -0.63281957711E+02  0.33412421529E+02  0.13670835252E+03  0.15436204887E+03  0.41800000000E+01 0.  1.
        -11    1    1    2    0    0 -0.10956890118E+02 -0.15158888659E+02  0.83181576034E+01  0.20470395510E+02  0.00000000000E+00 0.  1.
         11    1    1    2    0    0  0.75301550071E+02  0.25194839134E+02  0.21457065476E+03  0.22879175957E+03  0.00000000000E+00 0. -1.
</event>
<event>
 7    1  0.2530765E-009  0.1030696E+03  0.7561462E-02  0.1273970E+00
          2   -1    0    0  501    0  0.00000000000E+00  0.00000000000E+00  0.27062871247E+02  0.27062871247E+02  0.00000000000E+00 0. -1.
         -2   -1    0    0    0  501 -0.00000000000E+00 -0.00000000000E+00 -0.61607722319E+03  0.61607722319E+03  0.00000000000E+00 0.  1.
         25    2    1    2    0    0 -0.18007699591E+01  0.22688964479E+02 -0.48921474323E+03  0.50546776286E+03  0.12509421419E+03 0.  0.
          5    1    3    3  502    0  0.33897605623E+02 -0.31456957726E+02 -0.92880419484E+02  0.10384041882E+03  0.41800000000E+01 0. -1.
         -5    1    3    3    0  502 -0.35698375582E+02  0.54145922204E+02 -0.39633432374E+03  0.40162734405E+03  0.41800000000E+01 0. -1.
        -11    1    1    2    0    0  0.16441085492E+02 -0.55982152557E+02 -0.58099240924E+02  0.82339738238E+02  0.00000000000E+00 0. -1.
         11    1    1    2    0    0 -0.14640315533E+02  0.33293188078E+02 -0.41700367794E+02  0.55332593338E+02  0.00000000000E+00 0.  1.
</event>
<event>
 7    1  0.2567509E-009  0.1349000E+03  0.7561462E-02  0.1220361E+00
         -1   -1    0    0    0  501 -0.00000000000E+00  0.00000000000E+00  0.10907509471E+03  0.10907509471E+03  0.00000000000E+00 0.  1.
          1   -1    0    0  501    0  0.00000000000E+00 -0.00000000000E+00 -0.28782435541E+03  0.28782435541E+03  0.00000000000E+00 0. -1.
         25    2    1    2    0    0 -0.94472674583E+02  0.40708194960E+02 -0.20007505000E+03  0.25740501836E+03  0.12508027210E+03 0.  0.
          5    1    3    3  502    0 -0.19615112650E+02 -0.33495482561E+02 -0.10451193107E+02  0.40415341563E+02  0.41800000000E+01 0.  1.
         -5    1    3    3    0  502 -0.74857561933E+02  0.74203677521E+02 -0.18962385689E+03  0.21698967680E+03  0.41800000000E+01 0.  1.
        -11    1    1    2    0    0  0.99934255798E+01 -0.39542745516E+02 -0.20018107465E+02  0.45433708899E+02  0.00000000000E+00 0. -1.
         11    1    1    2    0    0  0.84479249003E+02 -0.11654494435E+01  0.41343896767E+02  0.94060722857E+02  0.00000000000E+00 0.  1.
</event>
<event>
 7    1  0.2530765E-009  0.7140227E+02  0.7561462E-02  0.1355388E+00
          1   -1    0    0  501    0  0.00000000000E+00  0.00000000000E+00  0.11668486196E+04  0.11668486196E+04  0.00000000000E+00 0. -1.
         -1   -1    0    0    0  501 -0.00000000000E+00 -0.00000000000E+00 -0.20502435581E+02  0.20502435581E+02  0.00000000000E+00 0.  1.
         25    2    1    2    0    0 -0.51303673130E+01 -0.16298181563E+01  0.10402939076E+04  0.10478010644E+04  0.12508668775E+03 0.  0.
          5    1    3    3  502    0 -0.27310375764E+02 -0.37352780488E+02  0.90199488904E+03  0.90319064382E+03  0.41800000000E+01 0.  1.
         -5    1    3    3    0  502  0.22180008451E+02  0.35722962332E+02  0.13829901852E+03  0.14461042057E+03  0.41800000000E+01 0.  1.
        -11    1    1    2    0    0 -0.10866628994E+02  0.24139952356E+02 -0.33792434642E+01  0.26687828908E+02  0.00000000000E+00 0.  1.
         11    1    1    2    0    0  0.15996996307E+02 -0.22510134200E+02  0.10943151996E+03  0.11286216192E+03  0.00000000000E+00 0. -1.
</event>
<event>
 7    1  0.2530765E-009  0.7748083E+02  0.7561462E-02  0.1336356E+00
         -2   -1    0    0    0  501 -0.00000000000E+00  0.00000000000E+00  0.62521827961E+02  0.62521827961E+02  0.00000000000E+00 0.  1.
          2   -1    0    0  501    0  0.00000000000E+00 -0.00000000000E+00 -0.30754812846E+03  0.30754812846E+03  0.00000000000E+00 0. -1.
         25    2    1    2    0    0  0.16898816362E+02  0.21939046888E+02 -0.26978898968E+02  0.13092800654E+03  0.12508952848E+03 0.  0.
          5    1    3    3  502    0 -0.24975171661E+02  0.29613425450E+02  0.37153710828E+02  0.53838506616E+02  0.41800000000E+01 0. -1.
         -5    1    3    3    0  502  0.41873988023E+02 -0.76743785620E+01 -0.64132609796E+02  0.77089499924E+02  0.41800000000E+01 0. -1.
        -11    1    1    2    0    0 -0.42318529738E+02 -0.48589360498E+01 -0.39845950956E+02  0.58328098085E+02  0.00000000000E+00 0.  1.
         11    1    1    2    0    0  0.25419713375E+02 -0.17080110838E+02 -0.17820145058E+03  0.18081385180E+03  0.00000000000E+00 0. -1.
</event>
<event>
 7    1  0.2530765E-009  0.1009608E+03  0.7561462E-02  0.1278288E+00
          2   -1    0    0  501    0  0.00000000000E+00  0.00000000000E+00  0.24398174988E+02  0.24398174988E+02  0.00000000000E+00 0. -1.
         -2   -1    0    0    0  501 -0.00000000000E+00 -0.00000000000E+00 -0.55479242330E+03  0.55479242330E+03  0.00000000000E+00 0.  1.
         25    2    1    2    0    0 -0.97803078558E+01  0.16494444861E+02 -0.39130980978E+03  0.41126437888E+03  0.12508917208E+03 0.  0.
          5    1    3    3  502    0  0.66305767225E+01 -0.50879233124E+02 -0.10918478344E+03  0.12071226220E+03  0.41800000000E+01 0. -1.
         -5    1    3    3    0  502 -0.16410884578E+02  0.67373677985E+02 -0.28212502634E+03  0.29055211668E+03  0.41800000000E+01 0. -1.
        -11    1    1    2    0    0  0.23429318186E+02 -0.44234708019E+02 -0.39833186176E+02  0.63971283129E+02  0.00000000000E+00 0. -1.
         11    1    1    2    0    0 -0.13649010330E+02  0.27740263158E+02 -0.99251252354E+02  0.10395493628E+03  0.00000000000E+00 0.  1.
</event>
<event>
 7    1  0.2530765E-009  0.8698810E+02  0.7561462E-02  0.1310314E+00
          1   -1    0    0  501    0  0.00000000000E+00  0.00000000000E+00  0.79734877928E+02  0.79734877928E+02  0.00000000000E+00 0. -1.
         -1   -1    0    0    0  501 -0.00000000000E+00 -0.00000000000E+00 -0.11813757077E+03  0.11813757077E+03  0.00000000000E+00 0.  1.
         25    2    1    2    0    0 -0.42783195045E+01  0.44278659500E+01 -0.21156610385E+02  0.12701839731E+03  0.12509261001E+03 0.  0.
          5    1    3    3  502    0 -0.27868030484E+02 -0.54594540488E+02 -0.13005983782E+02  0.62799832709E+02  0.41800000000E+01 0.  1.
         -5    1    3    3    0  502  0.23589710980E+02  0.59022406438E+02 -0.81506266025E+01  0.64218564604E+02  0.41800000000E+01 0.  1.
        -11    1    1    2    0    0 -0.83394726408E+01  0.19820722822E+02 -0.32937400098E+02  0.39335482485E+02  0.00000000000E+00 0.  1.
         11    1    1    2    0    0  0.12617792145E+02 -0.24248588772E+02  0.15691317642E+02  0.31518568898E+02  0.00000000000E+00 0. -1.
</event>
<event>
 7    1  0.2530765E-009  0.9212006E+02  0.7561462E-02  0.1297797E+00
          1   -1    0    0  501    0  0.00000000000E+00  0.00000000000E+00  0.37196673968E+03  0.37196673968E+03  0.00000000000E+00 0. -1.
         -1   -1    0    0    0  501 -0.00000000000E+00 -0.00000000000E+00 -0.41400424683E+02  0.41400424683E+02  0.00000000000E+00 0.  1.
         25    2    1    2    0    0  0.37340920308E+02 -0.16078400078E+02  0.11875186884E+03  0.17720087154E+03  0.12508110666E+03 0.  0.
          5    1    3    3  502    0  0.28164046889E+02 -0.43720242611E+02 -0.26918073922E+01  0.52243577387E+02  0.41800000000E+01 0. -1.
         -5    1    3    3    0  502  0.91768734188E+01  0.27641842533E+02  0.12144367624E+03  0.12495729415E+03  0.41800000000E+01 0. -1.
        -11    1    1    2    0    0  0.24481454581E+02  0.30549584685E+02  0.10290313905E+03  0.11009847760E+03  0.00000000000E+00 0.  1.
         11    1    1    2    0    0 -0.61822374889E+02 -0.14471184607E+02  0.10891130710E+03  0.12606781522E+03  0.00000000000E+00 0. -1.
</event>
<event>
 7    1  0.2530765E-009  0.2542961E+03  0.7561462E-02  0.1110619E+00
          2   -1    0    0  501    0  0.00000000000E+00  0.00000000000E+00  0.94958833305E+03  0.94958833305E+03  0.00000000000E+00 0. -1.
         -2   -1    0    0    0  501 -0.00000000000E+00 -0.00000000000E+00 -0.72013452790E+02  0.72013452790E+02  0.00000000000E+00 0.  1.
         25    2    1    2    0    0 -0.23254554835E+03  0.12012387260E+02  0.54754724134E+03  0.60801117581E+03  0.12509148213E+03 0.  0.
          5    1    3    3  502    0 -0.12493233400E+03 -0.51039005404E+02  0.22828364185E+03  0.26522436104E+03  0.41800000000E+01 0.  1.
         -5    1    3    3    0  502 -0.10761321435E+03  0.63051392665E+02  0.31926359949E+03  0.34278681477E+03  0.41800000000E+01 0.  1.
        -11    1    1    2    0    0  0.10969196823E+03 -0.49483430547E+02  0.17273270012E+03  0.21051727598E+03  0.00000000000E+00 0.  1.
         11    1    1    2    0    0  0.12285358012E+03  0.37471043287E+02  0.15729493879E+03  0.20307333405E+03  0.00000000000E+00 0. -1.
</event>
<event>
 7    1  0.2530765E-009  0.7967173E+02  0.7561462E-02  0.1329986E+00
          3   -1    0    0  501    0  0.00000000000E+00  0.00000000000E+00  0.12237042860E+03  0.12237042860E+03  0.00000000000E+00 0. -1.
         -3   -1    0    0    0  501 -0.00000000000E+00 -0.00000000000E+00 -0.95605027485E+02  0.95605027485E+02  0.00000000000E+00 0.  1.
         25    2    1    2    0    0  0.26374611900E+00 -0.21706387998E+01  0.41070269434E+02  0.13169483185E+03  0.12510787533E+03 0.  0.
          5    1    3    3  502    0  0.31994713117E+02  0.32556394698E+02  0.64379118055E+02  0.79029891463E+02  0.41800000000E+01 0. -1.
         -5    1    3    3    0  502 -0.31730966998E+02 -0.34727033498E+02 -0.23308848621E+02  0.52664940389E+02  0.41800000000E+01 0. -1.
        -11    1    1    2    0    0  0.95820694381E+01 -0.30598584801E+02  0.20031234048E+02  0.37806610322E+02  0.00000000000E+00 0.  1.
         11    1    1    2    0    0 -0.98458155571E+01  0.32769223601E+02 -0.34336102364E+02  0.48474013914E+02  0.00000000000E+00 0. -1.
</event>
<event>
 7    1  0.2530765E-009  0.9136943E+02  0.7561462E-02  0.1299569E+00
          2   -1    0    0  501    0  0.00000000000E+00  0.00000000000E+00  0.22902127996E+03  0.22902127996E+03  0.00000000000E+00 0. -1.
         -2   -1    0    0    0  501 -0.00000000000E+00 -0.00000000000E+00 -0.12477833035E+03  0.12477833035E+03  0.00000000000E+00 0.  1.
         25    2    1    2    0    0 -0.76137038974E+02  0.17288862385E+02  0.16351250357E+03  0.22018082124E+03  0.12508997464E+03 0.  0.
          5    1    3    3  502    0  0.10082679173E+02  0.14608167327E+02 -0.13857161911E+02  0.22903106954E+02  0.41800000000E+01 0.  1.
         -5    1    3    3    0  502 -0.86219718147E+02  0.26806950584E+01  0.17736966548E+03  0.19727771429E+03  0.41800000000E+01 0.  1.
        -11    1    1    2    0    0  0.23732487623E+02 -0.69145614612E+01 -0.74151396536E+02  0.78163109823E+02  0.00000000000E+00 0.  1.
         11    1    1    2    0    0  0.52404551350E+02 -0.10374300924E+02  0.14881842584E+02  0.55455679246E+02  0.00000000000E+00 0. -1.
</event>
<event>
 7    1  0.2530765E-009  0.1059773E+03  0.7561462E-02  0.1268206E+00
         -2   -1    0    0    0  501 -0.00000000000E+00  0.00000000000E+00  0.17684461816E+03  0.17684461816E+03  0.00000000000E+00 0. -1.
          2   -1    0    0  501    0  0.00000000000E+00 -0.00000000000E+00 -0.81607789305E+02  0.81607789305E+02  0.00000000000E+00 0.  1.
         25    2    1    2    0    0  0.13567676705E+01  0.54852664840E+01 -0.12975691240E+01  0.12522402456E+03  0.12508974248E+03 0.  0.
          5    1    3    3  502    0 -0.49796758701E+02 -0.29500427078E+02  0.17004046336E+02  0.60469846756E+02  0.41800000000E+01 0. -1.
         -5    1    3    3    0  502  0.51153526372E+02  0.34985693562E+02 -0.18301615460E+02  0.64754177801E+02  0.41800000000E+01 0. -1.
        -11    1    1    2    0    0  0.38917305621E+02  0.20395501472E+02  0.47143968330E+02  0.64444448225E+02  0.00000000000E+00 0. -1.
         11    1    1    2    0    0 -0.40274073292E+02 -0.25880767957E+02  0.49390429650E+02  0.68783934684E+02  0.00000000000E+00 0.  1.
</event>
<event>
 7    1  0.2530765E-009  0.9926750E+02  0.7561462E-02  0.1281844E+00
          4   -1    0    0  501    0  0.00000000000E+00  0.00000000000E+00  0.37076821475E+03  0.37076821475E+03  0.00000000000E+00 0. -1.
         -4   -1    0    0    0  501 -0.00000000000E+00 -0.00000000000E+00 -0.43088471407E+02  0.43088471407E+02  0.00000000000E+00 0.  1.
         25    2    1    2    0    0 -0.60566920536E+02  0.99203162772E+01  0.21231933577E+03  0.25395627806E+03  0.12509007269E+03 0.  0.
          5    1    3    3  502    0 -0.60396348370E+02  0.45062374114E+02  0.20412469761E+03  0.21762973379E+03  0.41800000000E+01 0.  1.
         -5    1    3    3    0  502 -0.17057216629E+00 -0.35142057837E+02  0.81946381657E+01  0.36326544269E+02  0.41800000000E+01 0.  1.
        -11    1    1    2    0    0  0.50950040645E+02  0.21138174704E+02  0.19223988845E+02  0.58414816773E+02  0.00000000000E+00 0.  1.
         11    1    1    2    0    0  0.96168798911E+01 -0.31058490981E+02  0.96136418722E+02  0.10148559132E+03  0.00000000000E+00 0. -1.
</event>
<event>
 7    1  0.2530765E-009  0.1170362E+03  0.7561462E-02  0.1248068E+00
         -1   -1    0    0    0  501 -0.00000000000E+00  0.00000000000E+00  0.39398233161E+02  0.39398233161E+02  0.00000000000E+00 0.  1.
          1   -1    0    0  501    0  0.00000000000E+00 -0.00000000000E+00 -0.57739425230E+03  0.57739425230E+03  0.00000000000E+00 0. -1.
         25    2    1    2    0    0  0.95318018025E+01  0.84440142433E+02 -0.16468999307E+03  0.22358856797E+03  0.12509221002E+03 0.  0.
          5    1    3    3  502    0  0.62721855415E+02  0.22025800311E+02 -0.94204899653E+02  0.11537418491E+03  0.41800000000E+01 0. -1.
         -5    1    3    3    0  502 -0.53190053612E+02  0.62414342122E+02 -0.70485093420E+02  0.10821438306E+03  0.41800000000E+01 0. -1.
        -11    1    1    2    0    0  0.14524810129E+01 -0.11336979048E+02  0.11808484131E+01  0.11490482931E+02  0.00000000000E+00 0.  1.
         11    1    1    2    0    0 -0.10984282815E+02 -0.73103163385E+02 -0.37448687448E+03  0.38171343456E+03  0.00000000000E+00 0. -1.
</event>
<event>
 7    1  0.2530765E-009  0.9132081E+02  0.7561462E-02  0.1299684E+00
          2   -1    0    0  501    0  0.00000000000E+00  0.00000000000E+00  0.11138456378E+03  0.11138456378E+03  0.00000000000E+00 0. -1.
         -2   -1    0    0    0  501 -0.00000000000E+00 -0.00000000000E+00 -0.11618669512E+03  0.11618669512E+03  0.00000000000E+00 0.  1.
         25    2    1    2    0    0  0.77379298523E+01  0.32510655321E+02 -0.12502257394E+02  0.13008226804E+03  0.12509305237E+03 0.  0.
          5    1    3    3  502    0  0.12240428031E+02  0.68851672731E+02 -0.43037585999E+02  0.82219748995E+02  0.41800000000E+01 0.  1.
         -5    1    3    3    0  502 -0.45024981786E+01 -0.36341017409E+02  0.30535328605E+02  0.47862519044E+02  0.41800000000E+01 0.  1.
        -11    1    1    2    0    0  0.30328561627E+02 -0.14311866381E+02 -0.26845851690E+02  0.42957547912E+02  0.00000000000E+00 0.  1.
         11    1    1    2    0    0 -0.38066491479E+02 -0.18198788941E+02  0.34545977741E+02  0.54531442952E+02  0.00000000000E+00 0. -1.
</event>
<event>
 7    1  0.2530765E-009  0.1431128E+03  0.7561462E-02  0.1209201E+00
         -1   -1    0    0    0  501 -0.00000000000E+00  0.00000000000E+00  0.29719108832E+02  0.29719108832E+02  0.00000000000E+00 0.  1.
          1   -1    0    0  501    0  0.00000000000E+00 -0.00000000000E+00 -0.86047589746E+03  0.86047589746E+03  0.00000000000E+00 0. -1.
         25    2    1    2    0    0  0.86364585316E+02 -0.76280806709E+02 -0.46098745428E+03  0.49136000114E+03  0.12509042588E+03 0.  0.
          5    1    3    3  502    0 -0.10919896898E+02  0.23925075362E+01 -0.21518480672E+03  0.21551552538E+03  0.41800000000E+01 0.  1.
         -5    1    3    3    0  502  0.97284482215E+02 -0.78673314246E+02 -0.24580264756E+03  0.27584447575E+03  0.41800000000E+01 0.  1.
        -11    1    1    2    0    0 -0.68985246009E+02 -0.19052667219E+01 -0.15741763196E+03  0.17188049645E+03  0.00000000000E+00 0.  1.
         11    1    1    2    0    0 -0.17379339307E+02  0.78186073431E+02 -0.21235170238E+03  0.22695450870E+03  0.00000000000E+00 0. -1.
</event>
<event>
 7    1  0.2530765E-009  0.1318562E+03  0.7561462E-02  0.1224727E+00
         -2   -1    0    0    0  501 -0.00000000000E+00  0.00000000000E+00  0.23339365478E+03  0.23339365478E+03  0.00000000000E+00 0.  1.
          2   -1    0    0  501    0  0.00000000000E+00 -0.00000000000E+00 -0.85833923761E+02  0.85833923761E+02  0.00000000000E+00 0. -1.
         25    2    1    2    0    0 -0.89278320928E+02  0.79647638176E+01  0.70798141062E+02  0.16939374980E+03  0.12509120530E+03 0.  0.
          5    1    3    3  502    0 -0.14992826933E+02 -0.44223468981E+02 -0.98296687946E+01  0.47901929572E+02  0.41800000000E+01 0. -1.
         -5    1    3    3    0  502 -0.74285493995E+02  0.52188232798E+02  0.80627809856E+02  0.12149182023E+03  0.41800000000E+01 0. -1.
        -11    1    1    2    0    0  0.32788496856E+02  0.40085210809E+02  0.16735864155E+02  0.54424248279E+02  0.00000000000E+00 0. -1.
         11    1    1    2    0    0  0.56489824071E+02 -0.48049974627E+02  0.60025725803E+02  0.95409580459E+02  0.00000000000E+00 0.  1.
</event>
<event>
 7    1  0.2530765E-009  0.9434579E+02  0.7561462E-02  0.1292656E+00
          1   -1    0    0  501    0  0.00000000000E+00  0.00000000000E+00  0.91905713777E+03  0.91905713777E+03  0.00000000000E+00 0. -1.
         -1   -1    0    0    0  501 -0.00000000000E+00 -0.00000000000E+00 -0.25724578321E+02  0.25724578321E+02  0.00000000000E+00 0.  1.
         25    2    1    2    0    0 -0.11402030339E+02  0.90294436845E+01  0.81201416952E+03  0.82172073231E+03  0.12508562369E+03 0.  0.
          5    1    3    3  502    0 -0.38864925540E+02 -0.46455636416E+02  0.31027816711E+03  0.31616233485E+03  0.41800000000E+01 0.  1.
         -5    1    3    3    0  502  0.27462895201E+02  0.55485080101E+02  0.50173600241E+03  0.50555839746E+03  0.41800000000E+01 0.  1.
        -11    1    1    2    0    0  0.38309214670E+02 -0.35964035602E+01  0.13378161548E+01  0.38500906473E+02  0.00000000000E+00 0.  1.
         11    1    1    2    0    0 -0.26907184331E+02 -0.54330401243E+01  0.79980573769E+02  0.84560077307E+02  0.00000000000E+00 0. -1.
</event>
<event>
 7    1  0.2530765E-009  0.1160166E+03  0.7561462E-02  0.1249817E+00
         -2   -1    0    0    0  501 -0.00000000000E+00  0.00000000000E+00  0.83598044200E+02  0.83598044200E+02  0.00000000000E+00 0.  1.
          2   -1    0    0  501    0  0.00000000000E+00 -0.00000000000E+00 -0.21154604193E+03  0.21154604193E+03  0.00000000000E+00 0. -1.
         25    2    1    2    0    0 -0.57464516324E+02 -0.30224154303E+02 -0.11511055861E+03  0.18196899001E+03  0.12508638008E+03 0.  0.
          5    1    3    3  502    0 -0.87997267789E+02 -0.49735733565E+01 -0.39859899562E+02  0.96822205941E+02  0.41800000000E+01 0. -1.
         -5    1    3    3    0  502  0.30532751465E+02 -0.25250580946E+02 -0.75250659048E+02  0.85146784069E+02  0.41800000000E+01 0. -1.
        -11    1    1    2    0    0 -0.18600397943E+02 -0.62168074719E+01  0.14634693741E+02  0.24470344494E+02  0.00000000000E+00 0.  1.
         11    1    1    2    0    0  0.76064914266E+02  0.36440961775E+02 -0.27472132865E+02  0.88704751629E+02  0.00000000000E+00 0. -1.
</event>
<event>
 7    1  0.2530765E-009  0.1046036E+03  0.7561462E-02  0.1270903E+00
         -1   -1    0    0    0  501 -0.00000000000E+00  0.00000000000E+00  0.12426044314E+03  0.12426044314E+03  0.00000000000E+00 0.  1.
          1   -1    0    0  501    0  0.00000000000E+00 -0.00000000000E+00 -0.97683062421E+02  0.97683062421E+02  0.00000000000E+00 0. -1.
         25    2    1    2    0    0  0.12698657192E+02 -0.26871671412E+02  0.15959822461E+02  0.12955996346E+03  0.12509086929E+03 0.  0.
          5    1    3    3  502    0  0.35654943859E+02  0.38792459830E+02  0.26424407012E+02  0.59091891552E+02  0.41800000000E+01 0. -1.
         -5    1    3    3    0  502 -0.22956286667E+02 -0.65664131242E+02 -0.10464584551E+02  0.70468071912E+02  0.41800000000E+01 0. -1.
        -11    1    1    2    0    0  0.34594472478E+02  0.16121077149E+02  0.19839715515E+02  0.43014892377E+02  0.00000000000E+00 0.  1.
         11    1    1    2    0    0 -0.47293129670E+02  0.10750594262E+02 -0.92221572553E+01  0.49368649722E+02  0.00000000000E+00 0. -1.
</event>
<event>
 7    1  0.2530765E-009  0.1014367E+03  0.7561462E-02  0.1277303E+00
         -2   -1    0    0    0  501 -0.00000000000E+00  0.00000000000E+00  0.10187994955E+02  0.10187994955E+02  0.00000000000E+00 0.  1.
          2   -1    0    0  501    0  0.00000000000E+00 -0.00000000000E+00 -0.14138801499E+04  0.14138801499E+04  0.00000000000E+00 0. -1.
         25    2    1    2    0    0 -0.11958080714E+00 -0.63763373537E+02 -0.84832485797E+03  0.85986544596E+03  0.12509092055E+03 0.  0.
          5    1    3    3  502    0 -0.15266268478E+02 -0.79569397959E+02 -0.81912034448E+03  0.82312815477E+03  0.41800000000E+01 0.  1.
         -5    1    3    3    0  502  0.15146687671E+02  0.15806024422E+02 -0.29204513495E+02  0.36737291189E+02  0.41800000000E+01 0.  1.
        -11    1    1    2    0    0 -0.36136225707E+02  0.47598471938E+02 -0.33400022536E+03  0.33930457096E+03  0.00000000000E+00 0.  1.
         11    1    1    2    0    0  0.36255806514E+02  0.16164901599E+02 -0.22136707164E+03  0.22489812795E+03  0.00000000000E+00 0. -1.
</event>
<event>
 7    1  0.2530765E-009  0.1146643E+03  0.7561462E-02  0.1252168E+00
         -2   -1    0    0    0  501 -0.00000000000E+00  0.00000000000E+00  0.24176345858E+02  0.24176345858E+02  0.00000000000E+00 0. -1.
          2   -1    0    0  501    0  0.00000000000E+00 -0.00000000000E+00 -0.67447912662E+03  0.67447912662E+03  0.00000000000E+00 0.  1.
         25    2    1    2    0    0  0.37394949460E+01 -0.52452375810E+02 -0.24464023126E+03  0.27975333385E+03  0.12509136461E+03 0.  0.
          5    1    3    3  502    0  0.14619082994E+02 -0.87125288333E+02 -0.21564257747E+03  0.23307450970E+03  0.41800000000E+01 0.  1.
         -5    1    3    3    0  502 -0.10879588048E+02  0.34672912523E+02 -0.28997653788E+02  0.46678824151E+02  0.41800000000E+01 0.  1.
        -11    1    1    2    0    0  0.77926342897E+01 -0.24904659777E+02 -0.91276657258E+02  0.94933636757E+02  0.00000000000E+00 0. -1.
         11    1    1    2    0    0 -0.11532129236E+02  0.77357035587E+02 -0.31438589224E+03  0.32396850187E+03  0.00000000000E+00 0.  1.
</event>
<event>
 7    1  0.2530765E-009  0.1006026E+03  0.7561462E-02  0.1279034E+00
          1   -1    0    0  501    0  0.00000000000E+00  0.00000000000E+00  0.27588403429E+03  0.27588403429E+03  0.00000000000E+00 0. -1.
         -1   -1    0    0    0  501 -0.00000000000E+00 -0.00000000000E+00 -0.54293365157E+02  0.54293365157E+02  0.00000000000E+00 0.  1.
         25    2    1    2    0    0 -0.52208764216E+02  0.15750684945E+02  0.10873653112E+03  0.17448465242E+03  0.12508965422E+03 0.  0.
          5    1    3    3  502    0 -0.89762590292E+01 -0.31023754146E+02  0.10567658583E+03  0.11058055770E+03  0.41800000000E+01 0. -1.
         -5    1    3    3    0  502 -0.43232505187E+02  0.46774439091E+02  0.30599452838E+01  0.63904094721E+02  0.41800000000E+01 0. -1.
        -11    1    1    2    0    0  0.50954572613E+02 -0.49498028241E+02  0.60076821496E+02  0.93035733731E+02  0.00000000000E+00 0. -1.
         11    1    1    2    0    0  0.12541916025E+01  0.33747343296E+02  0.52777316518E+02  0.62657013294E+02  0.00000000000E+00 0.  1.
</event>
<event>
 7    1  0.2530765E-009  0.1127254E+03  0.7561462E-02  0.1255605E+00
         -3   -1    0    0    0  501 -0.00000000000E+00  0.00000000000E+00  0.13282971520E+02  0.13282971520E+02  0.00000000000E+00 0.  1.
          3   -1    0    0  501    0  0.00000000000E+00 -0.00000000000E+00 -0.99362740643E+03  0.99362740643E+03  0.00000000000E+00 0. -1.
         25    2    1    2    0    0  0.34619979201E+02  0.95596168756E+01 -0.60348333893E+03  0.61735771962E+03  0.12509390222E+03 0.  0.
          5    1    3    3  502    0 -0.28579772250E+02 -0.39339218655E+02 -0.27278245937E+03  0.27711391168E+03  0.41800000000E+01 0.  1.
         -5    1    3    3    0  502  0.63199751451E+02  0.48898835530E+02 -0.33070087956E+03  0.34024380794E+03  0.41800000000E+01 0.  1.
        -11    1    1    2    0    0  0.22554622454E+02  0.21843423530E+02 -0.16172362037E+03  0.16474336263E+03  0.00000000000E+00 0.  1.
         11    1    1    2    0    0 -0.57174601655E+02 -0.31403040406E+02 -0.21513747560E+03  0.22480929569E+03  0.00000000000E+00 0. -1.
</event>
<event>
 7    1  0.2530765E-009  0.8525135E+02  0.7561462E-02  0.1314777E+00
          1   -1    0    0  501    0  0.00000000000E+00  0.00000000000E+00  0.23026683496E+03  0.23026683496E+03  0.00000000000E+00 0. -1.
         -1   -1    0    0    0  501 -0.00000000000E+00 -0.00000000000E+00 -0.73358508857E+02  0.73358508857E+02  0.00000000000E+00 0.  1.
         25    2    1    2    0    0 -0.16962665651E+02  0.69405466666E+02  0.95066944428E+02  0.17260045614E+03  0.12509333598E+03 0.  0.
          5    1    3    3  502    0  0.23931754268E+02  0.42722999461E+02 -0.15603197305E+02  0.51564675034E+02  0.41800000000E+01 0.  1.
         -5    1    3    3    0  502 -0.40894419918E+02  0.26682467205E+02  0.11067014173E+03  0.12103578110E+03  0.41800000000E+01 0.  1.
        -11    1    1    2    0    0  0.15895963145E+02 -0.41786103464E+02  0.84293037572E+02  0.95415283210E+02  0.00000000000E+00 0. -1.
         11    1    1    2    0    0  0.10667025056E+01 -0.27619363202E+02 -0.22451655896E+02  0.35609604469E+02  0.00000000000E+00 0.  1.
</event>
<event>
 7    1  0.2530765E-009  0.1769560E+03  0.7561462E-02  0.1170782E+00
         -3   -1    0    0    0  501 -0.00000000000E+00  0.00000000000E+00  0.14855775387E+03  0.14855775387E+03  0.00000000000E+00 0.  1.
          3   -1    0    0  501    0  0.00000000000E+00 -0.00000000000E+00 -0.26460108205E+03  0.26460108205E+03  0.00000000000E+00 0. -1.
         25    2    1    2    0    0 -0.14088122111E+03  0.33397066191E+02  0.22148218670E+02  0.19261532755E+03  0.12508892167E+03 0.  0.
          5    1    3    3  502    0 -0.53542582569E+02 -0.41249675892E+02 -0.19281712077E+02  0.70410231714E+02  0.41800000000E+01 0. -1.
         -5    1    3    3    0  502 -0.87338638540E+02  0.74646742083E+02  0.41429930747E+02  0.12220509583E+03  0.41800000000E+01 0. -1.
        -11    1    1    2    0    0  0.35464975569E+02 -0.53227112505E+02 -0.61055072204E+02  0.88422914675E+02  0.00000000000E+00 0. -1.
         11    1    1    2    0    0  0.10541624554E+03  0.19830046314E+02 -0.77136474647E+02  0.13212059371E+03  0.00000000000E+00 0.  1.
</event>
<event>
 7    1  0.2530765E-009  0.8431412E+02  0.7561462E-02  0.1317236E+00
         -1   -1    0    0    0  501 -0.00000000000E+00  0.00000000000E+00  0.10996599012E+03  0.10996599012E+03  0.00000000000E+00 0.  1.
          1   -1    0    0  501    0  0.00000000000E+00 -0.00000000000E+00 -0.13443511095E+03  0.13443511095E+03  0.00000000000E+00 0. -1.
         25    2    1    2    0    0  0.21173370100E+01  0.69160436819E+01  0.41024307337E+02  0.13184484830E+03  0.12509098870E+03 0.  0.
          5    1    3    3  502    0  0.51571257569E+02  0.82446956171E+01 -0.17369999816E+02  0.55197453806E+02  0.41800000000E+01 0.  1.
         -5    1    3    3    0  502 -0.49453920559E+02 -0.13286519352E+01  0.58394307153E+02  0.76647394492E+02  0.41800000000E+01 0.  1.
        -11    1    1    2    0    0  0.13810674133E+02  0.26324531190E+02  0.76099854455E+01  0.30685950219E+02  0.00000000000E+00 0.  1.
         11    1    1    2    0    0 -0.15928011143E+02 -0.33240574872E+02 -0.73103413613E+02  0.81870302544E+02  0.00000000000E+00 0. -1.
</event>
<event>
 7    1  0.2530765E-009  0.1541852E+03  0.7561462E-02  0.1195423E+00
          2   -1    0    0  501    0  0.00000000000E+00  0.00000000000E+00  0.10395944425E+04  0.10395944425E+04  0.00000000000E+00 0. -1.
         -2   -1    0    0    0  501 -0.00000000000E+00 -0.00000000000E+00 -0.28602925422E+02  0.28602925422E+02  0.00000000000E+00 0.  1.
         25    2    1    2    0    0  0.14237594445E+02 -0.12082043635E+03  0.70097097548E+03  0.72236021641E+03  0.12507472506E+03 0.  0.
          5    1    3    3  502    0  0.73409601037E+01  0.26052476766E+02  0.11018192394E+03  0.11353479644E+03  0.41800000000E+01 0. -1.
         -5    1    3    3    0  502  0.68966343417E+01 -0.14687291312E+03  0.59078905155E+03  0.60882541997E+03  0.41800000000E+01 0. -1.
        -11    1    1    2    0    0  0.19713056155E+02  0.70363314476E+02  0.81948397963E+02  0.10979590400E+03  0.00000000000E+00 0.  1.
         11    1    1    2    0    0 -0.33950650601E+02  0.50457121877E+02  0.22807214360E+03  0.23604124748E+03  0.00000000000E+00 0. -1.
</event>
<event>
 7    1  0.2530765E-009  0.1375275E+03  0.7561462E-02  0.1216695E+00
          2   -1    0    0  501    0  0.00000000000E+00  0.00000000000E+00  0.12087533324E+03  0.12087533324E+03  0.00000000000E+00 0. -1.
         -2   -1    0    0    0  501 -0.00000000000E+00 -0.00000000000E+00 -0.31960322284E+03  0.31960322284E+03  0.00000000000E+00 0.  1.
         25    2    1    2    0    0  0.86194506280E+01  0.13511361593E+03 -0.13827672652E+01  0.18433645902E+03  0.12509210182E+03 0.  0.
          5    1    3    3  502    0 -0.34692047253E+01  0.35276660350E+02 -0.58557702528E+02  0.68578094696E+02  0.41800000000E+01 0.  1.
         -5    1    3    3    0  502  0.12088655353E+02  0.99836955582E+02  0.57174935262E+02  0.11575836432E+03  0.41800000000E+01 0.  1.
        -11    1    1    2    0    0 -0.13563024491E+02 -0.24647346500E+02 -0.11468301970E+03  0.11808320088E+03  0.00000000000E+00 0.  1.
         11    1    1    2    0    0  0.49435738631E+01 -0.11046626943E+03 -0.82662102635E+02  0.13805889619E+03  0.00000000000E+00 0. -1.
</event>
<event>
 7    1  0.2530765E-009  0.1066419E+03  0.7561462E-02  0.1266918E+00
         -1   -1    0    0    0  501 -0.00000000000E+00  0.00000000000E+00  0.27164802096E+02  0.27164802096E+02  0.00000000000E+00 0. -1.
          1   -1    0    0  501    0  0.00000000000E+00 -0.00000000000E+00 -0.58302945572E+03  0.58302945572E+03  0.00000000000E+00 0.  1.
         25    2    1    2    0    0 -0.17017459889E+02 -0.43410431984E+02 -0.19700799874E+03  0.23797778947E+03  0.12508883710E+03 0.  0.
          5    1    3    3  502    0 -0.57775572261E+02 -0.37504096852E+01 -0.38836566634E+02  0.69841489322E+02  0.41800000000E+01 0.  1.
         -5    1    3    3    0  502  0.40758112372E+02 -0.39660022299E+02 -0.15817143211E+03  0.16813630015E+03  0.41800000000E+01 0.  1.
        -11    1    1    2    0    0  0.50971465120E+02  0.12932697565E+02 -0.21266833959E+03  0.21907342967E+03  0.00000000000E+00 0.  1.
         11    1    1    2    0    0 -0.33954005232E+02  0.30477734419E+02 -0.14618831529E+03  0.15314303867E+03  0.00000000000E+00 0. -1.
</event>
<event>
 7    1  0.2530765E-009  0.1471613E+03  0.7561462E-02  0.1204005E+00
         -2   -1    0    0    0  501 -0.00000000000E+00  0.00000000000E+00  0.29687158266E+03  0.29687158266E+03  0.00000000000E+00 0.  1.
          2   -1    0    0  501    0  0.00000000000E+00 -0.00000000000E+00 -0.87171756789E+02  0.87171756789E+02  0.00000000000E+00 0. -1.
         25    2    1    2    0    0 -0.11518021269E+03  0.28264867834E+02  0.13141024119E+03  0.21675152687E+03  0.12508872356E+03 0.  0.
          5    1    3    3  502    0 -0.44987947788E+02  0.55397862910E+02  0.12117465091E+03  0.14068975472E+03  0.41800000000E+01 0. -1.
         -5    1    3    3    0  502 -0.70192264903E+02 -0.27132995076E+02  0.10235590280E+02  0.76061772149E+02  0.41800000000E+01 0. -1.
        -11    1    1    2    0    0  0.73679564471E+02  0.26897702562E+02  0.35680098865E+02  0.86169797950E+02  0.00000000000E+00 0. -1.
         11    1    1    2    0    0  0.41500648220E+02 -0.55162570395E+02  0.42609485815E+02  0.81122014624E+02  0.00000000000E+00 0.  1.
</event>
<event>
 7    1  0.2530765E-009  0.1334538E+03  0.7561462E-02  0.1222419E+00
         -2   -1    0    0    0  501 -0.00000000000E+00  0.00000000000E+00  0.12613126506E+02  0.12613126506E+02  0.00000000000E+00 0.  1.
          2   -1    0    0  501    0  0.00000000000E+00 -0.00000000000E+00 -0.14905340855E+04  0.14905340855E+04  0.00000000000E+00 0. -1.
         25    2    1    2    0    0 -0.78583071523E+02  0.28812926214E+02 -0.82771066487E+03  0.84128360614E+03  0.12509067662E+03 0.  0.
          5    1    3    3  502    0 -0.15478111329E+02 -0.44064306338E+02 -0.16316287264E+03  0.16976698864E+03  0.41800000000E+01 0. -1.
         -5    1    3    3    0  502 -0.63104960194E+02  0.72877232552E+02 -0.66454779223E+03  0.67151661750E+03  0.41800000000E+01 0. -1.
        -11    1    1    2    0    0 -0.19751506349E+02 -0.13694923911E+02 -0.11499858508E+03  0.11748339251E+03  0.00000000000E+00 0. -1.
         11    1    1    2    0    0  0.98334577872E+02 -0.15118002303E+02 -0.53521170909E+03  0.54438021340E+03  0.00000000000E+00 0.  1.
</event>
<event>
 7    1  0.2774286E-009  0.1205750E+03  0.7561462E-02  0.1242151E+00
         -2   -1    0    0    0  501 -0.00000000000E+00  0.00000000000E+00  0.13845281581E+03  0.13845281581E+03  0.00000000000E+00 0.  1.
          2   -1    0    0  501    0  0.00000000000E+00 -0.00000000000E+00 -0.16040850422E+03  0.16040850422E+03  0.00000000000E+00 0. -1.
         25    2    1    2    0    0 -0.84395542791E+02  0.20326553221E+02 -0.65222506565E+02  0.16564256687E+03  0.12509079977E+03 0.  0.
          5    1    3    3  502    0 -0.44768058131E+02  0.56851017365E+02  0.98352207108E+01  0.73146573199E+02  0.41800000000E+01 0. -1.
         -5    1    3    3    0  502 -0.39627484659E+02 -0.36524464144E+02 -0.75057727276E+02  0.92495993671E+02  0.41800000000E+01 0. -1.
        -11    1    1    2    0    0  0.48456877343E+02  0.26778881183E+02  0.48680697135E+02  0.73722369148E+02  0.00000000000E+00 0.  1.
         11    1    1    2    0    0  0.35938665447E+02 -0.47105434404E+02 -0.54138789770E+01  0.59496384008E+02  0.00000000000E+00 0. -1.
</event>
<event>
 7    1  0.2530765E-009  0.1377690E+03  0.7561462E-02  0.1216363E+00
          2   -1    0    0  501    0  0.00000000000E+00  0.00000000000E+00  0.69536112823E+03  0.69536112823E+03  0.00000000000E+00 0. -1.
         -2   -1    0    0    0  501 -0.00000000000E+00 -0.00000000000E+00 -0.35170654727E+02  0.35170654727E+02  0.00000000000E+00 0.  1.
         25    2    1    2    0    0 -0.32904200267E+02  0.79317210707E+02  0.19148250794E+03  0.24430938886E+03  0.12509044860E+03 0.  0.
          5    1    3    3  502    0 -0.62812052570E+02  0.95111753230E+02  0.12256059221E+03  0.16742213328E+03  0.41800000000E+01 0.  1.
         -5    1    3    3    0  502  0.29907852303E+02 -0.15794542523E+02  0.68921915726E+02  0.76887255577E+02  0.41800000000E+01 0.  1.
        -11    1    1    2    0    0  0.39694660259E+02 -0.98956436350E+02  0.41884543696E+03  0.43220312633E+03  0.00000000000E+00 0. -1.
         11    1    1    2    0    0 -0.67904599914E+01  0.19639225643E+02  0.49862528607E+02  0.54019267765E+02  0.00000000000E+00 0.  1.
</event>
<event>
 7    1  0.2530765E-009  0.8916418E+02  0.7561462E-02  0.1304888E+00
          4   -1    0    0  501    0  0.00000000000E+00  0.00000000000E+00  0.23141708370E+03  0.23141708370E+03  0.00000000000E+00 0. -1.
         -4   -1    0    0    0  501 -0.00000000000E+00 -0.00000000000E+00 -0.12019628787E+03  0.12019628787E+03  0.00000000000E+00 0.  1.
         25    2    1    2    0    0  0.36796590212E+02 -0.23915685369E+02 -0.65847385070E+02  0.14801760858E+03  0.12508950904E+03 0.  0.
          5    1    3    3  502    0 -0.35990749002E+02 -0.50334858049E+01 -0.62758712189E+02  0.72641574519E+02  0.41800000000E+01 0.  1.
         -5    1    3    3    0  502  0.72787339214E+02 -0.18882199564E+02 -0.30886728808E+01  0.75376034058E+02  0.41800000000E+01 0.  1.
        -11    1    1    2    0    0  0.10152936911E+02  0.15812372778E+02 -0.14328188831E+01  0.18845854471E+02  0.00000000000E+00 0.  1.
         11    1    1    2    0    0 -0.46949527123E+02  0.81033125901E+01  0.17850099979E+03  0.18474990852E+03  0.00000000000E+00 0. -1.
</event>
<event>
 7    1  0.2530765E-009  0.1570121E+03  0.7561462E-02  0.1192112E+00
          2   -1    0    0  501    0  0.00000000000E+00  0.00000000000E+00  0.59770340764E+03  0.59770340764E+03  0.00000000000E+00 0. -1.
         -2   -1    0    0    0  501 -0.00000000000E+00 -0.00000000000E+00 -0.47481020624E+02  0.47481020624E+02  0.00000000000E+00 0.  1.
         25    2    1    2    0    0 -0.85363618677E+02  0.76523283857E+02  0.18697409889E+03  0.25248618631E+03  0.12508876952E+03 0.  0.
          5    1    3    3  502    0 -0.10492599958E+03  0.92283308313E+02  0.13370621694E+03  0.19344378829E+03  0.41800000000E+01 0. -1.
         -5    1    3    3    0  502  0.19562380898E+02 -0.15760024456E+02  0.53267881946E+02  0.59042398023E+02  0.41800000000E+01 0. -1.
        -11    1    1    2    0    0 -0.16331241291E+02 -0.35550974267E+02  0.10940581875E+03  0.11619042297E+03  0.00000000000E+00 0. -1.
         11    1    1    2    0    0  0.10169485997E+03 -0.40972309590E+02  0.25384246938E+03  0.27650781898E+03  0.00000000000E+00 0.  1.
</event>
<event>
 7    1  0.2530765E-009  0.7914813E+02  0.7561462E-02  0.1331486E+00
         -2   -1    0    0    0  501 -0.00000000000E+00  0.00000000000E+00  0.19853512584E+02  0.19853512584E+02  0.00000000000E+00 0.  1.
          2   -1    0    0  501    0  0.00000000000E+00 -0.00000000000E+00 -0.80057586560E+03  0.80057586560E+03  0.00000000000E+00 0. -1.
         25    2    1    2    0    0 -0.37372702323E+02 -0.51563368260E+02 -0.43586187870E+03  0.45790678713E+03  0.12509016174E+03 0.  0.
          5    1    3    3  502    0 -0.21094611468E+02 -0.57249621325E+02 -0.75736848576E+02  0.97344976280E+02  0.41800000000E+01 0.  1.
         -5    1    3    3    0  502 -0.16278090855E+02  0.56862530649E+01 -0.36012503013E+03  0.36056181084E+03  0.41800000000E+01 0.  1.
        -11    1    1    2    0    0  0.13102113422E+02 -0.78121643549E+01 -0.41253590729E+01  0.15802337660E+02  0.00000000000E+00 0.  1.
         11    1    1    2    0    0  0.24270588901E+02  0.59375532614E+02 -0.34073511524E+03  0.34672025340E+03  0.00000000000E+00 0. -1.
</event>
<event>
 7    1  0.2530765E-009  0.2111604E+03  0.7561462E-02  0.1140650E+00
          2   -1    0    0  501    0  0.00000000000E+00  0.00000000000E+00  0.79611506364E+03  0.79611506364E+03  0.00000000000E+00 0. -1.
         -2   -1    0    0    0  501 -0.00000000000E+00 -0.00000000000E+00 -0.68198542476E+02  0.68198542476E+02  0.00000000000E+00 0.  1.
         25    2    1    2    0    0  0.62321312010E+02  0.18970800944E+03  0.46776878391E+03  0.52376570607E+03  0.12509918019E+03 0.  0.
          5    1    3    3  502    0  0.88434528712E+02  0.15828016997E+03  0.29588783712E+03  0.34704518816E+03  0.41800000000E+01 0. -1.
         -5    1    3    3    0  502 -0.26113216702E+02  0.31427839467E+02  0.17188094679E+03  0.17672051791E+03  0.41800000000E+01 0. -1.
        -11    1    1    2    0    0 -0.32322590381E+02 -0.11271466075E+03  0.21859153467E+03  0.24805564623E+03  0.00000000000E+00 0. -1.
         11    1    1    2    0    0 -0.29998721629E+02 -0.76993348692E+02  0.41556202582E+02  0.92492253812E+02  0.00000000000E+00 0.  1.
</event>
<event>
 7    1  0.2530765E-009  0.9318108E+02  0.7561462E-02  0.1295326E+00
          2   -1    0    0  501    0  0.00000000000E+00  0.00000000000E+00  0.37333721665E+02  0.37333721665E+02  0.00000000000E+00 0.  1.
         -2   -1    0    0    0  501 -0.00000000000E+00 -0.00000000000E+00 -0.38153568120E+03  0.38153568120E+03  0.00000000000E+00 0. -1.
         25    2    1    2    0    0  0.37434739369E+01  0.39465113361E+02 -0.25050650563E+03  0.28279473528E+03  0.12509134330E+03 0.  0.
          5    1    3    3  502    0 -0.38921584733E+02  0.35116624354E+02 -0.22837985003E+03  0.23435634270E+03  0.41800000000E+01 0.  1.
         -5    1    3    3    0  502  0.42665058670E+02  0.43484890073E+01 -0.22126655604E+02  0.48438392585E+02  0.41800000000E+01 0.  1.
        -11    1    1    2    0    0  0.34491668120E+02  0.16593358772E+01 -0.11240204927E+02  0.36314883617E+02  0.00000000000E+00 0. -1.
         11    1    1    2    0    0 -0.38235142057E+02 -0.41124449238E+02 -0.82455248983E+02  0.99759783972E+02  0.00000000000E+00 0.  1.
</event>
<event>
 7    1  0.2530765E-009  0.4284268E+03  0.7561462E-02  0.1034358E+00
          2   -1    0    0  501    0  0.00000000000E+00  0.00000000000E+00  0.19891150447E+04  0.19891150447E+04  0.00000000000E+00 0. -1.
         -2   -1    0    0    0  501 -0.00000000000E+00 -0.00000000000E+00 -0.10246096667E+03  0.10246096667E+03  0.00000000000E+00 0.  1.
         25    2    1    2    0    0 -0.38892592016E+03  0.15050429913E+03  0.64027357176E+03  0.77428180687E+03  0.12508858588E+03 0.  0.
          5    1    3    3  502    0 -0.34412344608E+03  0.89847406617E+02  0.56511737718E+03  0.66773394777E+03  0.41800000000E+01 0.  1.
         -5    1    3    3    0  502 -0.44802474077E+02  0.60656892517E+02  0.75156194586E+02  0.10654785910E+03  0.41800000000E+01 0.  1.
        -11    1    1    2    0    0  0.29737596940E+03 -0.15223683811E+03  0.94524217242E+03  0.10025424114E+04  0.00000000000E+00 0.  1.
         11    1    1    2    0    0  0.91549950757E+02  0.17325389790E+01  0.30113833389E+03  0.31475179318E+03  0.00000000000E+00 0. -1.
</event>
<event>
 7    1  0.2530765E-009  0.8826583E+02  0.7561462E-02  0.1307106E+00
         -1   -1    0    0    0  501 -0.00000000000E+00  0.00000000000E+00  0.78574628820E+02  0.78574628820E+02  0.00000000000E+00 0.  1.
          1   -1    0    0  501    0  0.00000000000E+00 -0.00000000000E+00 -0.18022765047E+03  0.18022765047E+03  0.00000000000E+00 0. -1.
         25    2    1    2    0    0 -0.36592142505E+02  0.33212016569E+02 -0.63376274024E+02  0.14868337720E+03  0.12509265210E+03 0.  0.
          5    1    3    3  502    0 -0.49377976444E+02  0.12855532926E+02 -0.95492402000E+02  0.10834999088E+03  0.41800000000E+01 0.  1.
         -5    1    3    3    0  502  0.12785833939E+02  0.20356483644E+02  0.32116127976E+02  0.40333386319E+02  0.41800000000E+01 0.  1.
        -11    1    1    2    0    0 -0.10919805347E+02  0.24120077992E+02 -0.17754304692E+00  0.26477383418E+02  0.00000000000E+00 0.  1.
         11    1    1    2    0    0  0.47511947852E+02 -0.57332094561E+02 -0.38099204575E+02  0.83641518666E+02  0.00000000000E+00 0. -1.
</event>
<event>
 7    1  0.2530765E-009  0.1339520E+03  0.7561462E-02  0.1221707E+00
         -2   -1    0    0    0  501 -0.00000000000E+00  0.00000000000E+00  0.62795496375E+03  0.62795496375E+03  0.00000000000E+00 0.  1.
          2   -1    0    0  501    0  0.00000000000E+00 -0.00000000000E+00 -0.34536630617E+02  0.34536630617E+02  0.00000000000E+00 0. -1.
         25    2    1    2    0    0  0.50452151440E+02 -0.59649069386E+02  0.45627583304E+03  0.47951879318E+03  0.12508879298E+03 0.  0.
          5    1    3    3  502    0  0.90019886402E+02 -0.57632637799E+02  0.35186610210E+03  0.36776667480E+03  0.41800000000E+01 0. -1.
         -5    1    3    3    0  502 -0.39567734962E+02 -0.20164315866E+01  0.10440973094E+03  0.11175211837E+03  0.41800000000E+01 0. -1.
        -11    1    1    2    0    0  0.25832723641E+02  0.28547650826E+01  0.31090014457E+02  0.40522441848E+02  0.00000000000E+00 0.  1.
         11    1    1    2    0    0 -0.76284875080E+02  0.56794304303E+02  0.10605248564E+03  0.14245035934E+03  0.00000000000E+00 0. -1.
</event>
<event>
 7    1  0.2530765E-009  0.9456107E+02  0.7561462E-02  0.1292168E+00
          1   -1    0    0  501    0  0.00000000000E+00  0.00000000000E+00  0.15735587346E+03  0.15735587346E+03  0.00000000000E+00 0. -1.
         -1   -1    0    0    0  501 -0.00000000000E+00 -0.00000000000E+00 -0.84322791707E+02  0.84322791707E+02  0.00000000000E+00 0.  1.
         25    2    1    2    0    0 -0.12161127760E+02  0.23099513870E+02  0.75576567905E+02  0.14845841022E+03  0.12508637567E+03 0.  0.
          5    1    3    3  502    0  0.35670638481E+02  0.51275387300E+02  0.11628748335E+02  0.63673071076E+02  0.41800000000E+01 0.  1.
         -5    1    3    3    0  502 -0.47831766240E+02 -0.28175873430E+02  0.63947819570E+02  0.84785339139E+02  0.41800000000E+01 0.  1.
        -11    1    1    2    0    0 -0.25997991595E+02 -0.19544035908E+02 -0.31429355654E+02  0.45229075862E+02  0.00000000000E+00 0.  1.
         11    1    1    2    0    0  0.38159119355E+02 -0.35554779621E+01  0.28885869501E+02  0.47991179088E+02  0.00000000000E+00 0. -1.
</event>
<event>
 7    1  0.2530765E-009  0.1042302E+03  0.7561462E-02  0.1271644E+00
          2   -1    0    0  501    0  0.00000000000E+00  0.00000000000E+00  0.28747533506E+03  0.28747533506E+03  0.00000000000E+00 0. -1.
         -2   -1    0    0    0  501 -0.00000000000E+00 -0.00000000000E+00 -0.53437616336E+02  0.53437616336E+02  0.00000000000E+00 0.  1.
         25    2    1    2    0    0 -0.49003553715E+02 -0.73484001694E+01  0.19152718864E+03  0.23406419411E+03  0.12509210892E+03 0.  0.
          5    1    3    3  502    0 -0.22418990828E+02  0.52734609123E+02  0.13707403454E+03  0.14862810465E+03  0.41800000000E+01 0.  1.
         -5    1    3    3    0  502 -0.26584562887E+02 -0.60083009292E+02  0.54453154108E+02  0.85436089457E+02  0.41800000000E+01 0.  1.
        -11    1    1    2    0    0  0.28373388160E+02  0.38489150701E+02 -0.30720446579E+01  0.47915564650E+02  0.00000000000E+00 0.  1.
         11    1    1    2    0    0  0.20630165555E+02 -0.31140750531E+02  0.45582574742E+02  0.58933192639E+02  0.00000000000E+00 0. -1.
</event>
<event>
 7    1  0.2530765E-009  0.1495596E+03  0.7561462E-02  0.1201015E+00
          1   -1    0    0  501    0  0.00000000000E+00  0.00000000000E+00  0.60431705397E+02  0.60431705397E+02  0.00000000000E+00 0. -1.
         -1   -1    0    0    0  501 -0.00000000000E+00 -0.00000000000E+00 -0.49243975634E+03  0.49243975634E+03  0.00000000000E+00 0.  1.
         25    2    1    2    0    0  0.15531165675E+02  0.12822255545E+03 -0.20527246180E+03  0.27288492443E+03  0.12508859890E+03 0.  0.
          5    1    3    3  502    0  0.53938141867E+00 -0.98931373152E+01  0.11268058389E+02  0.15575835070E+02  0.41800000000E+01 0.  1.
         -5    1    3    3    0  502  0.14991784256E+02  0.13811569277E+03 -0.21654052019E+03  0.25730908936E+03  0.41800000000E+01 0.  1.
        -11    1    1    2    0    0 -0.44854115754E+02 -0.95045344389E+02 -0.97434997826E+02  0.14331464681E+03  0.00000000000E+00 0.  1.
         11    1    1    2    0    0  0.29322950080E+02 -0.33177211066E+02 -0.12930059132E+03  0.13667189049E+03  0.00000000000E+00 0. -1.
</event>
<event>
 7    1  0.2530765E-009  0.1275085E+03  0.7561462E-02  0.1231200E+00
          2   -1    0    0  501    0  0.00000000000E+00  0.00000000000E+00  0.74493564553E+03  0.74493564553E+03  0.00000000000E+00 0.  1.
         -2   -1    0    0    0  501 -0.00000000000E+00 -0.00000000000E+00 -0.26195594503E+02  0.26195594503E+02  0.00000000000E+00 0. -1.
         25    2    1    2    0    0 -0.46616176652E+02  0.68432358859E+02  0.47521935571E+03  0.49833459048E+03  0.12509145598E+03 0.  0.
          5    1    3    3  502    0 -0.44811470818E+02  0.97595693093E+02  0.26360839316E+03  0.28467498058E+03  0.41800000000E+01 0. -1.
         -5    1    3    3    0  502 -0.18047058342E+01 -0.29163334234E+02  0.21161096255E+03  0.21365960989E+03  0.41800000000E+01 0. -1.
        -11    1    1    2    0    0 -0.24343279227E+02 -0.24669530368E+02  0.11051743889E+03  0.11582437252E+03  0.00000000000E+00 0. -1.
         11    1    1    2    0    0  0.70959455879E+02 -0.43762828491E+02  0.13300325642E+03  0.15697227703E+03  0.00000000000E+00 0.  1.
</event>
<event>
 7    1  0.2530765E-009  0.1079730E+03  0.7561462E-02  0.1264370E+00
         -1   -1    0    0    0  501 -0.00000000000E+00  0.00000000000E+00  0.41709032218E+02  0.41709032218E+02  0.00000000000E+00 0.  1.
          1   -1    0    0  501    0  0.00000000000E+00 -0.00000000000E+00 -0.35939514222E+03  0.35939514222E+03  0.00000000000E+00 0. -1.
         25    2    1    2    0    0 -0.45604714303E+02 -0.14785235314E+02 -0.12734381476E+03  0.18483086161E+03  0.12509039570E+03 0.  0.
          5    1    3    3  502    0 -0.67201479057E+02  0.21737302568E+02 -0.12310003462E+03  0.14198464718E+03  0.41800000000E+01 0.  1.
         -5    1    3    3    0  502  0.21596764754E+02 -0.36522537881E+02 -0.42437801374E+01  0.42846214430E+02  0.41800000000E+01 0.  1.
        -11    1    1    2    0    0 -0.68101783110E+01  0.42653855806E+02 -0.85503528669E+02  0.95794485011E+02  0.00000000000E+00 0. -1.
         11    1    1    2    0    0  0.52414892614E+02 -0.27868620492E+02 -0.10483876658E+03  0.12047882782E+03  0.00000000000E+00 0.  1.
</event>
<event>
 7    1  0.2530765E-009  0.1024733E+03  0.7561462E-02  0.1275179E+00
          1   -1    0    0  501    0  0.00000000000E+00  0.00000000000E+00  0.25197523219E+03  0.25197523219E+03  0.00000000000E+00 0. -1.
         -1   -1    0    0    0  501 -0.00000000000E+00 -0.00000000000E+00 -0.63972379840E+02  0.63972379840E+02  0.00000000000E+00 0.  1.
         25    2    1    2    0    0 -0.25969661134E+02  0.47643227467E+02  0.14218443121E+03  0.19700730888E+03  0.12510462361E+03 0.  0.
          5    1    3    3  502    0 -0.52275211155E+01 -0.32134099026E+02  0.98079949039E+02  0.10342667016E+03  0.41800000000E+01 0.  1.
         -5    1    3    3    0  502 -0.20742140019E+02  0.79777326493E+02  0.44104482171E+02  0.93580638716E+02  0.41800000000E+01 0.  1.
        -11    1    1    2    0    0 -0.19875889523E+02  0.42688223658E+01  0.45330821502E+02  0.49680551595E+02  0.00000000000E+00 0. -1.
         11    1    1    2    0    0  0.45845550657E+02 -0.51912049833E+02  0.48759964144E+00  0.69259751561E+02  0.00000000000E+00 0.  1.
</event>
<event>
 7    1  0.2530765E-009  0.8695913E+02  0.7561462E-02  0.1310387E+00
         -1   -1    0    0    0  501 -0.00000000000E+00  0.00000000000E+00  0.33265108962E+02  0.33265108962E+02  0.00000000000E+00 0.  1.
          1   -1    0    0  501    0  0.00000000000E+00 -0.00000000000E+00 -0.52846788402E+03  0.52846788402E+03  0.00000000000E+00 0. -1.
         25    2    1    2    0    0  0.20541571174E+02  0.36965331835E+02 -0.40032594944E+03  0.42154016522E+03  0.12508738226E+03 0.  0.
          5    1    3    3  502    0 -0.28841532932E+01 -0.25971145649E+02 -0.15070918320E+02  0.30453632386E+02  0.41800000000E+01 0. -1.
         -5    1    3    3    0  502  0.23425724467E+02  0.62936477483E+02 -0.38525503112E+03  0.39108653284E+03  0.41800000000E+01 0. -1.
        -11    1    1    2    0    0  0.17750527704E+02  0.93606078884E+01 -0.73834084684E+02  0.76512575926E+02  0.00000000000E+00 0. -1.
         11    1    1    2    0    0 -0.38292098878E+02 -0.46325939723E+02 -0.21042740942E+02  0.63680251837E+02  0.00000000000E+00 0.  1.
</event>
<event>
 7    1  0.2530765E-009  0.9302589E+02  0.7561462E-02  0.1295685E+00
         -2   -1    0    0    0  501 -0.00000000000E+00  0.00000000000E+00  0.23722276374E+02  0.23722276374E+02  0.00000000000E+00 0. -1.
          2   -1    0    0  501    0  0.00000000000E+00 -0.00000000000E+00 -0.80520258723E+03  0.80520258723E+03  0.00000000000E+00 0.  1.
         25    2    1    2    0    0  0.51532725446E+02 -0.54110924844E+02 -0.53782735905E+03  0.55721405698E+03  0.12508246549E+03 0.  0.
          5    1    3    3  502    0 -0.11961864883E+02 -0.13186288305E+02 -0.39640466080E+03  0.39682627423E+03  0.41800000000E+01 0. -1.
         -5    1    3    3    0  502  0.63494590329E+02 -0.40924636539E+02 -0.14142269825E+03  0.16038778275E+03  0.41800000000E+01 0. -1.
        -11    1    1    2    0    0 -0.62944290790E+02  0.48038441119E+02 -0.24612644370E+03  0.25854961198E+03  0.00000000000E+00 0.  1.
         11    1    1    2    0    0  0.11411565344E+02  0.60724837256E+01  0.24734918956E+01  0.13161194640E+02  0.00000000000E+00 0. -1.
</event>
<event>
 7    1  0.2530765E-009  0.1839885E+03  0.7561462E-02  0.1163998E+00
          2   -1    0    0  501    0  0.00000000000E+00  0.00000000000E+00  0.54035912931E+03  0.54035912931E+03  0.00000000000E+00 0.  1.
         -2   -1    0    0    0  501 -0.00000000000E+00 -0.00000000000E+00 -0.71319471879E+02  0.71319471879E+02  0.00000000000E+00 0. -1.
         25    2    1    2    0    0  0.13605670958E+03  0.81900507763E+02  0.30536820639E+03  0.36621775093E+03  0.12508628313E+03 0.  0.
          5    1    3    3  502    0 -0.18728785636E+02 -0.45902328479E+01  0.11116006991E+02  0.22646758277E+02  0.41800000000E+01 0. -1.
         -5    1    3    3    0  502  0.15478549521E+03  0.86490740611E+02  0.29425219940E+03  0.34357099265E+03  0.41800000000E+01 0. -1.
        -11    1    1    2    0    0 -0.94237805169E+02 -0.20248096177E+02  0.13446364023E+03  0.16544249716E+03  0.00000000000E+00 0.  1.
         11    1    1    2    0    0 -0.41818904408E+02 -0.61652411586E+02  0.29207810803E+02  0.80018353096E+02  0.00000000000E+00 0. -1.
</event>
<event>
 7    1  0.2851318E-009  0.1199557E+03  0.7561462E-02  0.1243170E+00
          2   -1    0    0  501    0  0.00000000000E+00  0.00000000000E+00  0.97456513659E+03  0.97456513659E+03  0.00000000000E+00 0.  1.
         -2   -1    0    0    0  501 -0.00000000000E+00 -0.00000000000E+00 -0.19471816910E+02  0.19471816910E+02  0.00000000000E+00 0. -1.
         25    2    1    2    0    0  0.51525262279E+02 -0.67710932885E+02  0.53934181678E+03  0.56015866685E+03  0.12509401917E+03 0.  0.
          5    1    3    3  502    0 -0.21151538661E+02 -0.50147316945E+02  0.95124867244E+02  0.10967385173E+03  0.41800000000E+01 0. -1.
         -5    1    3    3    0  502  0.72676800941E+02 -0.17563615940E+02  0.44421694953E+03  0.45048481512E+03  0.41800000000E+01 0. -1.
        -11    1    1    2    0    0 -0.64567787068E+02  0.31282038794E+02  0.35252268636E+03  0.35974964834E+03  0.00000000000E+00 0.  1.
         11    1    1    2    0    0  0.13042524789E+02  0.36428894091E+02  0.63228816535E+02  0.74128638312E+02  0.00000000000E+00 0. -1.
</event>
<event>
 7    1  0.2530765E-009  0.1483903E+03  0.7561462E-02  0.1202465E+00
          1   -1    0    0  501    0  0.00000000000E+00  0.00000000000E+00  0.19315330135E+03  0.19315330135E+03  0.00000000000E+00 0. -1.
         -1   -1    0    0    0  501 -0.00000000000E+00 -0.00000000000E+00 -0.11449216369E+03  0.11449216369E+03  0.00000000000E+00 0.  1.
         25    2    1    2    0    0 -0.95673243569E+02  0.18285763208E+02  0.35626755157E+02  0.16249508243E+03  0.12509055703E+03 0.  0.
          5    1    3    3  502    0 -0.33952631157E+02  0.69797693606E+02  0.12421240921E+02  0.78716318647E+02  0.41800000000E+01 0.  1.
         -5    1    3    3    0  502 -0.61720612412E+02 -0.51511930398E+02  0.23205514237E+02  0.83778763782E+02  0.41800000000E+01 0.  1.
        -11    1    1    2    0    0 -0.16157217335E+02  0.14817149956E+02  0.85631570847E+01  0.23535744392E+02  0.00000000000E+00 0.  1.
         11    1    1    2    0    0  0.11183046090E+03 -0.33102913165E+02  0.34471225420E+02  0.12161463821E+03  0.00000000000E+00 0. -1.
</event>
<event>
 7    1  0.2530765E-009  0.2095238E+03  0.7561462E-02  0.1141944E+00
         -2   -1    0    0    0  501 -0.00000000000E+00  0.00000000000E+00  0.28546463962E+02  0.28546463962E+02  0.00000000000E+00 0.  1.
          2   -1    0    0  501    0  0.00000000000E+00 -0.00000000000E+00 -0.15530247085E+04  0.15530247085E+04  0.00000000000E+00 0. -1.
         25    2    1    2    0    0  0.13833593689E+03  0.11458774310E+03 -0.85661573190E+03  0.88414116269E+03  0.12509157097E+03 0.  0.
          5    1    3    3  502    0  0.15966661850E+03  0.11554087083E+03 -0.77355753756E+03  0.79828056360E+03  0.41800000000E+01 0.  1.
         -5    1    3    3    0  502 -0.21330681613E+02 -0.95312773594E+00 -0.83058194334E+02  0.85860599093E+02  0.41800000000E+01 0.  1.
        -11    1    1    2    0    0 -0.14734749152E+03 -0.11966288587E+03 -0.61748064812E+03  0.64599755442E+03  0.00000000000E+00 0.  1.
         11    1    1    2    0    0  0.90115546332E+01  0.50751427725E+01 -0.50381864567E+02  0.51432455399E+02  0.00000000000E+00 0. -1.
</event>
<event>
 7    1  0.2544219E-009  0.1140115E+03  0.7561462E-02  0.1253316E+00
         -2   -1    0    0    0  501 -0.00000000000E+00  0.00000000000E+00  0.21207284349E+02  0.21207284349E+02  0.00000000000E+00 0.  1.
          2   -1    0    0  501    0  0.00000000000E+00 -0.00000000000E+00 -0.62244345013E+03  0.62244345013E+03  0.00000000000E+00 0. -1.
         25    2    1    2    0    0  0.33302830555E+02  0.11860768987E+02 -0.30322255295E+03  0.32991248139E+03  0.12509425405E+03 0.  0.
          5    1    3    3  502    0  0.32659856480E+02 -0.54387051460E+02 -0.15208218988E+03  0.16483653257E+03  0.41800000000E+01 0. -1.
         -5    1    3    3    0  502  0.64297407483E+00  0.66247820447E+02 -0.15114036307E+03  0.16507594882E+03  0.41800000000E+01 0. -1.
        -11    1    1    2    0    0  0.21477112614E+01 -0.47644055908E+02 -0.14205954848E+03  0.14985154000E+03  0.00000000000E+00 0.  1.
         11    1    1    2    0    0 -0.35450541817E+02  0.35783286921E+02 -0.15595406436E+03  0.16388671309E+03  0.00000000000E+00 0. -1.
</event>
<event>
 7    1  0.2530765E-009  0.1449388E+03  0.7561462E-02  0.1206834E+00
         -2   -1    0    0    0  501 -0.00000000000E+00  0.00000000000E+00  0.28952465898E+02  0.28952465898E+02  0.00000000000E+00 0. -1.
          2   -1    0    0  501    0  0.00000000000E+00 -0.00000000000E+00 -0.11371984051E+04  0.11371984051E+04  0.00000000000E+00 0.  1.
         25    2    1    2    0    0 -0.29160620717E+02 -0.10434115362E+03 -0.89353503297E+03  0.90872959477E+03  0.12508878096E+03 0.  0.
          5    1    3    3  502    0  0.41662439124E+02 -0.15480224583E+02 -0.38825650048E+03  0.39081450683E+03  0.41800000000E+01 0.  1.
         -5    1    3    3    0  502 -0.70823059841E+02 -0.88860929035E+02 -0.50527853250E+03  0.51791508794E+03  0.41800000000E+01 0.  1.
        -11    1    1    2    0    0  0.17260942679E+01  0.10407734450E+03 -0.20187515987E+03  0.22713135673E+03  0.00000000000E+00 0.  1.
         11    1    1    2    0    0  0.27434526449E+02  0.26380912191E+00 -0.12835746312E+02  0.30289919448E+02  0.00000000000E+00 0. -1.
</event>
<event>
 7    1  0.2530765E-009  0.1088403E+03  0.7561462E-02  0.1262733E+00
         -1   -1    0    0    0  501 -0.00000000000E+00  0.00000000000E+00  0.15514437021E+03  0.15514437021E+03  0.00000000000E+00 0.  1.
          1   -1    0    0  501    0  0.00000000000E+00 -0.00000000000E+00 -0.11133753237E+03  0.11133753237E+03  0.00000000000E+00 0. -1.
         25    2    1    2    0    0 -0.23274004161E+02 -0.18411098495E+02 -0.43922539614E+02  0.13586037553E+03  0.12509278291E+03 0.  0.
          5    1    3    3  502    0  0.31775091499E+02  0.35316721730E+02 -0.33137166505E+02  0.58072984059E+02  0.41800000000E+01 0.  1.
         -5    1    3    3    0  502 -0.55049095661E+02 -0.53727820225E+02 -0.10785373109E+02  0.77787391474E+02  0.41800000000E+01 0.  1.
        -11    1    1    2    0    0 -0.16951005833E+02 -0.27256045718E+02  0.48695686518E+02  0.58322367171E+02  0.00000000000E+00 0.  1.
         11    1    1    2    0    0  0.40225009995E+02  0.45667144213E+02  0.39033690937E+02  0.72299159869E+02  0.00000000000E+00 0. -1.
</event>
<event>
 7    1  0.2530765E-009  0.2254319E+03  0.7561462E-02  0.1129897E+00
          1   -1    0    0  501    0  0.00000000000E+00  0.00000000000E+00  0.58870533282E+03  0.58870533282E+03  0.00000000000E+00 0. -1.
         -1   -1    0    0    0  501 -0.00000000000E+00 -0.00000000000E+00 -0.97150615391E+02  0.97150615391E+02  0.00000000000E+00 0.  1.
         25    2    1    2    0    0  0.60935724735E+02 -0.20215668558E+03  0.22751498179E+03  0.33464691780E+03  0.12507999272E+03 0.  0.
          5    1    3    3  502    0 -0.19131125692E+02  0.18988787261E+01  0.14452797720E+01  0.19727314674E+02  0.41800000000E+01 0. -1.
         -5    1    3    3    0  502  0.80066850427E+02 -0.20405556431E+03  0.22606970202E+03  0.31491960313E+03  0.41800000000E+01 0. -1.
        -11    1    1    2    0    0 -0.26346521569E+02  0.58061892233E+02  0.22077062222E+02  0.67473840893E+02  0.00000000000E+00 0.  1.
         11    1    1    2    0    0 -0.34589203166E+02  0.14409479335E+03  0.24196267341E+03  0.28373518952E+03  0.00000000000E+00 0. -1.
</event>
<event>
 7    1  0.2530765E-009  0.7350982E+02  0.7561462E-02  0.1348549E+00
          1   -1    0    0  501    0  0.00000000000E+00  0.00000000000E+00  0.60062564680E+03  0.60062564680E+03  0.00000000000E+00 0. -1.
         -1   -1    0    0    0  501 -0.00000000000E+00 -0.00000000000E+00 -0.24460295660E+02  0.24460295660E+02  0.00000000000E+00 0.  1.
         25    2    1    2    0    0 -0.48199665948E+02 -0.49907079143E+01  0.39942727301E+03  0.42135261644E+03  0.12509103083E+03 0.  0.
          5    1    3    3  502    0 -0.23735828326E+02 -0.53235271964E+01  0.38299359745E+01  0.24977395735E+02  0.41800000000E+01 0. -1.
         -5    1    3    3    0  502 -0.24463837623E+02  0.33281928214E+00  0.39559733704E+03  0.39637522071E+03  0.41800000000E+01 0. -1.
        -11    1    1    2    0    0 -0.16067750530E+02  0.25427228645E+02  0.31242121373E+02  0.43368037903E+02  0.00000000000E+00 0.  1.
         11    1    1    2    0    0  0.64267416478E+02 -0.20436520730E+02  0.14549595675E+03  0.16036528811E+03  0.00000000000E+00 0. -1.
</event>
<event>
 7    1  0.2530765E-009  0.1800311E+03  0.7561462E-02  0.1167773E+00
         -2   -1    0    0    0  501 -0.00000000000E+00  0.00000000000E+00  0.77885277566E+02  0.77885277566E+02  0.00000000000E+00 0.  1.
          2   -1    0    0  501    0  0.00000000000E+00 -0.00000000000E+00 -0.54247189041E+03  0.54247189041E+03  0.00000000000E+00 0. -1.
         25    2    1    2    0    0  0.11701545809E+03  0.12066964221E+03 -0.17409192658E+03  0.27241470125E+03  0.12509192849E+03 0.  0.
          5    1    3    3  502    0  0.98657485968E+02  0.36642638234E+02 -0.39205905146E+02  0.11238575476E+03  0.41800000000E+01 0. -1.
         -5    1    3    3    0  502  0.18357972126E+02  0.84027003977E+02 -0.13488602143E+03  0.16002894649E+03  0.41800000000E+01 0. -1.
        -11    1    1    2    0    0 -0.43812426343E+02 -0.36051629189E+02 -0.18739573593E+03  0.19579686033E+03  0.00000000000E+00 0. -1.
         11    1    1    2    0    0 -0.73203031750E+02 -0.84618013023E+02 -0.10309895033E+03  0.15214560640E+03  0.00000000000E+00 0.  1.
</event>
<event>
 7    1  0.2530765E-009  0.1144548E+03  0.7561462E-02  0.1252536E+00
         -1   -1    0    0    0  501 -0.00000000000E+00  0.00000000000E+00  0.73292519561E+02  0.73292519561E+02  0.00000000000E+00 0.  1.
          1   -1    0    0  501    0  0.00000000000E+00 -0.00000000000E+00 -0.20561316384E+03  0.20561316384E+03  0.00000000000E+00 0. -1.
         25    2    1    2    0    0 -0.18339909900E+02  0.54082885910E+02 -0.87078405944E+02  0.16275874877E+03  0.12508577328E+03 0.  0.
          5    1    3    3  502    0  0.18417551220E+02  0.77395610411E+02 -0.88413267101E+02  0.11901119655E+03  0.41800000000E+01 0. -1.
         -5    1    3    3    0  502 -0.36757461120E+02 -0.23312724501E+02  0.13348611568E+01  0.43747552228E+02  0.41800000000E+01 0. -1.
        -11    1    1    2    0    0 -0.35185645793E+02 -0.11182991600E+02 -0.25138677055E+02  0.44665893644E+02  0.00000000000E+00 0.  1.
         11    1    1    2    0    0  0.53525555693E+02 -0.42899894310E+02 -0.20103561282E+02  0.71481040985E+02  0.00000000000E+00 0. -1.
</event>
<event>
 7    1  0.2530765E-009  0.1757744E+03  0.7561462E-02  0.1171956E+00
         -2   -1    0    0    0  501 -0.00000000000E+00  0.00000000000E+00  0.12568799340E+03  0.12568799340E+03  0.00000000000E+00 0.  1.
          2   -1    0    0  501    0  0.00000000000E+00 -0.00000000000E+00 -0.26512152286E+03  0.26512152286E+03  0.00000000000E+00 0. -1.
         25    2    1    2    0    0  0.14391434142E+03 -0.22566310409E+02 -0.92087678826E+02  0.21295179009E+03  0.12509096001E+03 0.  0.
          5    1    3    3  502    0 -0.14917732830E+02 -0.27200530899E+02 -0.26437901107E+02  0.40973682394E+02  0.41800000000E+01 0. -1.
         -5    1    3    3    0  502  0.15883207425E+03  0.46342204902E+01 -0.65649777719E+02  0.17197810769E+03  0.41800000000E+01 0. -1.
        -11    1    1    2    0    0  0.23984666189E+01  0.14563457949E+02  0.12728233795E+02  0.19489866216E+02  0.00000000000E+00 0.  1.
         11    1    1    2    0    0 -0.14631280804E+03  0.80028524596E+01 -0.60074084429E+02  0.15836785995E+03  0.00000000000E+00 0. -1.
</event>
<event>
 7    1  0.2530765E-009  0.1243731E+03  0.7561462E-02  0.1236052E+00
         -1   -1    0    0    0  501 -0.00000000000E+00  0.00000000000E+00  0.20937245834E+02  0.20937245834E+02  0.00000000000E+00 0.  1.
          1   -1    0    0  501    0  0.00000000000E+00 -0.00000000000E+00 -0.80561920279E+03  0.80561920279E+03  0.00000000000E+00 0. -1.
         25    2    1    2    0    0  0.69819462235E+02 -0.11793997838E+02 -0.42227904751E+03  0.44607257110E+03  0.12508912435E+03 0.  0.
          5    1    3    3  502    0  0.64316542409E+02  0.43115884316E+02 -0.15728923234E+03  0.17536525345E+03  0.41800000000E+01 0.  1.
         -5    1    3    3    0  502  0.55029198262E+01 -0.54909882154E+02 -0.26498981517E+03  0.27070731765E+03  0.41800000000E+01 0.  1.
        -11    1    1    2    0    0 -0.37007884272E+02  0.52087604189E+02 -0.20468222548E+03  0.21442368207E+03  0.00000000000E+00 0.  1.
         11    1    1    2    0    0 -0.32811577963E+02 -0.40293606351E+02 -0.15772068397E+03  0.16606019545E+03  0.00000000000E+00 0. -1.
</event>
<event>
 7    1  0.2530765E-009  0.1004525E+03  0.7561462E-02  0.1279347E+00
          2   -1    0    0  501    0  0.00000000000E+00  0.00000000000E+00  0.46228999072E+03  0.46228999072E+03  0.00000000000E+00 0. -1.
         -2   -1    0    0    0  501 -0.00000000000E+00 -0.00000000000E+00 -0.36860783383E+02  0.36860783383E+02  0.00000000000E+00 0.  1.
         25    2    1    2    0    0 -0.44137706382E+02 -0.43520316726E+02  0.16707835809E+03  0.21772305796E+03  0.12508396033E+03 0.  0.
          5    1    3    3  502    0 -0.61185891822E+02 -0.40987411132E+02  0.30210405959E+02  0.79710866622E+02  0.41800000000E+01 0. -1.
         -5    1    3    3    0  502  0.17048185440E+02 -0.25329055935E+01  0.13686795213E+03  0.13801219134E+03  0.41800000000E+01 0. -1.
        -11    1    1    2    0    0  0.65850111862E+02  0.60863440856E+01  0.18233332095E+03  0.19395546072E+03  0.00000000000E+00 0. -1.
         11    1    1    2    0    0 -0.21712405480E+02  0.37433972640E+02  0.76017528299E+02  0.87472255419E+02  0.00000000000E+00 0.  1.
</event>
<event>
 7    1  0.2530765E-009  0.1156102E+03  0.7561462E-02  0.1250520E+00
         -2   -1    0    0    0  501 -0.00000000000E+00  0.00000000000E+00  0.20781418741E+02  0.20781418741E+02  0.00000000000E+00 0.  1.
          2   -1    0    0  501    0  0.00000000000E+00 -0.00000000000E+00 -0.12069702111E+04  0.12069702111E+04  0.00000000000E+00 0. -1.
         25    2    1    2    0    0  0.60583003151E+02  0.30691530520E+02 -0.99040671074E+03  0.10005825744E+04  0.12509102804E+03 0.  0.
          5    1    3    3  502    0  0.47430122755E+02 -0.31281807364E+02 -0.74222330530E+03  0.74440652560E+03  0.41800000000E+01 0. -1.
         -5    1    3    3    0  502  0.13152880396E+02  0.61973337884E+02 -0.24818340543E+03  0.25617604885E+03  0.41800000000E+01 0. -1.
        -11    1    1    2    0    0 -0.74404882119E+02 -0.48048416927E+02 -0.17768630309E+03  0.19853755100E+03  0.00000000000E+00 0. -1.
         11    1    1    2    0    0  0.13821878968E+02  0.17356886407E+02 -0.18095778575E+02  0.28631504435E+02  0.00000000000E+00 0.  1.
</event>
<event>
 7    1  0.2530765E-009  0.1039776E+03  0.7561462E-02  0.1272147E+00
         -2   -1    0    0    0  501 -0.00000000000E+00  0.00000000000E+00  0.12311305301E+03  0.12311305301E+03  0.00000000000E+00 0.  1.
          2   -1    0    0  501    0  0.00000000000E+00 -0.00000000000E+00 -0.10174209742E+03  0.10174209742E+03  0.00000000000E+00 0. -1.
         25    2    1    2    0    0  0.29911823585E+02  0.53908112186E+01  0.13976928665E+02  0.12948339149E+03  0.12508723397E+03 0.  0.
          5    1    3    3  502    0 -0.41358118358E+02 -0.21089793325E+01 -0.24232500226E+02  0.48162518779E+02  0.41800000000E+01 0.  1.
         -5    1    3    3    0  502  0.71269941943E+02  0.74997905512E+01  0.38209428891E+02  0.81320872715E+02  0.41800000000E+01 0.  1.
        -11    1    1    2    0    0  0.18236564528E+02 -0.33970497763E+02  0.79980476971E+01  0.39376843081E+02  0.00000000000E+00 0.  1.
         11    1    1    2    0    0 -0.48148388113E+02  0.28579686545E+02 -0.60402077036E+00  0.55994915858E+02  0.00000000000E+00 0. -1.
</event>
<event>
 7    1  0.2530765E-009  0.9626565E+02  0.7561462E-02  0.1288351E+00
         -1   -1    0    0    0  501 -0.00000000000E+00  0.00000000000E+00  0.24893246340E+02  0.24893246340E+02  0.00000000000E+00 0.  1.
          1   -1    0    0  501    0  0.00000000000E+00 -0.00000000000E+00 -0.49369934492E+03  0.49369934492E+03  0.00000000000E+00 0. -1.
         25    2    1    2    0    0  0.24954623972E+02 -0.24939756485E+02 -0.24326390108E+03  0.27580721186E+03  0.12509023876E+03 0.  0.
          5    1    3    3  502    0  0.50936900407E+02 -0.60342611142E+02 -0.11030810812E+03  0.13572453595E+03  0.41800000000E+01 0.  1.
         -5    1    3    3    0  502 -0.25982276434E+02  0.35402854658E+02 -0.13295579296E+03  0.14008267591E+03  0.41800000000E+01 0.  1.
        -11    1    1    2    0    0  0.18580663967E+02 -0.10989190866E+01 -0.95577069289E+01  0.20923633967E+02  0.00000000000E+00 0.  1.
         11    1    1    2    0    0 -0.43535287940E+02  0.26038675571E+02 -0.21598449057E+03  0.22186174544E+03  0.00000000000E+00 0. -1.
</event>
<event>
 7    1  0.2530765E-009  0.8429826E+02  0.7561462E-02  0.1317278E+00
          2   -1    0    0  501    0  0.00000000000E+00  0.00000000000E+00  0.20764955759E+03  0.20764955759E+03  0.00000000000E+00 0. -1.
         -2   -1    0    0    0  501 -0.00000000000E+00 -0.00000000000E+00 -0.76939176597E+02  0.76939176597E+02  0.00000000000E+00 0.  1.
         25    2    1    2    0    0  0.22153055192E+02  0.39416492808E+02  0.85195782312E+02  0.15795708727E+03  0.12509077638E+03 0.  0.
          5    1    3    3  502    0  0.23596669386E+02  0.40940692599E+02 -0.20842775877E+02  0.51815411055E+02  0.41800000000E+01 0.  1.
         -5    1    3    3    0  502 -0.14436141933E+01 -0.15241997907E+01  0.10603855819E+03  0.10614167621E+03  0.41800000000E+01 0.  1.
        -11    1    1    2    0    0  0.43423889019E+02 -0.97492956213E+01  0.27916917546E+02  0.52536056075E+02  0.00000000000E+00 0.  1.
         11    1    1    2    0    0 -0.65576944212E+02 -0.29667197187E+02  0.17597681138E+02  0.74095590844E+02  0.00000000000E+00 0. -1.
</event>
<event>
 7    1  0.2530765E-009  0.1135638E+03  0.7561462E-02  0.1254109E+00
         -1   -1    0    0    0  501 -0.00000000000E+00  0.00000000000E+00  0.67966930763E+02  0.67966930763E+02  0.00000000000E+00 0.  1.
          1   -1    0    0  501    0  0.00000000000E+00 -0.00000000000E+00 -0.24688438051E+03  0.24688438051E+03  0.00000000000E+00 0. -1.
         25    2    1    2    0    0 -0.44214688635E+02  0.58313293277E+02 -0.10674409768E+03  0.17999379469E+03  0.12509230542E+03 0.  0.
          5    1    3    3  502    0  0.17895158697E+02  0.47354423474E+02 -0.10513847800E+03  0.11676579158E+03  0.41800000000E+01 0.  1.
         -5    1    3    3    0  502 -0.62109847332E+02  0.10958869803E+02 -0.16056196783E+01  0.63228003112E+02  0.41800000000E+01 0.  1.
        -11    1    1    2    0    0  0.53441214171E+00 -0.68312475328E+02 -0.35702408258E+02  0.77081397478E+02  0.00000000000E+00 0. -1.
         11    1    1    2    0    0  0.43680276493E+02  0.99991820509E+01 -0.36470943812E+02  0.57776119104E+02  0.00000000000E+00 0.  1.
</event>
<event>
 7    1  0.2530765E-009  0.6956843E+02  0.7561462E-02  0.1361567E+00
          2   -1    0    0  501    0  0.00000000000E+00  0.00000000000E+00  0.10406092100E+03  0.10406092100E+03  0.00000000000E+00 0.  1.
         -2   -1    0    0    0  501 -0.00000000000E+00 -0.00000000000E+00 -0.17804299708E+03  0.17804299708E+03  0.00000000000E+00 0. -1.
         25    2    1    2    0    0  0.14355177120E+02  0.56823850775E+02  0.19340285160E+02  0.13948573312E+03  0.12508877642E+03 0.  0.
          5    1    3    3  502    0  0.19369453413E+02  0.11016174228E+01  0.64487910672E+02  0.67472604139E+02  0.41800000000E+01 0.  1.
         -5    1    3    3    0  502 -0.50142762931E+01  0.55722233352E+02 -0.45147625511E+02  0.72013128982E+02  0.41800000000E+01 0.  1.
        -11    1    1    2    0    0  0.65690996118E+01 -0.10994828242E+02  0.17030544046E+02  0.21309123593E+02  0.00000000000E+00 0.  1.
         11    1    1    2    0    0 -0.20924276732E+02 -0.45829022533E+02 -0.11035290529E+03  0.12130906136E+03  0.00000000000E+00 0. -1.
</event>
<event>
 7    1  0.2530765E-009  0.5969010E+02  0.7561462E-02  0.1399137E+00
          1   -1    0    0  501    0  0.00000000000E+00  0.00000000000E+00  0.15076399676E+03  0.15076399676E+03  0.00000000000E+00 0. -1.
         -1   -1    0    0    0  501 -0.00000000000E+00 -0.00000000000E+00 -0.15963021342E+03  0.15963021342E+03  0.00000000000E+00 0.  1.
         25    2    1    2    0    0 -0.16310791670E+02 -0.14304177403E+02  0.10361296490E+03  0.16387255051E+03  0.12509162602E+03 0.  0.
          5    1    3    3  502    0  0.11605985242E+02  0.47113170468E+01  0.12366598887E+03  0.12436898570E+03  0.41800000000E+01 0.  1.
         -5    1    3    3    0  502 -0.27916776913E+02 -0.19015494450E+02 -0.20053023971E+02  0.39503564811E+02  0.41800000000E+01 0.  1.
        -11    1    1    2    0    0 -0.20267693441E+02  0.26697314307E+02 -0.10071873330E+03  0.10614984327E+03  0.00000000000E+00 0.  1.
         11    1    1    2    0    0  0.36578485111E+02 -0.12393136903E+02 -0.11760448251E+02  0.40371816388E+02  0.00000000000E+00 0. -1.
</event>
<event>
 7    1  0.2530765E-009  0.1191399E+03  0.7561462E-02  0.1244523E+00
          1   -1    0    0  501    0  0.00000000000E+00  0.00000000000E+00  0.81207039905E+02  0.81207039905E+02  0.00000000000E+00 0. -1.
         -1   -1    0    0    0  501 -0.00000000000E+00 -0.00000000000E+00 -0.30738376010E+03  0.30738376010E+03  0.00000000000E+00 0.  1.
         25    2    1    2    0    0 -0.48491466486E+01  0.96329613204E+02 -0.18188968121E+03  0.24090105716E+03  0.12508618871E+03 0.  0.
          5    1    3    3  502    0 -0.83141740542E+01  0.92160294295E+02 -0.43486788232E+02  0.10232897188E+03  0.41800000000E+01 0.  1.
         -5    1    3    3    0  502  0.34650274056E+01  0.41693189095E+01 -0.13840289297E+03  0.13857208528E+03  0.41800000000E+01 0.  1.
        -11    1    1    2    0    0  0.32626942140E+02  0.56480335205E+01 -0.49509471344E-01  0.33112234706E+02  0.00000000000E+00 0.  1.
         11    1    1    2    0    0 -0.27777795491E+02 -0.10197764672E+03 -0.44237529514E+02  0.11457750814E+03  0.00000000000E+00 0. -1.
</event>
<event>
 7    1  0.2530765E-009  0.1324981E+03  0.7561462E-02  0.1223795E+00
         -2   -1    0    0    0  501 -0.00000000000E+00  0.00000000000E+00  0.34966568570E+02  0.34966568570E+02  0.00000000000E+00 0.  1.
          2   -1    0    0  501    0  0.00000000000E+00 -0.00000000000E+00 -0.58733344018E+03  0.58733344018E+03  0.00000000000E+00 0. -1.
         25    2    1    2    0    0  0.10116949725E+03 -0.41214663280E+02 -0.28700327707E+03  0.33159166541E+03  0.12509290899E+03 0.  0.
          5    1    3    3  502    0 -0.17080870212E+02  0.16478007410E+02 -0.12481587920E+02  0.27139331098E+02  0.41800000000E+01 0. -1.
         -5    1    3    3    0  502  0.11825036746E+03 -0.57692670690E+02 -0.27452168915E+03  0.30445233431E+03  0.41800000000E+01 0. -1.
        -11    1    1    2    0    0 -0.31706911188E+02  0.13828906789E+02 -0.37943165225E+02  0.51344431707E+02  0.00000000000E+00 0.  1.
         11    1    1    2    0    0 -0.69462586063E+02  0.27385756491E+02 -0.22742042932E+03  0.23936391164E+03  0.00000000000E+00 0. -1.
</event>
<event>
 7    1  0.2530765E-009  0.1089346E+03  0.7561462E-02  0.1262556E+00
          1   -1    0    0  501    0  0.00000000000E+00  0.00000000000E+00  0.20944233692E+04  0.20944233692E+04  0.00000000000E+00 0.  1.
         -1   -1    0    0    0  501 -0.00000000000E+00 -0.00000000000E+00 -0.11788122532E+02  0.11788122532E+02  0.00000000000E+00 0. -1.
         25    2    1    2    0    0 -0.12437835683E+02  0.66532743856E+02  0.17196760873E+04  0.17255476705E+04  0.12509041522E+03 0.  0.
          5    1    3    3  502    0 -0.47626716147E+02  0.35522173930E+02  0.34776670169E+03  0.35283038437E+03  0.41800000000E+01 0.  1.
         -5    1    3    3    0  502  0.35188880464E+02  0.31010569926E+02  0.13719093857E+04  0.13727172861E+04  0.41800000000E+01 0.  1.
        -11    1    1    2    0    0  0.30382813311E+02  0.10482306438E+02  0.15222786676E+03  0.15558379579E+03  0.00000000000E+00 0.  1.
         11    1    1    2    0    0 -0.17944977628E+02 -0.77015050293E+02  0.21073129253E+03  0.22508002543E+03  0.00000000000E+00 0. -1.
</event>
<event>
 7    1  0.2530765E-009  0.7619710E+02  0.7561462E-02  0.1340204E+00
         -3   -1    0    0    0  501 -0.00000000000E+00  0.00000000000E+00  0.17442902679E+03  0.17442902679E+03  0.00000000000E+00 0.  1.
          3   -1    0    0  501    0  0.00000000000E+00 -0.00000000000E+00 -0.85628590679E+02  0.85628590679E+02  0.00000000000E+00 0. -1.
         25    2    1    2    0    0  0.47822430301E+02  0.17896106798E+02  0.80317297715E+02  0.15717974605E+03  0.12508936317E+03 0.  0.
          5    1    3    3  502    0 -0.28419982421E+01  0.42165915713E+02 -0.16177804537E+02  0.45444858472E+02  0.41800000000E+01 0. -1.
         -5    1    3    3    0  502  0.50664428543E+02 -0.24269808915E+02  0.96495102252E+02  0.11173488758E+03  0.41800000000E+01 0. -1.
        -11    1    1    2    0    0 -0.67978948189E+01 -0.95603567390E+01  0.45505183124E+02  0.46992908892E+02  0.00000000000E+00 0.  1.
         11    1    1    2    0    0 -0.41024535482E+02 -0.83357500589E+01 -0.37022044727E+02  0.55884962524E+02  0.00000000000E+00 0. -1.
</event>
<event>
 7    1  0.2530765E-009  0.8683144E+02  0.7561462E-02  0.1310711E+00
         -2   -1    0    0    0  501 -0.00000000000E+00  0.00000000000E+00  0.62653803123E+02  0.62653803123E+02  0.00000000000E+00 0.  1.
          2   -1    0    0  501    0  0.00000000000E+00 -0.00000000000E+00 -0.20674232103E+03  0.20674232103E+03  0.00000000000E+00 0. -1.
         25    2    1    2    0    0 -0.21911720822E+02 -0.16471263068E+02 -0.56875611965E+02  0.14012086378E+03  0.12509034821E+03 0.  0.
          5    1    3    3  502    0  0.76242148525E+01 -0.59986654494E+02 -0.62498822168E+02  0.87063784330E+02  0.41800000000E+01 0. -1.
         -5    1    3    3    0  502 -0.29535935674E+02  0.43515391427E+02  0.56232102022E+01  0.53057079453E+02  0.41800000000E+01 0. -1.
        -11    1    1    2    0    0  0.39900112978E+02  0.96305937696E+01 -0.98677655294E+02  0.10687397722E+03  0.00000000000E+00 0. -1.
         11    1    1    2    0    0 -0.17988392156E+02  0.68406692982E+01  0.11464749357E+02  0.22401283147E+02  0.00000000000E+00 0.  1.
</event>
<event>
 7    1  0.2530765E-009  0.1246054E+03  0.7561462E-02  0.1235687E+00
          2   -1    0    0  501    0  0.00000000000E+00  0.00000000000E+00  0.80539942946E+03  0.80539942946E+03  0.00000000000E+00 0. -1.
         -2   -1    0    0    0  501 -0.00000000000E+00 -0.00000000000E+00 -0.57701201441E+02  0.57701201441E+02  0.00000000000E+00 0.  1.
         25    2    1    2    0    0  0.21762703425E+02  0.87287045906E+02  0.71804988076E+03  0.73439505179E+03  0.12509123546E+03 0.  0.
          5    1    3    3  502    0  0.57227372848E+02  0.55614403208E+02  0.21999494029E+03  0.23405807015E+03  0.41800000000E+01 0.  1.
         -5    1    3    3    0  502 -0.35464669423E+02  0.31672642699E+02  0.49805494046E+03  0.50033698164E+03  0.41800000000E+01 0.  1.
        -11    1    1    2    0    0 -0.41620464595E+02 -0.11436794065E+02 -0.40730878559E+01  0.43354969453E+02  0.00000000000E+00 0.  1.
         11    1    1    2    0    0  0.19857761170E+02 -0.75850251841E+02  0.33721435116E+02  0.85350609660E+02  0.00000000000E+00 0. -1.
</event>
<event>
 7    1  0.2530765E-009  0.1042249E+03  0.7561462E-02  0.1271654E+00
         -2   -1    0    0    0  501 -0.00000000000E+00  0.00000000000E+00  0.77028733162E+01  0.77028733162E+01  0.00000000000E+00 0.  1.
          2   -1    0    0  501    0  0.00000000000E+00 -0.00000000000E+00 -0.32421104243E+04  0.32421104243E+04  0.00000000000E+00 0. -1.
         25    2    1    2    0    0 -0.38753765437E+02  0.23869370691E+02 -0.28250651499E+04  0.28281995184E+04  0.12509122027E+03 0.  0.
          5    1    3    3  502    0 -0.65425945900E+02 -0.15519382935E+02 -0.89041189644E+03  0.89295701093E+03  0.41800000000E+01 0. -1.
         -5    1    3    3    0  502  0.26672180463E+02  0.39388753626E+02 -0.19346532534E+04  0.19352425074E+04  0.41800000000E+01 0. -1.
        -11    1    1    2    0    0  0.23522914473E+02 -0.54366219481E+02 -0.32975256079E+03  0.33503099061E+03  0.00000000000E+00 0. -1.
         11    1    1    2    0    0  0.15230850965E+02  0.30496848790E+02 -0.79589840291E+02  0.86582788617E+02  0.00000000000E+00 0.  1.
</event>
<event>
 7    1  0.2530765E-009  0.8183967E+02  0.7561462E-02  0.1323910E+00
          2   -1    0    0  501    0  0.00000000000E+00  0.00000000000E+00  0.87867370443E+03  0.87867370443E+03  0.00000000000E+00 0. -1.
         -2   -1    0    0    0  501 -0.00000000000E+00 -0.00000000000E+00 -0.16801597713E+02  0.16801597713E+02  0.00000000000E+00 0.  1.
         25    2    1    2    0    0 -0.36831438386E+02 -0.16030031047E+02  0.63356708557E+03  0.64704561559E+03  0.12508900826E+03 0.  0.
          5    1    3    3  502    0 -0.31256777039E+02  0.23026986778E+02  0.57489162471E+03  0.57621617540E+03  0.41800000000E+01 0.  1.
         -5    1    3    3    0  502 -0.55746613470E+01 -0.39057017825E+02  0.58675460859E+02  0.70829440189E+02  0.41800000000E+01 0.  1.
        -11    1    1    2    0    0  0.39882286387E+02 -0.22846243878E+02  0.18285606915E+03  0.18854413184E+03  0.00000000000E+00 0. -1.
         11    1    1    2    0    0 -0.30508480011E+01  0.38876274925E+02  0.45448952002E+02  0.59885554716E+02  0.00000000000E+00 0.  1.
</event>
<event>
 7    1  0.2530765E-009  0.2998585E+03  0.7561462E-02  0.1085311E+00
         -1   -1    0    0    0  501 -0.00000000000E+00  0.00000000000E+00  0.25083822887E+03  0.25083822887E+03  0.00000000000E+00 0.  1.
          1   -1    0    0  501    0  0.00000000000E+00 -0.00000000000E+00 -0.39228337480E+03  0.39228337480E+03  0.00000000000E+00 0. -1.
         25    2    1    2    0    0  0.50444126149E+02 -0.28786256551E+03 -0.49507888606E+02  0.32172683400E+03  0.12509059997E+03 0.  0.
          5    1    3    3  502    0  0.63888480289E+02 -0.26293729070E+03 -0.72895997738E+01  0.27071824361E+03  0.41800000000E+01 0. -1.
         -5    1    3    3    0  502 -0.13444354141E+02 -0.24925274802E+02 -0.42218288832E+02  0.51008590395E+02  0.41800000000E+01 0. -1.
        -11    1    1    2    0    0 -0.10039626454E+02  0.22815864052E+03 -0.99090474474E+02  0.24894995778E+03  0.00000000000E+00 0. -1.
         11    1    1    2    0    0 -0.40404499695E+02  0.59703924982E+02  0.71532171468E+01  0.72444811888E+02  0.00000000000E+00 0.  1.
</event>
<event>
 7    1  0.2530765E-009  0.7933298E+02  0.7561462E-02  0.1330955E+00
         -2   -1    0    0    0  501 -0.00000000000E+00  0.00000000000E+00  0.11666106073E+03  0.11666106073E+03  0.00000000000E+00 0.  1.
          2   -1    0    0  501    0  0.00000000000E+00 -0.00000000000E+00 -0.11480843951E+03  0.11480843951E+03  0.00000000000E+00 0. -1.
         25    2    1    2    0    0  0.14954702205E+01 -0.82223082859E+01  0.40898586091E+02  0.13187668175E+03  0.12509565165E+03 0.  0.
          5    1    3    3  502    0  0.34308040739E+02  0.21140467755E+02  0.68612415299E+02  0.79681220933E+02  0.41800000000E+01 0.  1.
         -5    1    3    3    0  502 -0.32812570519E+02 -0.29362776041E+02 -0.27713829208E+02  0.52195460820E+02  0.41800000000E+01 0.  1.
        -11    1    1    2    0    0  0.18281427914E+02 -0.27539561987E+02 -0.47492048996E+02  0.57863052105E+02  0.00000000000E+00 0. -1.
         11    1    1    2    0    0 -0.19776898134E+02  0.35761870273E+02  0.84460841303E+01  0.41729766383E+02  0.00000000000E+00 0.  1.
</event>
<event>
 7    1  0.2530765E-009  0.1096583E+03  0.7561462E-02  0.1261204E+00
         -3   -1    0    0    0  501 -0.00000000000E+00  0.00000000000E+00  0.16682895839E+03  0.16682895839E+03  0.00000000000E+00 0.  1.
          3   -1    0    0  501    0  0.00000000000E+00 -0.00000000000E+00 -0.11010516067E+03  0.11010516067E+03  0.00000000000E+00 0. -1.
         25    2    1    2    0    0  0.31702656785E+02 -0.54691073344E+02 -0.31564303452E+01  0.14019290320E+03  0.12509162684E+03 0.  0.
          5    1    3    3  502    0 -0.29378101933E+02 -0.33571991093E+02 -0.44667300045E+02  0.63267618514E+02  0.41800000000E+01 0. -1.
         -5    1    3    3    0  502  0.61080758718E+02 -0.21119082251E+02  0.41510869700E+02  0.76925284686E+02  0.41800000000E+01 0. -1.
        -11    1    1    2    0    0 -0.74155748863E+01  0.76647673645E+02  0.10823831162E+02  0.77762535627E+02  0.00000000000E+00 0. -1.
         11    1    1    2    0    0 -0.24287081899E+02 -0.21956600301E+02  0.49056396911E+02  0.58978680231E+02  0.00000000000E+00 0.  1.
</event>
<event>
 7    1  0.2530765E-009  0.2160505E+03  0.7561462E-02  0.1136862E+00
          2   -1    0    0  501    0  0.00000000000E+00  0.00000000000E+00  0.31377784081E+03  0.31377784081E+03  0.00000000000E+00 0. -1.
         -2   -1    0    0    0  501 -0.00000000000E+00 -0.00000000000E+00 -0.18692696770E+03  0.18692696770E+03  0.00000000000E+00 0.  1.
         25    2    1    2    0    0  0.20812809290E+03  0.67364662356E+01  0.82016113302E+01  0.24305838365E+03  0.12508968145E+03 0.  0.
          5    1    3    3  502    0  0.15155701258E+03 -0.35243922838E+01  0.62347042424E+02  0.16397126426E+03  0.41800000000E+01 0. -1.
         -5    1    3    3    0  502  0.56571080321E+02  0.10260858519E+02 -0.54145431094E+02  0.79087119397E+02  0.41800000000E+01 0. -1.
        -11    1    1    2    0    0 -0.53346583854E+02 -0.37216239073E+02  0.62476280721E+02  0.90189756139E+02  0.00000000000E+00 0. -1.
         11    1    1    2    0    0 -0.15478150905E+03  0.30479772837E+02  0.56172981059E+02  0.16745666871E+03  0.00000000000E+00 0.  1.
</event>
<event>
 7    1  0.2530765E-009  0.1064809E+03  0.7561462E-02  0.1267229E+00
          1   -1    0    0  501    0  0.00000000000E+00  0.00000000000E+00  0.27187541542E+03  0.27187541542E+03  0.00000000000E+00 0. -1.
         -1   -1    0    0    0  501 -0.00000000000E+00 -0.00000000000E+00 -0.69495623614E+02  0.69495623614E+02  0.00000000000E+00 0.  1.
         25    2    1    2    0    0 -0.57964975201E+02  0.43307782703E+02  0.61671238059E+02  0.15711831917E+03  0.12508925702E+03 0.  0.
          5    1    3    3  502    0 -0.76131791352E+02  0.26139588436E+02  0.88846158308E+02  0.11996015999E+03  0.41800000000E+01 0. -1.
         -5    1    3    3    0  502  0.18166816151E+02  0.17168194267E+02 -0.27174920249E+02  0.37158159185E+02  0.41800000000E+01 0. -1.
        -11    1    1    2    0    0 -0.17188344546E+02 -0.23826141001E+02  0.79105563053E+01  0.30425336223E+02  0.00000000000E+00 0.  1.
         11    1    1    2    0    0  0.75153319748E+02 -0.19481641702E+02  0.13279799744E+03  0.15382738364E+03  0.00000000000E+00 0. -1.
</event>
<event>
 7    1  0.2530765E-009  0.1130077E+03  0.7561462E-02  0.1255099E+00
          3   -1    0    0  501    0  0.00000000000E+00  0.00000000000E+00  0.19252219794E+03  0.19252219794E+03  0.00000000000E+00 0. -1.
         -3   -1    0    0    0  501 -0.00000000000E+00 -0.00000000000E+00 -0.93482739623E+02  0.93482739623E+02  0.00000000000E+00 0.  1.
         25    2    1    2    0    0  0.50971011153E+02 -0.20039342326E+02 -0.66350016570E+01  0.13671221371E+03  0.12508631785E+03 0.  0.
          5    1    3    3  502    0  0.64260750821E+02  0.35307344613E+02 -0.23653431066E+02  0.77155750796E+02  0.41800000000E+01 0. -1.
         -5    1    3    3    0  502 -0.13289739668E+02 -0.55346686939E+02  0.17018429409E+02  0.59556462916E+02  0.41800000000E+01 0. -1.
        -11    1    1    2    0    0  0.19220286465E+02  0.16315991968E+02  0.37615706557E+01  0.25490790876E+02  0.00000000000E+00 0.  1.
         11    1    1    2    0    0 -0.70191297617E+02  0.37233503582E+01  0.10191288932E+03  0.12380193298E+03  0.00000000000E+00 0. -1.
</event>
<event>
 7    1  0.2530765E-009  0.1619865E+03  0.7561462E-02  0.1186472E+00
         -2   -1    0    0    0  501 -0.00000000000E+00  0.00000000000E+00  0.27009820460E+02  0.27009820460E+02  0.00000000000E+00 0. -1.
          2   -1    0    0  501    0  0.00000000000E+00 -0.00000000000E+00 -0.10492291805E+04  0.10492291805E+04  0.00000000000E+00 0.  1.
         25    2    1    2    0    0 -0.11918747817E+03  0.44961508200E+02 -0.50425772212E+03  0.53493262182E+03  0.12509943006E+03 0.  0.
          5    1    3    3  502    0 -0.13195379600E+03  0.43480789720E+00 -0.37016954600E+03  0.39300758075E+03  0.41800000000E+01 0. -1.
         -5    1    3    3    0  502  0.12766317828E+02  0.44526700302E+02 -0.13408817611E+03  0.14192504107E+03  0.41800000000E+01 0. -1.
        -11    1    1    2    0    0  0.76413243274E+01 -0.32287631439E+02 -0.49574208228E+02  0.59653022579E+02  0.00000000000E+00 0. -1.
         11    1    1    2    0    0  0.11154615384E+03 -0.12673876760E+02 -0.46838742973E+03  0.48165335659E+03  0.00000000000E+00 0.  1.
</event>
<event>
 7    1  0.2530765E-009  0.4290090E+03  0.7561462E-02  0.1034173E+00
          2   -1    0    0  501    0  0.00000000000E+00  0.00000000000E+00  0.19422736354E+04  0.19422736354E+04  0.00000000000E+00 0. -1.
         -2   -1    0    0    0  501 -0.00000000000E+00 -0.00000000000E+00 -0.11570700714E+03  0.11570700714E+03  0.00000000000E+00 0.  1.
         25    2    1    2    0    0 -0.25403602340E+03  0.33335823737E+03  0.13384107055E+04  0.14080670010E+04  0.12508975685E+03 0.  0.
          5    1    3    3  502    0 -0.26691351818E+03  0.31814495350E+03  0.12978969703E+04  0.13627226627E+04  0.41800000000E+01 0.  1.
         -5    1    3    3    0  502  0.12877494781E+02  0.15213283865E+02  0.40513735174E+02  0.45344338296E+02  0.41800000000E+01 0.  1.
        -11    1    1    2    0    0  0.22177260944E+03 -0.31497270891E+03  0.47246186629E+03  0.60959914104E+03  0.00000000000E+00 0. -1.
         11    1    1    2    0    0  0.32263413960E+02 -0.18385528453E+02  0.15694056475E+02  0.40314500437E+02  0.00000000000E+00 0.  1.
</event>
<event>
 7    1  0.2530765E-009  0.1305913E+03  0.7561462E-02  0.1226581E+00
          3   -1    0    0  501    0  0.00000000000E+00  0.00000000000E+00  0.38977475934E+02  0.38977475934E+02  0.00000000000E+00 0. -1.
         -3   -1    0    0    0  501 -0.00000000000E+00 -0.00000000000E+00 -0.47627809427E+03  0.47627809427E+03  0.00000000000E+00 0.  1.
         25    2    1    2    0    0  0.66993746525E+02  0.37337338284E+02 -0.30075658825E+03  0.33464117295E+03  0.12509176774E+03 0.  0.
          5    1    3    3  502    0  0.32693114606E+02 -0.44866669671E+02 -0.90434072583E+02  0.10619628842E+03  0.41800000000E+01 0. -1.
         -5    1    3    3    0  502  0.34300631920E+02  0.82204007955E+02 -0.21032251567E+03  0.22844488454E+03  0.41800000000E+01 0. -1.
        -11    1    1    2    0    0 -0.86030206088E+02 -0.15579122278E+02 -0.87566760317E+02  0.12374103169E+03  0.00000000000E+00 0.  1.
         11    1    1    2    0    0  0.19036459563E+02 -0.21758216006E+02 -0.48977269770E+02  0.56873365564E+02  0.00000000000E+00 0. -1.
</event>
<event>
 7    1  0.2530765E-009  0.2462411E+03  0.7561462E-02  0.1115704E+00
         -1   -1    0    0    0  501 -0.00000000000E+00  0.00000000000E+00  0.30127056689E+03  0.30127056689E+03  0.00000000000E+00 0.  1.
          1   -1    0    0  501    0  0.00000000000E+00 -0.00000000000E+00 -0.86451042258E+03  0.86451042258E+03  0.00000000000E+00 0. -1.
         25    2    1    2    0    0  0.16816270340E+03  0.14607700961E+03  0.22580621945E+03  0.34095455153E+03  0.12507745568E+03 0.  0.
          5    1    3    3  502    0  0.95265964265E+02  0.69963949986E+01  0.61742097475E+02  0.11381613458E+03  0.41800000000E+01 0. -1.
         -5    1    3    3    0  502  0.72896739134E+02  0.13908061461E+03  0.16406412198E+03  0.22713841695E+03  0.41800000000E+01 0. -1.
        -11    1    1    2    0    0 -0.55086886249E+02 -0.10664488877E+03 -0.42198180226E+03  0.43872125407E+03  0.00000000000E+00 0.  1.
         11    1    1    2    0    0 -0.11307581715E+03 -0.39432120831E+02 -0.36706427289E+03  0.38610518387E+03  0.00000000000E+00 0. -1.
</event>
<event>
 7    1  0.2530765E-009  0.9021080E+02  0.7561462E-02  0.1302342E+00
          1   -1    0    0  501    0  0.00000000000E+00  0.00000000000E+00  0.14024565235E+03  0.14024565235E+03  0.00000000000E+00 0. -1.
         -1   -1    0    0    0  501 -0.00000000000E+00 -0.00000000000E+00 -0.12261830397E+03  0.12261830397E+03  0.00000000000E+00 0.  1.
         25    2    1    2    0    0  0.56516199825E+00  0.15534483141E+01  0.83983452300E+02  0.15067646628E+03  0.12508974626E+03 0.  0.
          5    1    3    3  502    0 -0.42031214927E+02 -0.44860021965E+02  0.47105671433E+02  0.77559404846E+02  0.41800000000E+01 0. -1.
         -5    1    3    3    0  502  0.42596376925E+02  0.46413470279E+02  0.36877780868E+02  0.73117061430E+02  0.41800000000E+01 0. -1.
        -11    1    1    2    0    0 -0.20915702048E+02 -0.19455833676E+02  0.10699672816E+02  0.30503754762E+02  0.00000000000E+00 0. -1.
         11    1    1    2    0    0  0.20350540050E+02  0.17902385362E+02 -0.77055776736E+02  0.81683735287E+02  0.00000000000E+00 0.  1.
</event>
<event>
 7    1  0.2530765E-009  0.1143670E+03  0.7561462E-02  0.1252690E+00
          2   -1    0    0  501    0  0.00000000000E+00  0.00000000000E+00  0.25841918579E+02  0.25841918579E+02  0.00000000000E+00 0. -1.
         -2   -1    0    0    0  501 -0.00000000000E+00 -0.00000000000E+00 -0.52527627991E+03  0.52527627991E+03  0.00000000000E+00 0.  1.
         25    2    1    2    0    0  0.10193391298E+02 -0.37993808250E+02 -0.30602598983E+03  0.33293665669E+03  0.12508987260E+03 0.  0.
          5    1    3    3  502    0 -0.99161864592E+01  0.44672053892E+02 -0.10699836543E+03  0.11644760950E+03  0.41800000000E+01 0.  1.
         -5    1    3    3    0  502  0.20109577758E+02 -0.82665862142E+02 -0.19902762440E+03  0.21648904719E+03  0.41800000000E+01 0.  1.
        -11    1    1    2    0    0 -0.13064316803E+02 -0.28341329173E+02 -0.90334471033E+02  0.95573134142E+02  0.00000000000E+00 0.  1.
         11    1    1    2    0    0  0.28709255051E+01  0.66335137423E+02 -0.10307390047E+03  0.12260840766E+03  0.00000000000E+00 0. -1.
</event>
<event>
 7    1  0.2530765E-009  0.7778339E+02  0.7561462E-02  0.1335462E+00
          3   -1    0    0  501    0  0.00000000000E+00  0.00000000000E+00  0.76414901499E+02  0.76414901499E+02  0.00000000000E+00 0. -1.
         -3   -1    0    0    0  501 -0.00000000000E+00 -0.00000000000E+00 -0.23969124318E+03  0.23969124318E+03  0.00000000000E+00 0.  1.
         25    2    1    2    0    0 -0.32448722984E+02 -0.56624724443E+02 -0.14676215143E+03  0.20358480099E+03  0.12509341734E+03 0.  0.
          5    1    3    3  502    0 -0.27737873907E+02 -0.44730552913E+02  0.33177303355E+01  0.52902662951E+02  0.41800000000E+01 0. -1.
         -5    1    3    3    0  502 -0.47108490769E+01 -0.11894171530E+02 -0.15007988176E+03  0.15068213804E+03  0.41800000000E+01 0. -1.
        -11    1    1    2    0    0 -0.14611938125E+02  0.34176531271E+02 -0.40636293324E+02  0.55071338831E+02  0.00000000000E+00 0.  1.
         11    1    1    2    0    0  0.47060661108E+02  0.22448193172E+02  0.24122103074E+02  0.57450004851E+02  0.00000000000E+00 0. -1.
</event>
<event>
 7    1  0.2530765E-009  0.9063261E+02  0.7561462E-02  0.1301327E+00
         -1   -1    0    0    0  501 -0.00000000000E+00  0.00000000000E+00  0.86033237442E+02  0.86033237442E+02  0.00000000000E+00 0. -1.
          1   -1    0    0  501    0  0.00000000000E+00 -0.00000000000E+00 -0.27818865654E+03  0.27818865654E+03  0.00000000000E+00 0.  1.
         25    2    1    2    0    0  0.27741502649E+02 -0.37993577589E+02 -0.21986112888E+03  0.25729638423E+03  0.12509760363E+03 0.  0.
          5    1    3    3  502    0  0.81297059454E+01 -0.60353128662E+02 -0.21889504608E+03  0.22724679504E+03  0.41800000000E+01 0.  1.
         -5    1    3    3    0  502  0.19611796704E+02  0.22359551073E+02 -0.96608280219E+00  0.30049589184E+02  0.41800000000E+01 0.  1.
        -11    1    1    2    0    0 -0.46826816270E+01 -0.23788358638E+02 -0.14859832783E+02  0.28436387679E+02  0.00000000000E+00 0.  1.
         11    1    1    2    0    0 -0.23058821022E+02  0.61781936227E+02  0.42565542566E+02  0.78489122079E+02  0.00000000000E+00 0. -1.
</event>
<event>
 7    1  0.2530765E-009  0.9298567E+02  0.7561462E-02  0.1295778E+00
          2   -1    0    0  501    0  0.00000000000E+00  0.00000000000E+00  0.11648618029E+04  0.11648618029E+04  0.00000000000E+00 0. -1.
         -2   -1    0    0    0  501 -0.00000000000E+00 -0.00000000000E+00 -0.16195962214E+02  0.16195962214E+02  0.00000000000E+00 0.  1.
         25    2    1    2    0    0 -0.81115250094E+02  0.93867078905E+01  0.72356800061E+03  0.73882946333E+03  0.12510207950E+03 0.  0.
          5    1    3    3  502    0 -0.16984056031E+02  0.10795778412E+02  0.59240018298E+03  0.59275665849E+03  0.41800000000E+01 0. -1.
         -5    1    3    3    0  502 -0.64131194063E+02 -0.14090705210E+01  0.13116781763E+03  0.14607280484E+03  0.41800000000E+01 0. -1.
        -11    1    1    2    0    0  0.92296190560E+01  0.21115919649E+02  0.22785915286E+02  0.32407805633E+02  0.00000000000E+00 0.  1.
         11    1    1    2    0    0  0.71885631038E+02 -0.30502627539E+02  0.40231192474E+03  0.40982049610E+03  0.00000000000E+00 0. -1.
</event>
<event>
 7    1  0.2530765E-009  0.1137122E+03  0.7561462E-02  0.1253846E+00
          2   -1    0    0  501    0  0.00000000000E+00  0.00000000000E+00  0.85900867102E+03  0.85900867102E+03  0.00000000000E+00 0.  1.
         -2   -1    0    0    0  501 -0.00000000000E+00 -0.00000000000E+00 -0.17793814691E+02  0.17793814691E+02  0.00000000000E+00 0. -1.
         25    2    1    2    0    0  0.58787201527E+02  0.51503506731E+00  0.51780492277E+03  0.53593458146E+03  0.12509091588E+03 0.  0.
          5    1    3    3  502    0 -0.34578024195E+02  0.21712347782E+02  0.19146067100E+03  0.19581043574E+03  0.41800000000E+01 0.  1.
         -5    1    3    3    0  502  0.93365225723E+02 -0.21197312714E+02  0.32634425177E+03  0.34012414573E+03  0.41800000000E+01 0.  1.
        -11    1    1    2    0    0 -0.35338673079E+02 -0.34416206081E+02  0.26393443554E+03  0.26850453129E+03  0.00000000000E+00 0.  1.
         11    1    1    2    0    0 -0.23448528448E+02  0.33901171014E+02  0.59475498004E+02  0.72363372955E+02  0.00000000000E+00 0. -1.
</event>
<event>
 7    1  0.2530765E-009  0.2395741E+03  0.7561462E-02  0.1120077E+00
         -2   -1    0    0    0  501 -0.00000000000E+00  0.00000000000E+00  0.32669982835E+03  0.32669982835E+03  0.00000000000E+00 0.  1.
          2   -1    0    0  501    0  0.00000000000E+00 -0.00000000000E+00 -0.23185938264E+03  0.23185938264E+03  0.00000000000E+00 0. -1.
         25    2    1    2    0    0 -0.19002456597E+03 -0.13784364078E+03  0.14246379934E+03  0.30175129879E+03  0.12509079593E+03 0.  0.
          5    1    3    3  502    0  0.39294840672E+01 -0.73125176670E+01  0.49106555993E+02  0.49978395344E+02  0.41800000000E+01 0. -1.
         -5    1    3    3    0  502 -0.19395405004E+03 -0.13053112311E+03  0.93357243344E+02  0.25177290345E+03  0.41800000000E+01 0. -1.
        -11    1    1    2    0    0  0.16163459978E+03  0.10562283876E+03 -0.54571066962E+00  0.19308605779E+03  0.00000000000E+00 0.  1.
         11    1    1    2    0    0  0.28389966190E+02  0.32220802018E+02 -0.47077642955E+02  0.63721854407E+02  0.00000000000E+00 0. -1.
</event>
<event>
 7    1  0.2530765E-009  0.8617274E+02  0.7561462E-02  0.1312394E+00
          2   -1    0    0  501    0  0.00000000000E+00  0.00000000000E+00  0.12600471679E+04  0.12600471679E+04  0.00000000000E+00 0. -1.
         -2   -1    0    0    0  501 -0.00000000000E+00 -0.00000000000E+00 -0.14272172286E+02  0.14272172286E+02  0.00000000000E+00 0.  1.
         25    2    1    2    0    0 -0.42979521836E+02 -0.47931681904E+02  0.90323107947E+03  0.91412163900E+03  0.12508917837E+03 0.  0.
          5    1    3    3  502    0 -0.26134910014E+02 -0.32635581140E+02  0.88111674572E+03  0.88211807977E+03  0.41800000000E+01 0.  1.
         -5    1    3    3    0  502 -0.16844611822E+02 -0.15296100764E+02  0.22114333748E+02  0.32003559226E+02  0.41800000000E+01 0.  1.
        -11    1    1    2    0    0  0.66727063423E+02  0.49961258891E+02  0.30071772017E+03  0.31205732744E+03  0.00000000000E+00 0. -1.
         11    1    1    2    0    0 -0.23747541587E+02 -0.20295769866E+01  0.41826195923E+02  0.48140373696E+02  0.00000000000E+00 0.  1.
</event>
<event>
 7    1  0.2530765E-009  0.1036530E+03  0.7561462E-02  0.1272796E+00
          2   -1    0    0  501    0  0.00000000000E+00  0.00000000000E+00  0.46635179537E+02  0.46635179537E+02  0.00000000000E+00 0. -1.
         -2   -1    0    0    0  501 -0.00000000000E+00 -0.00000000000E+00 -0.51945271824E+03  0.51945271824E+03  0.00000000000E+00 0.  1.
         25    2    1    2    0    0 -0.45086312933E+02  0.52135249992E+02 -0.41139550662E+03  0.43548304009E+03  0.12509338686E+03 0.  0.
          5    1    3    3  502    0 -0.43858462254E+02  0.36067460071E+01 -0.36196079763E+02  0.57133194539E+02  0.41800000000E+01 0.  1.
         -5    1    3    3    0  502 -0.12278506793E+01  0.48528503985E+02 -0.37519942686E+03  0.37834984555E+03  0.41800000000E+01 0.  1.
        -11    1    1    2    0    0  0.66253622124E+02 -0.97049158169E+01 -0.27929380526E+02  0.72551899576E+02  0.00000000000E+00 0. -1.
         11    1    1    2    0    0 -0.21167309190E+02 -0.42430334175E+02 -0.33492651554E+02  0.58052958104E+02  0.00000000000E+00 0.  1.
</event>
<event>
 7    1  0.2530765E-009  0.7188466E+02  0.7561462E-02  0.1353799E+00
          1   -1    0    0  501    0  0.00000000000E+00  0.00000000000E+00  0.38751512011E+02  0.38751512011E+02  0.00000000000E+00 0. -1.
         -1   -1    0    0    0  501 -0.00000000000E+00 -0.00000000000E+00 -0.33993338985E+03  0.33993338985E+03  0.00000000000E+00 0.  1.
         25    2    1    2    0    0 -0.20676293409E+02 -0.79587808435E+01 -0.21424781505E+03  0.24907880937E+03  0.12508907116E+03 0.  0.
          5    1    3    3  502    0  0.53443326859E+01 -0.34213451715E+02 -0.34795516213E+01  0.35052843673E+02  0.41800000000E+01 0.  1.
         -5    1    3    3    0  502 -0.26020626095E+02  0.26254670871E+02 -0.21076826343E+03  0.21402596570E+03  0.41800000000E+01 0.  1.
        -11    1    1    2    0    0 -0.24803038745E+02 -0.27832120966E+01 -0.78173685981E+02  0.82061331822E+02  0.00000000000E+00 0.  1.
         11    1    1    2    0    0  0.45479332154E+02  0.10741992940E+02 -0.87603768152E+01  0.47544760673E+02  0.00000000000E+00 0. -1.
</event>
<event>
 7    1  0.2530765E-009  0.1493878E+03  0.7561462E-02  0.1201227E+00
         -4   -1    0    0    0  501 -0.00000000000E+00  0.00000000000E+00  0.16499151032E+03  0.16499151032E+03  0.00000000000E+00 0. -1.
          4   -1    0    0  501    0  0.00000000000E+00 -0.00000000000E+00 -0.15116568505E+03  0.15116568505E+03  0.00000000000E+00 0.  1.
         25    2    1    2    0    0  0.52544463090E+02  0.98773403082E+02  0.22080325789E+02  0.16926878768E+03  0.12508907202E+03 0.  0.
          5    1    3    3  502    0  0.41006069088E+02  0.12055264018E+03 -0.10916721847E+02  0.12787135712E+03  0.41800000000E+01 0. -1.
         -5    1    3    3    0  502  0.11538394001E+02 -0.21779237097E+02  0.32997047636E+02  0.41397430564E+02  0.41800000000E+01 0. -1.
        -11    1    1    2    0    0  0.45932434862E+01 -0.88132651840E+02 -0.50297864724E+00  0.88253697903E+02  0.00000000000E+00 0. -1.
         11    1    1    2    0    0 -0.57137706576E+02 -0.10640751242E+02 -0.77515218762E+01  0.58634709781E+02  0.00000000000E+00 0.  1.
</event>
<event>
 7    1  0.2530765E-009  0.9596501E+02  0.7561462E-02  0.1289017E+00
          1   -1    0    0  501    0  0.00000000000E+00  0.00000000000E+00  0.37515945208E+03  0.37515945208E+03  0.00000000000E+00 0. -1.
         -1   -1    0    0    0  501 -0.00000000000E+00 -0.00000000000E+00 -0.31998567175E+02  0.31998567175E+02  0.00000000000E+00 0.  1.
         25    2    1    2    0    0 -0.50903415157E+01 -0.11708260441E+02  0.18297132348E+03  0.22200995614E+03  0.12508765116E+03 0.  0.
          5    1    3    3  502    0 -0.29299362585E+02  0.38012218829E+02  0.24362885049E+02  0.53985220163E+02  0.41800000000E+01 0. -1.
         -5    1    3    3    0  502  0.24209021069E+02 -0.49720479269E+02  0.15860843843E+03  0.16802473598E+03  0.41800000000E+01 0. -1.
        -11    1    1    2    0    0 -0.32523742605E+02  0.31941201540E+02  0.53862656724E+02  0.70563588190E+02  0.00000000000E+00 0.  1.
         11    1    1    2    0    0  0.37614084121E+02 -0.20232941100E+02  0.10632690470E+03  0.11458447492E+03  0.00000000000E+00 0. -1.
</event>
<event>
 7    1  0.2530765E-009  0.1915824E+03  0.7561462E-02  0.1157042E+00
         -2   -1    0    0    0  501 -0.00000000000E+00  0.00000000000E+00  0.47419910936E+02  0.47419910936E+02  0.00000000000E+00 0.  1.
          2   -1    0    0  501    0  0.00000000000E+00 -0.00000000000E+00 -0.99269640204E+03  0.99269640204E+03  0.00000000000E+00 0. -1.
         25    2    1    2    0    0 -0.15798020310E+03  0.83115603873E+02 -0.49505220911E+03  0.54091347217E+03  0.12507896088E+03 0.  0.
          5    1    3    3  502    0 -0.77004691158E+02  0.71038868832E+02 -0.13124780105E+03  0.16798720495E+03  0.41800000000E+01 0.  1.
         -5    1    3    3    0  502 -0.80975511938E+02  0.12076735041E+02 -0.36380440806E+03  0.37292626723E+03  0.41800000000E+01 0.  1.
        -11    1    1    2    0    0  0.58374346977E+02 -0.76886696625E+02 -0.11879270933E+03  0.15307134380E+03  0.00000000000E+00 0.  1.
         11    1    1    2    0    0  0.99605856120E+02 -0.62289072480E+01 -0.33143157266E+03  0.34613149700E+03  0.00000000000E+00 0. -1.
</event>
<event>
 7    1  0.2530765E-009  0.9836466E+02  0.7561462E-02  0.1283773E+00
          2   -1    0    0  501    0  0.00000000000E+00  0.00000000000E+00  0.53854618598E+03  0.53854618598E+03  0.00000000000E+00 0. -1.
         -2   -1    0    0    0  501 -0.00000000000E+00 -0.00000000000E+00 -0.28387404893E+02  0.28387404893E+02  0.00000000000E+00 0.  1.
         25    2    1    2    0    0  0.22172877591E+02 -0.45522670807E+02  0.36128487617E+03  0.38566413057E+03  0.12508441070E+03 0.  0.
          5    1    3    3  502    0 -0.44983754409E+02 -0.39540883748E+02  0.23382767504E+03  0.24141224837E+03  0.41800000000E+01 0. -1.
         -5    1    3    3    0  502  0.67156632000E+02 -0.59817870587E+01  0.12745720113E+03  0.14425188220E+03  0.41800000000E+01 0. -1.
        -11    1    1    2    0    0 -0.33920684072E+02  0.16278809409E+02  0.10092550603E+02  0.38954743246E+02  0.00000000000E+00 0.  1.
         11    1    1    2    0    0  0.11747806481E+02  0.29243861397E+02  0.13878135431E+03  0.14231471706E+03  0.00000000000E+00 0. -1.
</event>
<event>
 7    1  0.2530765E-009  0.1064658E+03  0.7561462E-02  0.1267258E+00
         -2   -1    0    0    0  501 -0.00000000000E+00  0.00000000000E+00  0.37699728423E+02  0.37699728423E+02  0.00000000000E+00 0.  1.
          2   -1    0    0  501    0  0.00000000000E+00 -0.00000000000E+00 -0.57680071511E+03  0.57680071511E+03  0.00000000000E+00 0. -1.
         25    2    1    2    0    0  0.12249584696E+00 -0.19137784039E+02 -0.49758528651E+03  0.51342423647E+03  0.12508820675E+03 0.  0.
          5    1    3    3  502    0 -0.39677356830E+02  0.38434075634E+02 -0.18760814107E+03  0.19561635364E+03  0.41800000000E+01 0.  1.
         -5    1    3    3    0  502  0.39799852677E+02 -0.57571859673E+02 -0.30997714544E+03  0.31780788284E+03  0.41800000000E+01 0.  1.
        -11    1    1    2    0    0  0.42546912331E+02  0.11474464696E+02 -0.36905377420E+02  0.57479648324E+02  0.00000000000E+00 0. -1.
         11    1    1    2    0    0 -0.42669408178E+02  0.76633193430E+01 -0.46103227609E+01  0.43596558735E+02  0.00000000000E+00 0.  1.
</event>
<event>
 7    1  0.2530765E-009  0.1063393E+03  0.7561462E-02  0.1267503E+00
         -1   -1    0    0    0  501 -0.00000000000E+00  0.00000000000E+00  0.22237375363E+03  0.22237375363E+03  0.00000000000E+00 0.  1.
          1   -1    0    0  501    0  0.00000000000E+00 -0.00000000000E+00 -0.59454659801E+02  0.59454659801E+02  0.00000000000E+00 0. -1.
         25    2    1    2    0    0 -0.11608941456E+02  0.29137176221E+02  0.11727042818E+03  0.17431060168E+03  0.12509232579E+03 0.  0.
          5    1    3    3  502    0 -0.60054134020E+02  0.46405894375E+02  0.57247250830E+02  0.95156324925E+02  0.41800000000E+01 0. -1.
         -5    1    3    3    0  502  0.48445192564E+02 -0.17268718154E+02  0.60023177349E+02  0.79154276753E+02  0.41800000000E+01 0. -1.
        -11    1    1    2    0    0 -0.29170327929E+02  0.76405353154E+01 -0.75242093272E+01  0.31078924329E+02  0.00000000000E+00 0. -1.
         11    1    1    2    0    0  0.40779269386E+02 -0.36777711536E+02  0.53172874982E+02  0.76438887429E+02  0.00000000000E+00 0.  1.
</event>
<event>
 7    1  0.2530765E-009  0.1332099E+03  0.7561462E-02  0.1222769E+00
         -2   -1    0    0    0  501 -0.00000000000E+00  0.00000000000E+00  0.33824784375E+02  0.33824784375E+02  0.00000000000E+00 0.  1.
          2   -1    0    0  501    0  0.00000000000E+00 -0.00000000000E+00 -0.68091941055E+03  0.68091941055E+03  0.00000000000E+00 0. -1.
         25    2    1    2    0    0  0.10160546304E+03  0.24621986976E+02 -0.31744018109E+03  0.35686101689E+03  0.12510637252E+03 0.  0.
          5    1    3    3  502    0 -0.19340450498E+01 -0.26557940878E+02 -0.15602460839E+03  0.15833576847E+03  0.41800000000E+01 0.  1.
         -5    1    3    3    0  502  0.10353950809E+03  0.51179927854E+02 -0.16141557270E+03  0.19852524842E+03  0.41800000000E+01 0.  1.
        -11    1    1    2    0    0 -0.15364155221E+01  0.15867446161E+02 -0.65716724552E+01  0.17243065249E+02  0.00000000000E+00 0.  1.
         11    1    1    2    0    0 -0.10006904752E+03 -0.40489433137E+02 -0.32308277263E+03  0.34064011279E+03  0.00000000000E+00 0. -1.
</event>
<event>
 7    1  0.2530765E-009  0.1617374E+03  0.7561462E-02  0.1186749E+00
         -2   -1    0    0    0  501 -0.00000000000E+00  0.00000000000E+00  0.47279295726E+02  0.47279295726E+02  0.00000000000E+00 0. -1.
          2   -1    0    0  501    0  0.00000000000E+00 -0.00000000000E+00 -0.10142918423E+04  0.10142918423E+04  0.00000000000E+00 0.  1.
         25    2    1    2    0    0 -0.23862289956E+02  0.13881241310E+03 -0.81842997714E+03  0.83982946029E+03  0.12509036720E+03 0.  0.
          5    1    3    3  502    0 -0.58683135960E+02  0.25762911055E+02 -0.19629497830E+03  0.20653481290E+03  0.41800000000E+01 0.  1.
         -5    1    3    3    0  502  0.34820846004E+02  0.11304950204E+03 -0.62213499884E+03  0.63329464739E+03  0.41800000000E+01 0.  1.
        -11    1    1    2    0    0  0.88829426753E+01 -0.42923905405E+02 -0.10798272180E+03  0.11654027858E+03  0.00000000000E+00 0.  1.
         11    1    1    2    0    0  0.14979347281E+02 -0.95888507693E+02 -0.40599847604E+02  0.10520139913E+03  0.00000000000E+00 0. -1.
</event>
<event>
 7    1  0.2530765E-009  0.1550228E+03  0.7561462E-02  0.1194433E+00
         -2   -1    0    0    0  501 -0.00000000000E+00  0.00000000000E+00  0.47310568692E+03  0.47310568692E+03  0.00000000000E+00 0.  1.
          2   -1    0    0  501    0  0.00000000000E+00 -0.00000000000E+00 -0.72292535509E+02  0.72292535509E+02  0.00000000000E+00 0. -1.
         25    2    1    2    0    0  0.10397621569E+03 -0.99895012112E+02  0.26795765503E+03  0.32899687720E+03  0.12509026119E+03 0.  0.
          5    1    3    3  502    0  0.64231764676E+01  0.89765997746E+00  0.13647403690E+03  0.13669198271E+03  0.41800000000E+01 0.  1.
         -5    1    3    3    0  502  0.97553039219E+02 -0.10079267209E+03  0.13148361813E+03  0.19230489449E+03  0.41800000000E+01 0.  1.
        -11    1    1    2    0    0 -0.63577192880E+02  0.10346842517E+03  0.12648726905E+03  0.17534766521E+03  0.00000000000E+00 0.  1.
         11    1    1    2    0    0 -0.40399022806E+02 -0.35734130559E+01  0.63682273336E+01  0.41053680029E+02  0.00000000000E+00 0. -1.
</event>
<event>
 7    1  0.2530765E-009  0.1184440E+03  0.7561462E-02  0.1245686E+00
         -1   -1    0    0    0  501 -0.00000000000E+00  0.00000000000E+00  0.27651312678E+02  0.27651312678E+02  0.00000000000E+00 0.  1.
          1   -1    0    0  501    0  0.00000000000E+00 -0.00000000000E+00 -0.71691254134E+03  0.71691254134E+03  0.00000000000E+00 0. -1.
         25    2    1    2    0    0 -0.70681740405E+02  0.51207524961E+02 -0.32867978560E+03  0.36234832957E+03  0.12509113253E+03 0.  0.
          5    1    3    3  502    0 -0.84963514117E+02  0.23810187904E+02 -0.10822189155E+03  0.13969672147E+03  0.41800000000E+01 0. -1.
         -5    1    3    3    0  502  0.14281773712E+02  0.27397337056E+02 -0.22045789406E+03  0.22265160810E+03  0.41800000000E+01 0. -1.
        -11    1    1    2    0    0  0.34904728578E+02 -0.69068190390E+02 -0.29851647666E+03  0.30838424382E+03  0.00000000000E+00 0. -1.
         11    1    1    2    0    0  0.35777011827E+02  0.17860665429E+02 -0.62064966406E+02  0.73831280633E+02  0.00000000000E+00 0.  1.
</event>
<event>
 7    1  0.2530765E-009  0.8870437E+02  0.7561462E-02  0.1306020E+00
          1   -1    0    0  501    0  0.00000000000E+00  0.00000000000E+00  0.29813875535E+03  0.29813875535E+03  0.00000000000E+00 0. -1.
         -1   -1    0    0    0  501 -0.00000000000E+00 -0.00000000000E+00 -0.39058997777E+02  0.39058997777E+02  0.00000000000E+00 0.  1.
         25    2    1    2    0    0 -0.64910137681E+01 -0.82430931656E+01  0.15869538885E+03  0.20233969368E+03  0.12508814234E+03 0.  0.
          5    1    3    3  502    0 -0.52513518267E+02  0.13068462278E+02  0.13635909675E+03  0.14676419854E+03  0.41800000000E+01 0. -1.
         -5    1    3    3    0  502  0.46022504499E+02 -0.21311555444E+02  0.22336292102E+02  0.55575495145E+02  0.41800000000E+01 0. -1.
        -11    1    1    2    0    0 -0.13449605738E+02 -0.27895184687E+02  0.55914622033E+01  0.31468995421E+02  0.00000000000E+00 0.  1.
         11    1    1    2    0    0  0.19940619506E+02  0.36138277853E+02  0.94792906521E+02  0.10338906402E+03  0.00000000000E+00 0. -1.
</event>
<event>
 7    1  0.2530765E-009  0.1396215E+03  0.7561462E-02  0.1213839E+00
         -2   -1    0    0    0  501 -0.00000000000E+00  0.00000000000E+00  0.22084101237E+03  0.22084101237E+03  0.00000000000E+00 0.  1.
          2   -1    0    0  501    0  0.00000000000E+00 -0.00000000000E+00 -0.15839869480E+03  0.15839869480E+03  0.00000000000E+00 0. -1.
         25    2    1    2    0    0 -0.12134517683E+03 -0.50346167411E+02 -0.50069423685E+02  0.18818500728E+03  0.12508901335E+03 0.  0.
          5    1    3    3  502    0 -0.40491218818E+02  0.48709517210E+01  0.38391105822E+02  0.56165953907E+02  0.41800000000E+01 0.  1.
         -5    1    3    3    0  502 -0.80853958016E+02 -0.55217119132E+02 -0.88460529507E+02  0.13201905337E+03  0.41800000000E+01 0.  1.
        -11    1    1    2    0    0  0.55819630441E+02 -0.27833593529E+01  0.75529749819E+01  0.56397035941E+02  0.00000000000E+00 0. -1.
         11    1    1    2    0    0  0.65525546392E+02  0.53129526764E+02  0.10495876627E+03  0.13465766395E+03  0.00000000000E+00 0.  1.
</event>
<event>
 7    1  0.2530765E-009  0.8654926E+02  0.7561462E-02  0.1311430E+00
         -2   -1    0    0    0  501 -0.00000000000E+00  0.00000000000E+00  0.23827098595E+02  0.23827098595E+02  0.00000000000E+00 0. -1.
          2   -1    0    0  501    0  0.00000000000E+00 -0.00000000000E+00 -0.57365396531E+03  0.57365396531E+03  0.00000000000E+00 0.  1.
         25    2    1    2    0    0 -0.36866110495E+02 -0.24338587238E+02 -0.32298259458E+03  0.34916549834E+03  0.12508921577E+03 0.  0.
          5    1    3    3  502    0 -0.48305444008E+02 -0.33670633654E+02 -0.32780852384E+03  0.33308111353E+03  0.41800000000E+01 0.  1.
         -5    1    3    3    0  502  0.11439333513E+02  0.93320464161E+01  0.48259292600E+01  0.16084384811E+02  0.41800000000E+01 0.  1.
        -11    1    1    2    0    0 -0.27497611619E+02 -0.50691924426E+01 -0.90212123192E+02  0.94445976768E+02  0.00000000000E+00 0.  1.
         11    1    1    2    0    0  0.64363722114E+02  0.29407779681E+02 -0.13663214895E+03  0.15386958879E+03  0.00000000000E+00 0. -1.
</event>
<event>
 7    1  0.2530765E-009  0.1012491E+03  0.7561462E-02  0.1277691E+00
          1   -1    0    0  501    0  0.00000000000E+00  0.00000000000E+00  0.16403195011E+04  0.16403195011E+04  0.00000000000E+00 0. -1.
         -1   -1    0    0    0  501 -0.00000000000E+00 -0.00000000000E+00 -0.13402707395E+02  0.13402707395E+02  0.00000000000E+00 0.  1.
         25    2    1    2    0    0  0.59123679594E+02  0.64019579123E+02  0.11651378157E+04  0.11750691751E+04  0.12508925162E+03 0.  0.
          5    1    3    3  502    0  0.54384427411E+02  0.54862662782E+02  0.11604010651E+04  0.11629770771E+04  0.41800000000E+01 0.  1.
         -5    1    3    3    0  502  0.47392521837E+01  0.91569163407E+01  0.47367505968E+01  0.12092098013E+02  0.41800000000E+01 0.  1.
        -11    1    1    2    0    0  0.11167396161E+02  0.77178523306E+01  0.13080040909E+02  0.18851086224E+02  0.00000000000E+00 0.  1.
         11    1    1    2    0    0 -0.70291075755E+02 -0.71737431453E+02  0.44869893711E+03  0.45980194711E+03  0.00000000000E+00 0. -1.
</event>
<event>
 7    1  0.2530765E-009  0.9179416E+02  0.7561462E-02  0.1298564E+00
          1   -1    0    0  501    0  0.00000000000E+00  0.00000000000E+00  0.44027079578E+02  0.44027079578E+02  0.00000000000E+00 0. -1.
         -1   -1    0    0    0  501 -0.00000000000E+00 -0.00000000000E+00 -0.34174647627E+03  0.34174647627E+03  0.00000000000E+00 0.  1.
         25    2    1    2    0    0  0.10164748022E+02 -0.48394100881E+02 -0.20220284853E+03  0.24285251768E+03  0.12508414084E+03 0.  0.
          5    1    3    3  502    0  0.63955215440E+02 -0.36698653569E+02 -0.14841665132E+03  0.16577706580E+03  0.41800000000E+01 0. -1.
         -5    1    3    3    0  502 -0.53790467418E+02 -0.11695447313E+02 -0.53786197206E+02  0.77075451882E+02  0.41800000000E+01 0. -1.
        -11    1    1    2    0    0  0.64397109018E+01  0.25155090659E+02 -0.10848783247E+03  0.11155204282E+03  0.00000000000E+00 0.  1.
         11    1    1    2    0    0 -0.16604458924E+02  0.23239010223E+02  0.12971284310E+02  0.31368995345E+02  0.00000000000E+00 0. -1.
</event>
<event>
 7    1  0.2530765E-009  0.1144234E+03  0.7561462E-02  0.1252591E+00
          2   -1    0    0  501    0  0.00000000000E+00  0.00000000000E+00  0.71121159520E+03  0.71121159520E+03  0.00000000000E+00 0. -1.
         -2   -1    0    0    0  501 -0.00000000000E+00 -0.00000000000E+00 -0.29107158095E+02  0.29107158095E+02  0.00000000000E+00 0.  1.
         25    2    1    2    0    0  0.27076872917E+01  0.91775240699E+02  0.28565823800E+03  0.32508640693E+03  0.12510202499E+03 0.  0.
          5    1    3    3  502    0  0.27127378885E+02  0.57454454503E+02  0.27383084320E+03  0.28113646529E+03  0.41800000000E+01 0. -1.
         -5    1    3    3    0  502 -0.24419691593E+02  0.34320786196E+02  0.11827394806E+02  0.43949941644E+02  0.41800000000E+01 0. -1.
        -11    1    1    2    0    0  0.24857400094E+02  0.21569836772E+01  0.98771997726E+02  0.10187468014E+03  0.00000000000E+00 0. -1.
         11    1    1    2    0    0 -0.27565087386E+02 -0.93932224377E+02  0.29767420138E+03  0.31335766623E+03  0.00000000000E+00 0.  1.
</event>
<event>
 7    1  0.2530765E-009  0.1021582E+03  0.7561462E-02  0.1275822E+00
          1   -1    0    0  501    0  0.00000000000E+00  0.00000000000E+00  0.20318033515E+03  0.20318033515E+03  0.00000000000E+00 0. -1.
         -1   -1    0    0    0  501 -0.00000000000E+00 -0.00000000000E+00 -0.80682225586E+02  0.80682225586E+02  0.00000000000E+00 0.  1.
         25    2    1    2    0    0  0.29950086929E+02  0.15654060313E+02  0.13514029201E+03  0.18722501317E+03  0.12509296431E+03 0.  0.
          5    1    3    3  502    0  0.73673899402E+02  0.27701745095E+00  0.11472183812E+03  0.13640561841E+03  0.41800000000E+01 0. -1.
         -5    1    3    3    0  502 -0.43723812473E+02  0.15377042862E+02  0.20418453887E+02  0.50819394757E+02  0.41800000000E+01 0. -1.
        -11    1    1    2    0    0  0.17872595612E+02  0.18111266225E+02 -0.26225636485E+02  0.36540821655E+02  0.00000000000E+00 0.  1.
         11    1    1    2    0    0 -0.47822682541E+02 -0.33765326538E+02  0.13583454037E+02  0.60096725911E+02  0.00000000000E+00 0. -1.
</event>
<event>
 7    1  0.2530765E-009  0.1147191E+03  0.7561462E-02  0.1252072E+00
          2   -1    0    0  501    0  0.00000000000E+00  0.00000000000E+00  0.78848393787E+02  0.78848393787E+02  0.00000000000E+00 0.  1.
         -2   -1    0    0    0  501 -0.00000000000E+00 -0.00000000000E+00 -0.25530668910E+03  0.25530668910E+03  0.00000000000E+00 0. -1.
         25    2    1    2    0    0 -0.17239139078E+02 -0.43737695431E+02 -0.11515116157E+03  0.17640325537E+03  0.12509254405E+03 0.  0.
          5    1    3    3  502    0  0.27477418466E+02 -0.74075814016E+02 -0.74265930329E+02  0.10851329667E+03  0.41800000000E+01 0. -1.
         -5    1    3    3    0  502 -0.44716557544E+02  0.30338118584E+02 -0.40885231246E+02  0.67889958697E+02  0.41800000000E+01 0. -1.
        -11    1    1    2    0    0 -0.23730756116E+02 -0.12280625073E+02  0.31856824097E+02  0.41579078629E+02  0.00000000000E+00 0.  1.
         11    1    1    2    0    0  0.40969895195E+02  0.56018320504E+02 -0.93163957833E+02  0.11617274889E+03  0.00000000000E+00 0. -1.
</event>
<event>
 7    1  0.2530765E-009  0.1129117E+03  0.7561462E-02  0.1255271E+00
          1   -1    0    0  501    0  0.00000000000E+00  0.00000000000E+00  0.68400253142E+02  0.68400253142E+02  0.00000000000E+00 0. -1.
         -1   -1    0    0    0  501 -0.00000000000E+00 -0.00000000000E+00 -0.21954995441E+03  0.21954995441E+03  0.00000000000E+00 0.  1.
         25    2    1    2    0    0 -0.16914382805E+02  0.34561390887E+02 -0.13370472566E+03  0.18709726840E+03  0.12509135899E+03 0.  0.
          5    1    3    3  502    0  0.22778816884E+02  0.72297221886E+02 -0.75519387339E+02  0.10708133850E+03  0.41800000000E+01 0. -1.
         -5    1    3    3    0  502 -0.39693199689E+02 -0.37735830999E+02 -0.58185338316E+02  0.80015929899E+02  0.41800000000E+01 0. -1.
        -11    1    1    2    0    0 -0.32610217482E+02  0.31070795518E+01 -0.20347760144E+02  0.38563085592E+02  0.00000000000E+00 0.  1.
         11    1    1    2    0    0  0.49524600286E+02 -0.37668470439E+02  0.29027845281E+01  0.62289853562E+02  0.00000000000E+00 0. -1.
</event>
<event>
 7    1  0.2530765E-009  0.1166951E+03  0.7561462E-02  0.1248651E+00
         -1   -1    0    0    0  501 -0.00000000000E+00  0.00000000000E+00  0.33101228874E+02  0.33101228874E+02  0.00000000000E+00 0.  1.
          1   -1    0    0  501    0  0.00000000000E+00 -0.00000000000E+00 -0.57199978932E+03  0.57199978932E+03  0.00000000000E+00 0. -1.
         25    2    1    2    0    0  0.58931622931E+02 -0.57091418654E+02 -0.30421927335E+03  0.33901135642E+03  0.12508783809E+03 0.  0.
          5    1    3    3  502    0  0.87341490027E+02 -0.20849329548E+01 -0.18340338310E+03  0.20319241166E+03  0.41800000000E+01 0. -1.
         -5    1    3    3    0  502 -0.28409867097E+02 -0.55006485699E+02 -0.12081589025E+03  0.13581894476E+03  0.41800000000E+01 0. -1.
        -11    1    1    2    0    0 -0.11554136657E+02  0.29414543933E+01  0.70694507418E+01  0.13861001465E+02  0.00000000000E+00 0.  1.
         11    1    1    2    0    0 -0.47377486274E+02  0.54149964261E+02 -0.24174873784E+03  0.25222866031E+03  0.00000000000E+00 0. -1.
</event>
<event>
 7    1  0.2530765E-009  0.9057535E+02  0.7561462E-02  0.1301464E+00
         -2   -1    0    0    0  501 -0.00000000000E+00  0.00000000000E+00  0.29821904720E+03  0.29821904720E+03  0.00000000000E+00 0.  1.
          2   -1    0    0  501    0  0.00000000000E+00 -0.00000000000E+00 -0.72060901009E+02  0.72060901009E+02  0.00000000000E+00 0. -1.
         25    2    1    2    0    0 -0.44603178674E+01  0.53371674207E+02  0.19292204886E+02  0.13743001776E+03  0.12508553301E+03 0.  0.
          5    1    3    3  502    0  0.44215958011E+02  0.14876251486E+02  0.49616718790E+02  0.68232286966E+02  0.41800000000E+01 0.  1.
         -5    1    3    3    0  502 -0.48676275878E+02  0.38495422720E+02 -0.30324513903E+02  0.69197730796E+02  0.41800000000E+01 0.  1.
        -11    1    1    2    0    0 -0.19351264945E+02 -0.81338993972E+01  0.13097031653E+01  0.21032049276E+02  0.00000000000E+00 0. -1.
         11    1    1    2    0    0  0.23811582812E+02 -0.45237774810E+02  0.20555623814E+03  0.21181788117E+03  0.00000000000E+00 0.  1.
</event>
<event>
 7    1  0.2530765E-009  0.9075913E+02  0.7561462E-02  0.1301024E+00
         -1   -1    0    0    0  501 -0.00000000000E+00  0.00000000000E+00  0.26887690772E+03  0.26887690772E+03  0.00000000000E+00 0.  1.
          1   -1    0    0  501    0  0.00000000000E+00 -0.00000000000E+00 -0.77503729210E+02  0.77503729210E+02  0.00000000000E+00 0. -1.
         25    2    1    2    0    0 -0.40317721579E+02 -0.10472774824E+02  0.17775722030E+01  0.13184811322E+03  0.12508224298E+03 0.  0.
          5    1    3    3  502    0 -0.25978127718E+02  0.49901513344E+02 -0.27900056118E+02  0.62935758398E+02  0.41800000000E+01 0.  1.
         -5    1    3    3    0  502 -0.14339593861E+02 -0.60374288168E+02  0.29677628321E+02  0.68912354819E+02  0.41800000000E+01 0.  1.
        -11    1    1    2    0    0  0.43157990195E+02 -0.82786813771E+01  0.19054172571E+03  0.19554359596E+03  0.00000000000E+00 0.  1.
         11    1    1    2    0    0 -0.28402686152E+01  0.18751456201E+02 -0.94611940189E+00  0.18988927758E+02  0.00000000000E+00 0. -1.
</event>
<event>
 7    1  0.2530765E-009  0.7042453E+02  0.7561462E-02  0.1358655E+00
          1   -1    0    0  501    0  0.00000000000E+00  0.00000000000E+00  0.12866593734E+04  0.12866593734E+04  0.00000000000E+00 0. -1.
         -1   -1    0    0    0  501 -0.00000000000E+00 -0.00000000000E+00 -0.10637923003E+02  0.10637923003E+02  0.00000000000E+00 0.  1.
         25    2    1    2    0    0  0.29131034734E+02 -0.50677636984E+00  0.90406395028E+03  0.91314141513E+03  0.12508694501E+03 0.  0.
          5    1    3    3  502    0 -0.70174398631E+01 -0.28047357706E+01  0.29909731985E+00  0.86413462020E+01  0.41800000000E+01 0.  1.
         -5    1    3    3    0  502  0.36148474597E+02  0.22979594008E+01  0.90376485296E+03  0.90450006893E+03  0.41800000000E+01 0.  1.
        -11    1    1    2    0    0 -0.31151988519E+02 -0.42501359141E+02  0.18982030734E+03  0.19699888578E+03  0.00000000000E+00 0.  1.
         11    1    1    2    0    0  0.20209537849E+01  0.43008135511E+02  0.18213719282E+03  0.18715699555E+03  0.00000000000E+00 0. -1.
</event>
<event>
 7    1  0.2530765E-009  0.1438582E+03  0.7561462E-02  0.1208230E+00
          2   -1    0    0  501    0  0.00000000000E+00  0.00000000000E+00  0.17765169754E+02  0.17765169754E+02  0.00000000000E+00 0. -1.
         -2   -1    0    0    0  501 -0.00000000000E+00 -0.00000000000E+00 -0.16157065469E+04  0.16157065469E+04  0.00000000000E+00 0.  1.
         25    2    1    2    0    0  0.34453923442E+02 -0.10618674166E+03 -0.11725060962E+04  0.11844327033E+04  0.12509031182E+03 0.  0.
          5    1    3    3  502    0  0.65810817707E+02 -0.73076235013E+02 -0.10313025072E+04  0.10359891571E+04  0.41800000000E+01 0.  1.
         -5    1    3    3    0  502 -0.31356894265E+02 -0.33110506651E+02 -0.14120358892E+03  0.14844354614E+03  0.41800000000E+01 0.  1.
        -11    1    1    2    0    0  0.28571183126E+02  0.56217741815E+02 -0.17596326262E+03  0.18692195374E+03  0.00000000000E+00 0. -1.
         11    1    1    2    0    0 -0.63025106568E+02  0.49968999850E+02 -0.24947201840E+03  0.26211705967E+03  0.00000000000E+00 0.  1.
</event>
<event>
 7    1  0.2530765E-009  0.1146610E+03  0.7561462E-02  0.1252174E+00
          1   -1    0    0  501    0  0.00000000000E+00  0.00000000000E+00  0.12665823944E+03  0.12665823944E+03  0.00000000000E+00 0. -1.
         -1   -1    0    0    0  501 -0.00000000000E+00 -0.00000000000E+00 -0.10512470091E+03  0.10512470091E+03  0.00000000000E+00 0.  1.
         25    2    1    2    0    0  0.41823364144E+02 -0.48045577379E+01  0.16134221475E+02  0.13296819635E+03  0.12509176862E+03 0.  0.
          5    1    3    3  502    0 -0.14029563629E+02  0.50137880880E+02  0.15589166896E+02  0.54508075358E+02  0.41800000000E+01 0. -1.
         -5    1    3    3    0  502  0.55852927773E+02 -0.54942438618E+02  0.54505457892E+00  0.78460120995E+02  0.41800000000E+01 0. -1.
        -11    1    1    2    0    0  0.26781214167E+02 -0.97502287419E+01  0.27492077963E+01  0.28633171956E+02  0.00000000000E+00 0. -1.
         11    1    1    2    0    0 -0.68604578311E+02  0.14554786480E+02  0.26501092650E+01  0.70181572039E+02  0.00000000000E+00 0.  1.
</event>
<event>
 7    1  0.2530765E-009  0.1009968E+03  0.7561462E-02  0.1278214E+00
          1   -1    0    0  501    0  0.00000000000E+00  0.00000000000E+00  0.15758345444E+03  0.15758345444E+03  0.00000000000E+00 0. -1.
         -1   -1    0    0    0  501 -0.00000000000E+00 -0.00000000000E+00 -0.11706320099E+03  0.11706320099E+03  0.00000000000E+00 0.  1.
         25    2    1    2    0    0  0.15722400840E+01 -0.77735714634E+02  0.53364059248E+02  0.15665630989E+03  0.12509261904E+03 0.  0.
          5    1    3    3  502    0 -0.16050070982E+02 -0.26074259624E+02 -0.38713084290E+02  0.49534302142E+02  0.41800000000E+01 0. -1.
         -5    1    3    3    0  502  0.17622311066E+02 -0.51661455010E+02  0.92077143538E+02  0.10712200774E+03  0.41800000000E+01 0. -1.
        -11    1    1    2    0    0 -0.40666131810E+02  0.16910246237E+02 -0.12128514237E+02  0.45681413745E+02  0.00000000000E+00 0.  1.
         11    1    1    2    0    0  0.39093891726E+02  0.60825468397E+02 -0.71529156266E+00  0.72308931800E+02  0.00000000000E+00 0. -1.
</event>
<event>
 7    1  0.2530765E-009  0.7526314E+02  0.7561462E-02  0.1343058E+00
         -2   -1    0    0    0  501 -0.00000000000E+00  0.00000000000E+00  0.10288648584E+03  0.10288648584E+03  0.00000000000E+00 0.  1.
          2   -1    0    0  501    0  0.00000000000E+00 -0.00000000000E+00 -0.13540494367E+03  0.13540494367E+03  0.00000000000E+00 0. -1.
         25    2    1    2    0    0 -0.41332423610E+02 -0.15677476033E+00 -0.35069749059E+02  0.13632771035E+03  0.12508782311E+03 0.  0.
          5    1    3    3  502    0 -0.28465182470E+02 -0.12254516435E+02  0.44681392866E+02  0.54537501360E+02  0.41800000000E+01 0. -1.
         -5    1    3    3    0  502 -0.12867241140E+02  0.12097741675E+02 -0.79751141925E+02  0.81790208989E+02  0.41800000000E+01 0. -1.
        -11    1    1    2    0    0  0.34366304806E+02 -0.44321952795E+02  0.78530420503E+01  0.56631693203E+02  0.00000000000E+00 0.  1.
         11    1    1    2    0    0  0.69661188035E+01  0.44478727555E+02 -0.53017508164E+01  0.45332025962E+02  0.00000000000E+00 0. -1.
</event>
<event>
 7    1  0.2530765E-009  0.6864089E+02  0.7561462E-02  0.1364777E+00
         -2   -1    0    0    0  501 -0.00000000000E+00  0.00000000000E+00  0.42008860326E+02  0.42008860326E+02  0.00000000000E+00 0.  1.
          2   -1    0    0  501    0  0.00000000000E+00 -0.00000000000E+00 -0.36031085809E+03  0.36031085809E+03  0.00000000000E+00 0. -1.
         25    2    1    2    0    0 -0.51080119984E+02  0.24102961802E+02 -0.19325181746E+03  0.23702846297E+03  0.12508435506E+03 0.  0.
          5    1    3    3  502    0 -0.31286724299E+02  0.34835246987E+01  0.87754487800E+01  0.32946547057E+02  0.41800000000E+01 0.  1.
         -5    1    3    3    0  502 -0.19793395685E+02  0.20619437103E+02 -0.20202726624E+03  0.20408191591E+03  0.41800000000E+01 0.  1.
        -11    1    1    2    0    0 -0.38667779548E+01  0.10849192403E+02  0.10068663427E+02  0.15298200246E+02  0.00000000000E+00 0.  1.
         11    1    1    2    0    0  0.54946897938E+02 -0.34952154205E+02 -0.13511884373E+03  0.14999305520E+03  0.00000000000E+00 0. -1.
</event>
<event>
 7    1  0.2530765E-009  0.1054386E+03  0.7561462E-02  0.1269258E+00
         -2   -1    0    0    0  501 -0.00000000000E+00  0.00000000000E+00  0.48026898294E+02  0.48026898294E+02  0.00000000000E+00 0.  1.
          2   -1    0    0  501    0  0.00000000000E+00 -0.00000000000E+00 -0.32932458903E+03  0.32932458903E+03  0.00000000000E+00 0. -1.
         25    2    1    2    0    0 -0.50072441748E+02 -0.57566297019E+01 -0.94246495638E+02  0.16452944925E+03  0.12508856671E+03 0.  0.
          5    1    3    3  502    0 -0.24401307995E+02 -0.64551401208E+02 -0.60757080447E+02  0.92039135449E+02  0.41800000000E+01 0.  1.
         -5    1    3    3    0  502 -0.25671133753E+02  0.58794771506E+02 -0.33489415192E+02  0.72490313798E+02  0.41800000000E+01 0.  1.
        -11    1    1    2    0    0  0.20600778268E+02 -0.26625576932E+02 -0.17964427993E+02  0.38158014693E+02  0.00000000000E+00 0.  1.
         11    1    1    2    0    0  0.29471663480E+02  0.32382206634E+02 -0.16908676711E+03  0.17466402339E+03  0.00000000000E+00 0. -1.
</event>
<event>
 7    1  0.2530765E-009  0.1093879E+03  0.7561462E-02  0.1261708E+00
         -2   -1    0    0    0  501 -0.00000000000E+00  0.00000000000E+00  0.64331586019E+03  0.64331586019E+03  0.00000000000E+00 0.  1.
          2   -1    0    0  501    0  0.00000000000E+00 -0.00000000000E+00 -0.19646282707E+02  0.19646282707E+02  0.00000000000E+00 0. -1.
         25    2    1    2    0    0 -0.24172348559E+02  0.11908873198E+02  0.40740765799E+03  0.42703341361E+03  0.12510161013E+03 0.  0.
          5    1    3    3  502    0  0.48776232310E+02  0.16068798078E+02  0.12290833189E+03  0.13327136811E+03  0.41800000000E+01 0. -1.
         -5    1    3    3    0  502 -0.72948580869E+02 -0.41599248808E+01  0.28449932610E+03  0.29376204550E+03  0.41800000000E+01 0. -1.
        -11    1    1    2    0    0 -0.11216351480E+02 -0.44538293969E+02  0.11399669163E+03  0.12290122812E+03  0.00000000000E+00 0. -1.
         11    1    1    2    0    0  0.35388700039E+02  0.32629420771E+02  0.10226522786E+03  0.11302750117E+03  0.00000000000E+00 0.  1.
</event>
<event>
 7    1  0.2530765E-009  0.1095286E+03  0.7561462E-02  0.1261445E+00
          2   -1    0    0  501    0  0.00000000000E+00  0.00000000000E+00  0.40903680392E+03  0.40903680392E+03  0.00000000000E+00 0. -1.
         -2   -1    0    0    0  501 -0.00000000000E+00 -0.00000000000E+00 -0.36558626492E+02  0.36558626492E+02  0.00000000000E+00 0.  1.
         25    2    1    2    0    0 -0.15932334136E+02 -0.62584652180E+01  0.30462489456E+03  0.32975280009E+03  0.12509026791E+03 0.  0.
          5    1    3    3  502    0  0.52714348738E+02  0.13519148449E+02  0.13879644971E+03  0.14914253850E+03  0.41800000000E+01 0. -1.
         -5    1    3    3    0  502 -0.68646682874E+02 -0.19777613668E+02  0.16582844485E+03  0.18061026159E+03  0.41800000000E+01 0. -1.
        -11    1    1    2    0    0  0.26226262041E+02 -0.38724516734E+02  0.42475662088E+02  0.63179006693E+02  0.00000000000E+00 0. -1.
         11    1    1    2    0    0 -0.10293927904E+02  0.44982981952E+02  0.25377620782E+02  0.52663623627E+02  0.00000000000E+00 0.  1.
</event>
<event>
 7    1  0.2530765E-009  0.1153209E+03  0.7561462E-02  0.1251022E+00
          2   -1    0    0  501    0  0.00000000000E+00  0.00000000000E+00  0.17569350871E+03  0.17569350871E+03  0.00000000000E+00 0. -1.
         -2   -1    0    0    0  501 -0.00000000000E+00 -0.00000000000E+00 -0.11384114133E+03  0.11384114133E+03  0.00000000000E+00 0.  1.
         25    2    1    2    0    0 -0.48194523527E+02 -0.69446204971E+02  0.68074369340E+02  0.16561077245E+03  0.12508925097E+03 0.  0.
          5    1    3    3  502    0  0.30538516939E+02 -0.35081118348E+01  0.53440262093E+02  0.61791924052E+02  0.41800000000E+01 0.  1.
         -5    1    3    3    0  502 -0.78733040466E+02 -0.65938093136E+02  0.14634107247E+02  0.10381884840E+03  0.41800000000E+01 0.  1.
        -11    1    1    2    0    0 -0.92356530115E+01  0.15504601383E+02 -0.35536878236E+02  0.39856739272E+02  0.00000000000E+00 0.  1.
         11    1    1    2    0    0  0.57430176539E+02  0.53941603588E+02  0.29314876272E+02  0.84067138322E+02  0.00000000000E+00 0. -1.
</event>
<event>
 7    1  0.2530765E-009  0.2693373E+03  0.7561462E-02  0.1101659E+00
          3   -1    0    0  501    0  0.00000000000E+00  0.00000000000E+00  0.16917708542E+03  0.16917708542E+03  0.00000000000E+00 0. -1.
         -3   -1    0    0    0  501 -0.00000000000E+00 -0.00000000000E+00 -0.50698167878E+03  0.50698167878E+03  0.00000000000E+00 0.  1.
         25    2    1    2    0    0  0.17874151108E+03  0.19020575436E+03 -0.26028447549E+03  0.38925778647E+03  0.12508740693E+03 0.  0.
          5    1    3    3  502    0  0.17083538520E+03  0.16377615242E+03 -0.27059805734E+03  0.35951097059E+03  0.41800000000E+01 0. -1.
         -5    1    3    3    0  502  0.79061258779E+01  0.26429601934E+02  0.10313581842E+02  0.29746815884E+02  0.41800000000E+01 0. -1.
        -11    1    1    2    0    0 -0.53244770892E+02 -0.95269187314E+01 -0.29953299416E+02  0.61830154082E+02  0.00000000000E+00 0.  1.
         11    1    1    2    0    0 -0.12549674019E+03 -0.18067883563E+03 -0.47566818446E+02  0.22507082365E+03  0.00000000000E+00 0. -1.
</event>
<event>
 7    1  0.2530765E-009  0.1521886E+03  0.7561462E-02  0.1197809E+00
          2   -1    0    0  501    0  0.00000000000E+00  0.00000000000E+00  0.30751679254E+03  0.30751679254E+03  0.00000000000E+00 0. -1.
         -2   -1    0    0    0  501 -0.00000000000E+00 -0.00000000000E+00 -0.98729368605E+02  0.98729368605E+02  0.00000000000E+00 0.  1.
         25    2    1    2    0    0 -0.72332307185E+02  0.10431116045E+03  0.47439304138E+02  0.18441325121E+03  0.12507988961E+03 0.  0.
          5    1    3    3  502    0 -0.10424820712E+02  0.11182864675E+03  0.13245596907E+02  0.11316908305E+03  0.41800000000E+01 0.  1.
         -5    1    3    3    0  502 -0.61907486474E+02 -0.75174863002E+01  0.34193707231E+02  0.71244168154E+02  0.41800000000E+01 0.  1.
        -11    1    1    2    0    0  0.57206661801E+02 -0.97165456964E+02  0.16921988944E+03  0.20334477904E+03  0.00000000000E+00 0. -1.
         11    1    1    2    0    0  0.15125645384E+02 -0.71457034879E+01 -0.78717696468E+01  0.18488130895E+02  0.00000000000E+00 0.  1.
</event>
<event>
 7    1  0.2530765E-009  0.1130116E+03  0.7561462E-02  0.1255092E+00
          1   -1    0    0  501    0  0.00000000000E+00  0.00000000000E+00  0.31922327149E+02  0.31922327149E+02  0.00000000000E+00 0. -1.
         -1   -1    0    0    0  501 -0.00000000000E+00 -0.00000000000E+00 -0.46551345508E+03  0.46551345508E+03  0.00000000000E+00 0.  1.
         25    2    1    2    0    0  0.37246219472E+02 -0.68837688566E+00 -0.32860501192E+03  0.35357406715E+03  0.12508242233E+03 0.  0.
          5    1    3    3  502    0  0.48028741152E+02 -0.54469364729E+02 -0.15031195414E+03  0.16698750740E+03  0.41800000000E+01 0.  1.
         -5    1    3    3    0  502 -0.10782521679E+02  0.53780987843E+02 -0.17829305778E+03  0.18658655975E+03  0.41800000000E+01 0.  1.
        -11    1    1    2    0    0 -0.45751337555E+02  0.38327806931E+02 -0.66652832819E+02  0.89469580278E+02  0.00000000000E+00 0. -1.
         11    1    1    2    0    0  0.85051180824E+01 -0.37639430045E+02 -0.38333283188E+02  0.54392134797E+02  0.00000000000E+00 0.  1.
</event>
<event>
 7    1  0.2530765E-009  0.9396765E+02  0.7561462E-02  0.1293518E+00
          2   -1    0    0  501    0  0.00000000000E+00  0.00000000000E+00  0.32697210696E+03  0.32697210696E+03  0.00000000000E+00 0. -1.
         -2   -1    0    0    0  501 -0.00000000000E+00 -0.00000000000E+00 -0.41503504019E+02  0.41503504019E+02  0.00000000000E+00 0.  1.
         25    2    1    2    0    0 -0.27812470264E+02  0.12523148523E+02  0.21202869592E+03  0.24805935167E+03  0.12508761452E+03 0.  0.
          5    1    3    3  502    0 -0.13182237118E+02 -0.48545729729E+02  0.15541572480E+03  0.16340740242E+03  0.41800000000E+01 0.  1.
         -5    1    3    3    0  502 -0.14630233146E+02  0.61068878253E+02  0.56612971114E+02  0.84651949247E+02  0.41800000000E+01 0.  1.
        -11    1    1    2    0    0  0.28508643401E+02  0.24441188278E+02  0.74501490235E+02  0.83430129332E+02  0.00000000000E+00 0. -1.
         11    1    1    2    0    0 -0.69617313750E+00 -0.36964336801E+02 -0.10615832073E+01  0.36986129983E+02  0.00000000000E+00 0.  1.
</event>
<event>
 7    1  0.2530765E-009  0.2630803E+03  0.7561462E-02  0.1105307E+00
          2   -1    0    0  501    0  0.00000000000E+00  0.00000000000E+00  0.21597800062E+03  0.21597800062E+03  0.00000000000E+00 0. -1.
         -2   -1    0    0    0  501 -0.00000000000E+00 -0.00000000000E+00 -0.36720944219E+03  0.36720944219E+03  0.00000000000E+00 0.  1.
         25    2    1    2    0    0  0.20008330507E+03 -0.13499753440E+03 -0.17640408168E+03  0.32406616453E+03  0.12507124250E+03 0.  0.
          5    1    3    3  502    0  0.21689244905E+03 -0.13081535729E+03 -0.17023865451E+03  0.30521085178E+03  0.41800000000E+01 0. -1.
         -5    1    3    3    0  502 -0.16809143980E+02 -0.41821771099E+01 -0.61654271691E+01  0.18855312750E+02  0.41800000000E+01 0. -1.
        -11    1    1    2    0    0 -0.95748054736E+02  0.11349942793E+03 -0.44291208840E+01  0.14855782456E+03  0.00000000000E+00 0. -1.
         11    1    1    2    0    0 -0.10433525033E+03  0.21498106473E+02  0.29601760995E+02  0.11056345372E+03  0.00000000000E+00 0.  1.
</event>
<event>
 7    1  0.2530765E-009  0.1704036E+03  0.7561462E-02  0.1177428E+00
         -2   -1    0    0    0  501 -0.00000000000E+00  0.00000000000E+00  0.24275078054E+03  0.24275078054E+03  0.00000000000E+00 0. -1.
          2   -1    0    0  501    0  0.00000000000E+00 -0.00000000000E+00 -0.13250463776E+03  0.13250463776E+03  0.00000000000E+00 0.  1.
         25    2    1    2    0    0  0.98003754399E+02 -0.92545965724E+02  0.88022147280E+01  0.18410506080E+03  0.12509077815E+03 0.  0.
          5    1    3    3  502    0 -0.24613748311E+02 -0.42237723608E+02  0.15150873471E+02  0.51350591705E+02  0.41800000000E+01 0. -1.
         -5    1    3    3    0  502  0.12261750271E+03 -0.50308242116E+02 -0.63486587427E+01  0.13275446909E+03  0.41800000000E+01 0. -1.
        -11    1    1    2    0    0 -0.74070455709E+02  0.10777359630E+03  0.68333737809E+02  0.14755026327E+03  0.00000000000E+00 0.  1.
         11    1    1    2    0    0 -0.23933298690E+02 -0.15227630579E+02  0.33110190237E+02  0.43600094229E+02  0.00000000000E+00 0. -1.
</event>
<event>
 7    1  0.2530765E-009  0.1082519E+03  0.7561462E-02  0.1263842E+00
          2   -1    0    0  501    0  0.00000000000E+00  0.00000000000E+00  0.12212019731E+02  0.12212019731E+02  0.00000000000E+00 0. -1.
         -2   -1    0    0    0  501 -0.00000000000E+00 -0.00000000000E+00 -0.11156886161E+04  0.11156886161E+04  0.00000000000E+00 0.  1.
         25    2    1    2    0    0 -0.14107638589E+02 -0.27266939037E+02 -0.75269946584E+03  0.76364036329E+03  0.12509039588E+03 0.  0.
          5    1    3    3  502    0  0.50250054947E+02 -0.15625667595E+02 -0.49224068000E+03  0.49506321713E+03  0.41800000000E+01 0.  1.
         -5    1    3    3    0  502 -0.64357693537E+02 -0.11641271442E+02 -0.26045878583E+03  0.26857714615E+03  0.41800000000E+01 0.  1.
        -11    1    1    2    0    0 -0.11098896254E+01 -0.34523993132E+02 -0.12102526065E+03  0.12585806161E+03  0.00000000000E+00 0. -1.
         11    1    1    2    0    0  0.15217528215E+02  0.61790932169E+02 -0.22975186988E+03  0.23840221093E+03  0.00000000000E+00 0.  1.
</event>
<event>
 7    1  0.2530765E-009  0.3655159E+03  0.7561462E-02  0.1056421E+00
          1   -1    0    0  501    0  0.00000000000E+00  0.00000000000E+00  0.50428859859E+03  0.50428859859E+03  0.00000000000E+00 0. -1.
         -1   -1    0    0    0  501 -0.00000000000E+00 -0.00000000000E+00 -0.29596754081E+03  0.29596754081E+03  0.00000000000E+00 0.  1.
         25    2    1    2    0    0  0.34676438280E+03 -0.79643538309E+02  0.21818669381E+03  0.43570817294E+03  0.12509016043E+03 0.  0.
          5    1    3    3  502    0  0.12083446097E+03  0.26729681715E+02  0.44854728952E+02  0.13169989351E+03  0.41800000000E+01 0. -1.
         -5    1    3    3    0  502  0.22592992184E+03 -0.10637322002E+03  0.17333196486E+03  0.30400827943E+03  0.41800000000E+01 0. -1.
        -11    1    1    2    0    0 -0.10449141764E+03  0.40356509840E+02 -0.36160062943E+02  0.11770579594E+03  0.00000000000E+00 0. -1.
         11    1    1    2    0    0 -0.24227296516E+03  0.39287028468E+02  0.26294426910E+02  0.24684217051E+03  0.00000000000E+00 0.  1.
</event>
<event>
 7    1  0.2530765E-009  0.2403700E+03  0.7561462E-02  0.1119547E+00
         -2   -1    0    0    0  501 -0.00000000000E+00  0.00000000000E+00  0.79371681203E+02  0.79371681203E+02  0.00000000000E+00 0. -1.
          2   -1    0    0  501    0  0.00000000000E+00 -0.00000000000E+00 -0.97238557234E+03  0.97238557234E+03  0.00000000000E+00 0.  1.
         25    2    1    2    0    0  0.22571228150E+03  0.38465699381E+02 -0.24241583607E+03  0.35614357374E+03  0.12508862254E+03 0.  0.
          5    1    3    3  502    0  0.22939831466E+03  0.24643166437E+02 -0.24931965070E+03  0.33971846145E+03  0.41800000000E+01 0. -1.
         -5    1    3    3    0  502 -0.36860331608E+01  0.13822532944E+02  0.69038146281E+01  0.16425112294E+02  0.41800000000E+01 0. -1.
        -11    1    1    2    0    0 -0.11826144878E+03  0.68612904782E+01 -0.22439999089E+03  0.25374830735E+03  0.00000000000E+00 0. -1.
         11    1    1    2    0    0 -0.10745083273E+03 -0.45326989859E+02 -0.42619806417E+03  0.44186537245E+03  0.00000000000E+00 0.  1.
</event>
<event>
 7    1  0.2530765E-009  0.1319181E+03  0.7561462E-02  0.1224637E+00
          1   -1    0    0  501    0  0.00000000000E+00  0.00000000000E+00  0.79172352869E+03  0.79172352869E+03  0.00000000000E+00 0. -1.
         -1   -1    0    0    0  501 -0.00000000000E+00 -0.00000000000E+00 -0.37825344153E+02  0.37825344153E+02  0.00000000000E+00 0.  1.
         25    2    1    2    0    0  0.88228258013E+02  0.64296103287E+01  0.15625497584E+03  0.21883563258E+03  0.12509137146E+03 0.  0.
          5    1    3    3  502    0  0.10461211245E+03 -0.25380042965E+02  0.14588234333E+03  0.18134765272E+03  0.41800000000E+01 0. -1.
         -5    1    3    3    0  502 -0.16383854438E+02  0.31809653294E+02  0.10372632508E+02  0.37487979861E+02  0.41800000000E+01 0. -1.
        -11    1    1    2    0    0 -0.78804897521E+01 -0.34181733767E+02  0.10275565800E+03  0.10857816674E+03  0.00000000000E+00 0.  1.
         11    1    1    2    0    0 -0.80347768261E+02  0.27752123438E+02  0.49488755070E+03  0.50213507352E+03  0.00000000000E+00 0. -1.
</event>
<event>
 7    1  0.2530765E-009  0.1146650E+03  0.7561462E-02  0.1252167E+00
          1   -1    0    0  501    0  0.00000000000E+00  0.00000000000E+00  0.48591689247E+03  0.48591689247E+03  0.00000000000E+00 0. -1.
         -1   -1    0    0    0  501 -0.00000000000E+00 -0.00000000000E+00 -0.50054376421E+02  0.50054376421E+02  0.00000000000E+00 0.  1.
         25    2    1    2    0    0 -0.33611902997E+02  0.58913710394E+02  0.80663529649E+02  0.16356675566E+03  0.12508754233E+03 0.  0.
          5    1    3    3  502    0 -0.56067495281E+02 -0.10513206820E+01  0.81947659673E+02  0.99385917655E+02  0.41800000000E+01 0.  1.
         -5    1    3    3    0  502  0.22455592285E+02  0.59965031076E+02 -0.12841300238E+01  0.64180838003E+02  0.41800000000E+01 0.  1.
        -11    1    1    2    0    0  0.60436420236E+02 -0.24301974216E+02  0.16883836904E+03  0.18096834448E+03  0.00000000000E+00 0.  1.
         11    1    1    2    0    0 -0.26824517239E+02 -0.34611736178E+02  0.18636061735E+03  0.19143616875E+03  0.00000000000E+00 0. -1.
</event>
<event>
 7    1  0.2530765E-009  0.1003021E+03  0.7561462E-02  0.1279662E+00
         -2   -1    0    0    0  501 -0.00000000000E+00  0.00000000000E+00  0.30038987204E+03  0.30038987204E+03  0.00000000000E+00 0.  1.
          2   -1    0    0  501    0  0.00000000000E+00 -0.00000000000E+00 -0.95257485133E+02  0.95257485133E+02  0.00000000000E+00 0. -1.
         25    2    1    2    0    0  0.28639660943E+02 -0.92321379220E+02  0.11733967054E+02  0.15852144832E+03  0.12509155189E+03 0.  0.
          5    1    3    3  502    0  0.61818281894E+01  0.11077385522E+01  0.53236214091E+02  0.53768103697E+02  0.41800000000E+01 0.  1.
         -5    1    3    3    0  502  0.22457832753E+02 -0.93429117773E+02 -0.41502247037E+02  0.10475334462E+03  0.41800000000E+01 0.  1.
        -11    1    1    2    0    0 -0.18227401171E+02  0.68452097182E+02  0.39632827427E+02  0.81170738397E+02  0.00000000000E+00 0. -1.
         11    1    1    2    0    0 -0.10412259772E+02  0.23869282038E+02  0.15376559242E+03  0.15595517046E+03  0.00000000000E+00 0.  1.
</event>
<event>
 7    1  0.2530765E-009  0.7580863E+02  0.7561462E-02  0.1341385E+00
          4   -1    0    0  501    0  0.00000000000E+00  0.00000000000E+00  0.71022771670E+02  0.71022771670E+02  0.00000000000E+00 0. -1.
         -4   -1    0    0    0  501 -0.00000000000E+00 -0.00000000000E+00 -0.42403757260E+03  0.42403757260E+03  0.00000000000E+00 0.  1.
         25    2    1    2    0    0  0.21493146487E+02  0.67096323376E+02 -0.35224435183E+03  0.38038356172E+03  0.12510674909E+03 0.  0.
          5    1    3    3  502    0 -0.97862618995E+01  0.30358890162E+02 -0.32131046027E+03  0.32291688933E+03  0.41800000000E+01 0. -1.
         -5    1    3    3    0  502  0.31279408387E+02  0.36737433214E+02 -0.30933891563E+02  0.57466672388E+02  0.41800000000E+01 0. -1.
        -11    1    1    2    0    0 -0.12397066410E+02 -0.51413668382E+02  0.42444556533E+02  0.67812925990E+02  0.00000000000E+00 0. -1.
         11    1    1    2    0    0 -0.90960800773E+01 -0.15682654994E+02 -0.43215005632E+02  0.46863856566E+02  0.00000000000E+00 0.  1.
</event>
<event>
 7    1  0.2530765E-009  0.3245140E+03  0.7561462E-02  0.1073590E+00
         -1   -1    0    0    0  501 -0.00000000000E+00  0.00000000000E+00  0.66536576893E+02  0.66536576893E+02  0.00000000000E+00 0.  1.
          1   -1    0    0  501    0  0.00000000000E+00 -0.00000000000E+00 -0.17796063174E+04  0.17796063174E+04  0.00000000000E+00 0. -1.
         25    2    1    2    0    0  0.31311621147E+03  0.17481830617E+02 -0.62723058870E+03  0.71232945147E+03  0.12509060611E+03 0.  0.
          5    1    3    3  502    0  0.79981556570E+02 -0.28564555991E+02 -0.84688781171E+02  0.12001102160E+03  0.41800000000E+01 0.  1.
         -5    1    3    3    0  502  0.23313465490E+03  0.46046386609E+02 -0.54254180753E+03  0.59231842986E+03  0.41800000000E+01 0.  1.
        -11    1    1    2    0    0 -0.14118429986E+03 -0.52916772582E+02 -0.50344419334E+03  0.52553710350E+03  0.00000000000E+00 0.  1.
         11    1    1    2    0    0 -0.17193191161E+03  0.35434941965E+02 -0.58239495850E+03  0.60827633936E+03  0.00000000000E+00 0. -1.
</event>
<event>
 7    1  0.2530765E-009  0.2834581E+03  0.7561462E-02  0.1093815E+00
          4   -1    0    0  501    0  0.00000000000E+00  0.00000000000E+00  0.35862731468E+03  0.35862731468E+03  0.00000000000E+00 0. -1.
         -4   -1    0    0    0  501 -0.00000000000E+00 -0.00000000000E+00 -0.23495156443E+03  0.23495156443E+03  0.00000000000E+00 0.  1.
         25    2    1    2    0    0  0.13726641799E+03 -0.22994903615E+03  0.88001520548E+02  0.30839881363E+03  0.12508769682E+03 0.  0.
          5    1    3    3  502    0  0.11909336100E+03 -0.92040126758E+02  0.15186809252E+02  0.15133646336E+03  0.41800000000E+01 0. -1.
         -5    1    3    3    0  502  0.18173056990E+02 -0.13790890940E+03  0.72814711296E+02  0.15706235027E+03  0.41800000000E+01 0. -1.
        -11    1    1    2    0    0 -0.68536154841E+02  0.17885976526E+03  0.50922357267E+02  0.19819461803E+03  0.00000000000E+00 0.  1.
         11    1    1    2    0    0 -0.68730263149E+02  0.51089270898E+02 -0.15248127557E+02  0.86985447446E+02  0.00000000000E+00 0. -1.
</event>
<event>
 7    1  0.2530765E-009  0.9448137E+02  0.7561462E-02  0.1292348E+00
          2   -1    0    0  501    0  0.00000000000E+00  0.00000000000E+00  0.10353609904E+03  0.10353609904E+03  0.00000000000E+00 0. -1.
         -2   -1    0    0    0  501 -0.00000000000E+00 -0.00000000000E+00 -0.12655655522E+03  0.12655655522E+03  0.00000000000E+00 0.  1.
         25    2    1    2    0    0 -0.34341498885E+02 -0.75407477070E+00 -0.23288122395E+02  0.13178121722E+03  0.12507615837E+03 0.  0.
          5    1    3    3  502    0 -0.29518046908E+01  0.60445191321E+02 -0.13948713644E+02  0.62244464148E+02  0.41800000000E+01 0.  1.
         -5    1    3    3    0  502 -0.31389694194E+02 -0.61199266091E+02 -0.93394087503E+01  0.69536753070E+02  0.41800000000E+01 0.  1.
        -11    1    1    2    0    0  0.59112629657E+01 -0.22125417443E+02 -0.38671950718E+02  0.44944375612E+02  0.00000000000E+00 0.  1.
         11    1    1    2    0    0  0.28430235919E+02  0.22879492213E+02  0.38939616940E+02  0.53367061431E+02  0.00000000000E+00 0. -1.
</event>
<event>
 7    1  0.2530765E-009  0.7704383E+02  0.7561462E-02  0.1337656E+00
         -1   -1    0    0    0  501 -0.00000000000E+00  0.00000000000E+00  0.92082604059E+02  0.92082604059E+02  0.00000000000E+00 0.  1.
          1   -1    0    0  501    0  0.00000000000E+00 -0.00000000000E+00 -0.22860882566E+03  0.22860882566E+03  0.00000000000E+00 0. -1.
         25    2    1    2    0    0  0.48611508274E+02  0.13652852400E+02 -0.15723195383E+03  0.20716932759E+03  0.12509102235E+03 0.  0.
          5    1    3    3  502    0  0.35717352131E+02 -0.74313348651E+00  0.11129064605E+02  0.37651161597E+02  0.41800000000E+01 0.  1.
         -5    1    3    3    0  502  0.12894156143E+02  0.14395985887E+02 -0.16836101844E+03  0.16951816599E+03  0.41800000000E+01 0.  1.
        -11    1    1    2    0    0 -0.67032192056E+02 -0.30258506625E+02 -0.98130763640E+01  0.74196957233E+02  0.00000000000E+00 0. -1.
         11    1    1    2    0    0  0.18420683782E+02  0.16605654224E+02  0.30518808593E+02  0.39325144897E+02  0.00000000000E+00 0.  1.
</event>
<event>
 7    1  0.2530765E-009  0.1603426E+03  0.7561462E-02  0.1188311E+00
         -1   -1    0    0    0  501 -0.00000000000E+00  0.00000000000E+00  0.49769811107E+02  0.49769811107E+02  0.00000000000E+00 0.  1.
          1   -1    0    0  501    0  0.00000000000E+00 -0.00000000000E+00 -0.59799678135E+03  0.59799678135E+03  0.00000000000E+00 0. -1.
         25    2    1    2    0    0 -0.13345762132E+03 -0.13598455872E+02 -0.28337422576E+03  0.33755716658E+03  0.12509210284E+03 0.  0.
          5    1    3    3  502    0 -0.78626024570E+02 -0.69451360796E+02 -0.15827864254E+03  0.18993457911E+03  0.41800000000E+01 0. -1.
         -5    1    3    3    0  502 -0.54831596749E+02  0.55852904924E+02 -0.12509558322E+03  0.14762258747E+03  0.41800000000E+01 0. -1.
        -11    1    1    2    0    0  0.14896210816E+02 -0.78346300038E+01  0.24499664642E+01  0.17008258572E+02  0.00000000000E+00 0.  1.
         11    1    1    2    0    0  0.11856141050E+03  0.21433085876E+02 -0.26730271095E+03  0.29320116731E+03  0.00000000000E+00 0. -1.
</event>
<event>
 7    1  0.2530765E-009  0.9475018E+02  0.7561462E-02  0.1291740E+00
          1   -1    0    0  501    0  0.00000000000E+00  0.00000000000E+00  0.19358172612E+03  0.19358172612E+03  0.00000000000E+00 0. -1.
         -1   -1    0    0    0  501 -0.00000000000E+00 -0.00000000000E+00 -0.67006140582E+02  0.67006140582E+02  0.00000000000E+00 0.  1.
         25    2    1    2    0    0  0.84437783610E+01  0.34350344415E+02  0.80585766247E+02  0.15294397024E+03  0.12508616533E+03 0.  0.
          5    1    3    3  502    0 -0.56348429726E+02  0.15418038361E+02  0.19275600350E+02  0.61659408109E+02  0.41800000000E+01 0.  1.
         -5    1    3    3    0  502  0.64792208087E+02  0.18932306054E+02  0.61310165898E+02  0.91284562132E+02  0.41800000000E+01 0.  1.
        -11    1    1    2    0    0  0.12452153148E+02 -0.39802552603E+02  0.66085502814E+02  0.78144692679E+02  0.00000000000E+00 0. -1.
         11    1    1    2    0    0 -0.20895931509E+02  0.54522081878E+01 -0.20095683520E+02  0.29499203784E+02  0.00000000000E+00 0.  1.
</event>
<event>
 7    1  0.2530765E-009  0.1029625E+03  0.7561462E-02  0.1274187E+00
          3   -1    0    0  501    0  0.00000000000E+00  0.00000000000E+00  0.35131106685E+02  0.35131106685E+02  0.00000000000E+00 0. -1.
         -3   -1    0    0    0  501 -0.00000000000E+00 -0.00000000000E+00 -0.58247412872E+03  0.58247412872E+03  0.00000000000E+00 0.  1.
         25    2    1    2    0    0 -0.74616096932E+02 -0.32269393573E+02 -0.20208085190E+03  0.25118257055E+03  0.12508851810E+03 0.  0.
          5    1    3    3  502    0 -0.63119037030E+01  0.26307901670E+02  0.26574778880E+01  0.27504188905E+02  0.41800000000E+01 0. -1.
         -5    1    3    3    0  502 -0.68304193229E+02 -0.58577295243E+02 -0.20473832979E+03  0.22367838164E+03  0.41800000000E+01 0. -1.
        -11    1    1    2    0    0  0.53652734542E+02  0.47311546180E+01 -0.31755037117E+03  0.32208576184E+03  0.00000000000E+00 0.  1.
         11    1    1    2    0    0  0.20963362391E+02  0.27538238955E+02 -0.27711798967E+02  0.44336903020E+02  0.00000000000E+00 0. -1.
</event>
<event>
 7    1  0.2530765E-009  0.1004808E+03  0.7561462E-02  0.1279288E+00
          2   -1    0    0  501    0  0.00000000000E+00  0.00000000000E+00  0.11068463449E+03  0.11068463449E+03  0.00000000000E+00 0. -1.
         -2   -1    0    0    0  501 -0.00000000000E+00 -0.00000000000E+00 -0.11904198583E+03  0.11904198583E+03  0.00000000000E+00 0.  1.
         25    2    1    2    0    0 -0.19327247647E+02  0.46667822904E+01 -0.38660980539E+02  0.13243114764E+03  0.12509203048E+03 0.  0.
          5    1    3    3  502    0 -0.63284438781E+02 -0.23370745677E+02 -0.34280475204E+00  0.67592173071E+02  0.41800000000E+01 0.  1.
         -5    1    3    3    0  502  0.43957191134E+02  0.28037527968E+02 -0.38318175787E+02  0.64838974564E+02  0.41800000000E+01 0.  1.
        -11    1    1    2    0    0  0.82005393673E+01  0.37020889843E+02  0.37755633109E+02  0.53509652981E+02  0.00000000000E+00 0. -1.
         11    1    1    2    0    0  0.11126708280E+02 -0.41687672133E+02 -0.74520039121E+01  0.43785819706E+02  0.00000000000E+00 0.  1.
</event>
<event>
 7    1  0.2530765E-009  0.1496394E+03  0.7561462E-02  0.1200917E+00
         -2   -1    0    0    0  501 -0.00000000000E+00  0.00000000000E+00  0.25443646035E+02  0.25443646035E+02  0.00000000000E+00 0.  1.
          2   -1    0    0  501    0  0.00000000000E+00 -0.00000000000E+00 -0.10993084483E+04  0.10993084483E+04  0.00000000000E+00 0. -1.
         25    2    1    2    0    0  0.82220513362E+02  0.10232227333E+03 -0.58598916621E+03  0.61340129470E+03  0.12509110674E+03 0.  0.
          5    1    3    3  502    0  0.90649702492E+02  0.74963160928E+02 -0.56630597362E+03  0.57840882792E+03  0.41800000000E+01 0. -1.
         -5    1    3    3    0  502 -0.84291891300E+01  0.27359112400E+02 -0.19683192588E+02  0.34992466777E+02  0.41800000000E+01 0. -1.
        -11    1    1    2    0    0 -0.80294946102E+02 -0.11475762613E+03 -0.43469018001E+03  0.45669699333E+03  0.00000000000E+00 0.  1.
         11    1    1    2    0    0 -0.19255672606E+01  0.12435352799E+02 -0.53185456039E+02  0.54653806295E+02  0.00000000000E+00 0. -1.
</event>
<event>
 7    1  0.2530765E-009  0.1028867E+03  0.7561462E-02  0.1274340E+00
          2   -1    0    0  501    0  0.00000000000E+00  0.00000000000E+00  0.96354750826E+02  0.96354750826E+02  0.00000000000E+00 0. -1.
         -2   -1    0    0    0  501 -0.00000000000E+00 -0.00000000000E+00 -0.12200398548E+03  0.12200398548E+03  0.00000000000E+00 0.  1.
         25    2    1    2    0    0 -0.44297390517E+01 -0.79505853863E+01 -0.10605559636E+02  0.12586342084E+03  0.12508512467E+03 0.  0.
          5    1    3    3  502    0 -0.60336517859E+02 -0.75789472446E+01 -0.28119265686E+02  0.67127500560E+02  0.41800000000E+01 0.  1.
         -5    1    3    3    0  502  0.55906778808E+02 -0.37163814174E+00  0.17513706050E+02  0.58735920280E+02  0.41800000000E+01 0.  1.
        -11    1    1    2    0    0 -0.18792578120E+02  0.42876251719E+02 -0.18665704252E+02  0.50397841909E+02  0.00000000000E+00 0.  1.
         11    1    1    2    0    0  0.23222317172E+02 -0.34925666332E+02  0.36220292386E+01  0.42097473551E+02  0.00000000000E+00 0. -1.
</event>
<event>
 7    1  0.2530765E-009  0.1208810E+03  0.7561462E-02  0.1241651E+00
         -2   -1    0    0    0  501 -0.00000000000E+00  0.00000000000E+00  0.63201035071E+02  0.63201035071E+02  0.00000000000E+00 0.  1.
          2   -1    0    0  501    0  0.00000000000E+00 -0.00000000000E+00 -0.27262144787E+03  0.27262144787E+03  0.00000000000E+00 0. -1.
         25    2    1    2    0    0 -0.50860539339E+02 -0.32852892336E+02 -0.62241168443E+02  0.15227600376E+03  0.12509161153E+03 0.  0.
          5    1    3    3  502    0 -0.59873790797E+02 -0.73794007210E+02 -0.31783994127E+02  0.10029018400E+03  0.41800000000E+01 0. -1.
         -5    1    3    3    0  502  0.90132514574E+01  0.40941114874E+02 -0.30457174316E+02  0.51985819761E+02  0.41800000000E+01 0. -1.
        -11    1    1    2    0    0  0.70494784295E+02  0.53195186231E+01 -0.12336569085E+03  0.14218616518E+03  0.00000000000E+00 0. -1.
         11    1    1    2    0    0 -0.19634244955E+02  0.27533373713E+02 -0.23813553505E+02  0.41360313992E+02  0.00000000000E+00 0.  1.
</event>
<event>
 7    1  0.2530765E-009  0.1041103E+03  0.7561462E-02  0.1271882E+00
         -2   -1    0    0    0  501 -0.00000000000E+00  0.00000000000E+00  0.13316329687E+02  0.13316329687E+02  0.00000000000E+00 0.  1.
          2   -1    0    0  501    0  0.00000000000E+00 -0.00000000000E+00 -0.91584499705E+03  0.91584499705E+03  0.00000000000E+00 0. -1.
         25    2    1    2    0    0  0.23412850003E+01 -0.16019204090E+01 -0.55606749960E+03  0.56997080445E+03  0.12509039154E+03 0.  0.
          5    1    3    3  502    0 -0.33589474431E+02 -0.45695608192E+02 -0.39566483937E+03  0.39973050787E+03  0.41800000000E+01 0.  1.
         -5    1    3    3    0  502  0.35930759431E+02  0.44093687783E+02 -0.16040266022E+03  0.17024029659E+03  0.41800000000E+01 0.  1.
        -11    1    1    2    0    0  0.29073317119E+02  0.36959403179E+02 -0.15516091221E+03  0.16213008335E+03  0.00000000000E+00 0.  1.
         11    1    1    2    0    0 -0.31414602119E+02 -0.35357482770E+02 -0.19130025556E+03  0.19706043893E+03  0.00000000000E+00 0. -1.
</event>
<event>
 7    1  0.2530765E-009  0.9647568E+02  0.7561462E-02  0.1287887E+00
          1   -1    0    0  501    0  0.00000000000E+00  0.00000000000E+00  0.31409101515E+02  0.31409101515E+02  0.00000000000E+00 0. -1.
         -1   -1    0    0    0  501 -0.00000000000E+00 -0.00000000000E+00 -0.51723495697E+03  0.51723495697E+03  0.00000000000E+00 0.  1.
         25    2    1    2    0    0  0.40645739405E+02  0.25451069200E+02 -0.33562176513E+03  0.36137273816E+03  0.12509377922E+03 0.  0.
          5    1    3    3  502    0 -0.19550022464E+02 -0.11342081695E+02 -0.24678502699E+03  0.24785311808E+03  0.41800000000E+01 0.  1.
         -5    1    3    3    0  502  0.60195761869E+02  0.36793150895E+02 -0.88836738146E+02  0.11351962008E+03  0.41800000000E+01 0.  1.
        -11    1    1    2    0    0 -0.34381604349E+02 -0.57305474545E+02 -0.13660146163E+03  0.15207225733E+03  0.00000000000E+00 0.  1.
         11    1    1    2    0    0 -0.62641350558E+01  0.31854405345E+02 -0.13602628685E+02  0.35199062985E+02  0.00000000000E+00 0. -1.
</event>
<event>
 7    1  0.2530765E-009  0.8747186E+02  0.7561462E-02  0.1309092E+00
         -1   -1    0    0    0  501 -0.00000000000E+00  0.00000000000E+00  0.73342788693E+02  0.73342788693E+02  0.00000000000E+00 0.  1.
          1   -1    0    0  501    0  0.00000000000E+00 -0.00000000000E+00 -0.17513748673E+03  0.17513748673E+03  0.00000000000E+00 0. -1.
         25    2    1    2    0    0 -0.15256000194E+02  0.27852188628E+02 -0.34308195800E+02  0.13354345657E+03  0.12509321541E+03 0.  0.
          5    1    3    3  502    0 -0.19409213838E+02 -0.45641595100E+02  0.49411501045E+01  0.50017598397E+02  0.41800000000E+01 0. -1.
         -5    1    3    3    0  502  0.41532136443E+01  0.73493783729E+02 -0.39249345905E+02  0.83525858177E+02  0.41800000000E+01 0. -1.
        -11    1    1    2    0    0  0.17845949613E+02  0.49635670322E+01  0.16451871731E+02  0.24774563542E+02  0.00000000000E+00 0.  1.
         11    1    1    2    0    0 -0.25899494189E+01 -0.32815755661E+02 -0.83938373971E+02  0.90162255310E+02  0.00000000000E+00 0. -1.
</event>
<event>
 7    1  0.2530765E-009  0.2239503E+03  0.7561462E-02  0.1130972E+00
         -1   -1    0    0    0  501 -0.00000000000E+00  0.00000000000E+00  0.17895557061E+03  0.17895557061E+03  0.00000000000E+00 0.  1.
          1   -1    0    0  501    0  0.00000000000E+00 -0.00000000000E+00 -0.36147108634E+03  0.36147108634E+03  0.00000000000E+00 0. -1.
         25    2    1    2    0    0  0.21530504138E+03 -0.23422344523E+02 -0.12177282119E+02  0.25040227906E+03  0.12509255810E+03 0.  0.
          5    1    3    3  502    0  0.14770593702E+03 -0.23012457497E+02 -0.66416557476E+02  0.16363144117E+03  0.41800000000E+01 0. -1.
         -5    1    3    3    0  502  0.67599104357E+02 -0.40988702643E+00  0.54239275357E+02  0.86770837892E+02  0.41800000000E+01 0. -1.
        -11    1    1    2    0    0 -0.20851447762E+03  0.23949862062E+01 -0.16803981977E+03  0.26780852183E+03  0.00000000000E+00 0. -1.
         11    1    1    2    0    0 -0.67905637584E+01  0.21027358317E+02 -0.22984138426E+01  0.22215856052E+02  0.00000000000E+00 0.  1.
</event>
<event>
 7    1  0.2530765E-009  0.9432826E+02  0.7561462E-02  0.1292696E+00
         -2   -1    0    0    0  501 -0.00000000000E+00  0.00000000000E+00  0.26097863882E+02  0.26097863882E+02  0.00000000000E+00 0.  1.
          2   -1    0    0  501    0  0.00000000000E+00 -0.00000000000E+00 -0.59599821570E+03  0.59599821570E+03  0.00000000000E+00 0. -1.
         25    2    1    2    0    0 -0.12982280444E+02 -0.56489361809E+02 -0.37033823787E+03  0.39516722097E+03  0.12508850664E+03 0.  0.
          5    1    3    3  502    0  0.71218992829E+00 -0.64262983675E+02 -0.72861172126E+02  0.97244337053E+02  0.41800000000E+01 0.  1.
         -5    1    3    3    0  502 -0.13694470372E+02  0.77736218660E+01 -0.29747706575E+03  0.29792288392E+03  0.41800000000E+01 0.  1.
        -11    1    1    2    0    0  0.45464346529E+01  0.81469048487E+02 -0.14714696821E+03  0.16825607324E+03  0.00000000000E+00 0.  1.
         11    1    1    2    0    0  0.84358457911E+01 -0.24979686678E+02 -0.52415145735E+02  0.58672785371E+02  0.00000000000E+00 0. -1.
</event>
<event>
 7    1  0.2530765E-009  0.1133431E+03  0.7561462E-02  0.1254501E+00
          2   -1    0    0  501    0  0.00000000000E+00  0.00000000000E+00  0.34725749186E+03  0.34725749186E+03  0.00000000000E+00 0. -1.
         -2   -1    0    0    0  501 -0.00000000000E+00 -0.00000000000E+00 -0.58743409455E+02  0.58743409455E+02  0.00000000000E+00 0.  1.
         25    2    1    2    0    0 -0.48980003336E+02 -0.16360587583E+01  0.45223993223E+02  0.14175678076E+03  0.12509219765E+03 0.  0.
          5    1    3    3  502    0 -0.90106999423E+01 -0.55486091998E+02 -0.68019921108E+01  0.56777095869E+02  0.41800000000E+01 0.  1.
         -5    1    3    3    0  502 -0.39969303393E+02  0.53850033240E+02  0.52025985334E+02  0.84979684888E+02  0.41800000000E+01 0.  1.
        -11    1    1    2    0    0  0.68994309881E+02 -0.21752784673E+02  0.17051790116E+03  0.18522892067E+03  0.00000000000E+00 0. -1.
         11    1    1    2    0    0 -0.20014306545E+02  0.23388843432E+02  0.72772188022E+02  0.79015199886E+02  0.00000000000E+00 0.  1.
</event>
<event>
 7    1  0.2530765E-009  0.1034350E+03  0.7561462E-02  0.1273234E+00
          1   -1    0    0  501    0  0.00000000000E+00  0.00000000000E+00  0.24684135319E+02  0.24684135319E+02  0.00000000000E+00 0. -1.
         -1   -1    0    0    0  501 -0.00000000000E+00 -0.00000000000E+00 -0.63653140085E+03  0.63653140085E+03  0.00000000000E+00 0.  1.
         25    2    1    2    0    0  0.44460265596E+02  0.15923935783E+02 -0.23782088277E+03  0.27283138626E+03  0.12509159083E+03 0.  0.
          5    1    3    3  502    0 -0.18149729752E+01  0.50188929088E+02 -0.19376107600E+03  0.20020751660E+03  0.41800000000E+01 0.  1.
         -5    1    3    3    0  502  0.46275238571E+02 -0.34264993305E+02 -0.44059806769E+02  0.72623869654E+02  0.41800000000E+01 0.  1.
        -11    1    1    2    0    0 -0.35105169484E+02 -0.51293964313E+02 -0.29240049044E+03  0.29893392331E+03  0.00000000000E+00 0. -1.
         11    1    1    2    0    0 -0.93550961112E+01  0.35370028531E+02 -0.81625892324E+02  0.89450226602E+02  0.00000000000E+00 0.  1.
</event>
<event>
 7    1  0.2530765E-009  0.1021483E+03  0.7561462E-02  0.1275842E+00
         -2   -1    0    0    0  501 -0.00000000000E+00  0.00000000000E+00  0.22730538643E+03  0.22730538643E+03  0.00000000000E+00 0.  1.
          2   -1    0    0  501    0  0.00000000000E+00 -0.00000000000E+00 -0.65353110107E+02  0.65353110107E+02  0.00000000000E+00 0. -1.
         25    2    1    2    0    0  0.78142534550E+01  0.37738684858E+02  0.14035572424E+03  0.19191640966E+03  0.12508760162E+03 0.  0.
          5    1    3    3  502    0 -0.22931155006E+02  0.66446605465E+02  0.35496283909E+02  0.78857135499E+02  0.41800000000E+01 0. -1.
         -5    1    3    3    0  502  0.30745408461E+02 -0.28707920608E+02  0.10485944033E+03  0.11305927416E+03  0.41800000000E+01 0. -1.
        -11    1    1    2    0    0  0.14286844729E+02 -0.59141535238E+02  0.31379718771E+02  0.68458176084E+02  0.00000000000E+00 0.  1.
         11    1    1    2    0    0 -0.22101098184E+02  0.21402850380E+02 -0.97831666935E+01  0.32283910790E+02  0.00000000000E+00 0. -1.
</event>
<event>
 7    1  0.2530765E-009  0.9393331E+02  0.7561462E-02  0.1293597E+00
          1   -1    0    0  501    0  0.00000000000E+00  0.00000000000E+00  0.40546134945E+03  0.40546134945E+03  0.00000000000E+00 0. -1.
         -1   -1    0    0    0  501 -0.00000000000E+00 -0.00000000000E+00 -0.46023441286E+02  0.46023441286E+02  0.00000000000E+00 0.  1.
         25    2    1    2    0    0  0.38955324880E+02 -0.10685363038E+02  0.31577602164E+03  0.34204367120E+03  0.12509069846E+03 0.  0.
          5    1    3    3  502    0  0.55914916269E+02  0.17335593986E+02  0.29956418812E+03  0.30525919460E+03  0.41800000000E+01 0. -1.
         -5    1    3    3    0  502 -0.16959591388E+02 -0.28020957024E+02  0.16211833522E+02  0.36784476600E+02  0.41800000000E+01 0. -1.
        -11    1    1    2    0    0 -0.61537261392E+02  0.28091580092E+02  0.44407357246E+02  0.80919619310E+02  0.00000000000E+00 0. -1.
         11    1    1    2    0    0  0.22581936511E+02 -0.17406217053E+02 -0.74547072714E+00  0.28521500229E+02  0.00000000000E+00 0.  1.
</event>
<event>
 7    1  0.2530765E-009  0.1487653E+03  0.7561462E-02  0.1201998E+00
         -2   -1    0    0    0  501 -0.00000000000E+00  0.00000000000E+00  0.24578158219E+02  0.24578158219E+02  0.00000000000E+00 0. -1.
          2   -1    0    0  501    0  0.00000000000E+00 -0.00000000000E+00 -0.12122242438E+04  0.12122242438E+04  0.00000000000E+00 0.  1.
         25    2    1    2    0    0  0.61220333249E+02 -0.11393287423E+03 -0.51050485475E+03  0.54128660161E+03  0.12508936536E+03 0.  0.
          5    1    3    3  502    0  0.50854640746E+02 -0.28511813945E+02 -0.64530259986E+02  0.87067473110E+02  0.41800000000E+01 0. -1.
         -5    1    3    3    0  502  0.10365692503E+02 -0.85421060281E+02 -0.44597459476E+03  0.45421912850E+03  0.41800000000E+01 0. -1.
        -11    1    1    2    0    0  0.53394252079E+01  0.76262768396E+02 -0.43229422506E+03  0.43900206870E+03  0.00000000000E+00 0.  1.
         11    1    1    2    0    0 -0.66559758457E+02  0.37670105830E+02 -0.24484700578E+03  0.25651373172E+03  0.00000000000E+00 0. -1.
</event>
<event>
 7    1  0.2530765E-009  0.9778030E+02  0.7561462E-02  0.1285034E+00
          1   -1    0    0  501    0  0.00000000000E+00  0.00000000000E+00  0.23669850983E+03  0.23669850983E+03  0.00000000000E+00 0. -1.
         -1   -1    0    0    0  501 -0.00000000000E+00 -0.00000000000E+00 -0.53339572175E+02  0.53339572175E+02  0.00000000000E+00 0.  1.
         25    2    1    2    0    0 -0.18339274300E+02 -0.21554676807E+02  0.11536730009E+03  0.17250330742E+03  0.12508734575E+03 0.  0.
          5    1    3    3  502    0  0.20811101488E+02 -0.52797692943E+02  0.10749478053E+03  0.12162770477E+03  0.41800000000E+01 0. -1.
         -5    1    3    3    0  502 -0.39150375788E+02  0.31243016136E+02  0.78725195640E+01  0.50875602659E+02  0.41800000000E+01 0. -1.
        -11    1    1    2    0    0  0.38110069640E+01  0.53323575965E+02  0.17724910484E+02  0.56321398948E+02  0.00000000000E+00 0.  1.
         11    1    1    2    0    0  0.14528267336E+02 -0.31768899158E+02  0.50266727080E+02  0.61213375637E+02  0.00000000000E+00 0. -1.
</event>
<event>
 7    1  0.2530765E-009  0.4913432E+03  0.7561462E-02  0.1016063E+00
         -2   -1    0    0    0  501 -0.00000000000E+00  0.00000000000E+00  0.27037024042E+03  0.27037024042E+03  0.00000000000E+00 0.  1.
          2   -1    0    0  501    0  0.00000000000E+00 -0.00000000000E+00 -0.94264861134E+03  0.94264861134E+03  0.00000000000E+00 0. -1.
         25    2    1    2    0    0  0.47435385279E+03 -0.88281056062E+02 -0.46314176680E+03  0.68040666519E+03  0.12509121213E+03 0.  0.
          5    1    3    3  502    0  0.40327365522E+03 -0.11912852398E+03 -0.38178951543E+03  0.56798059185E+03  0.41800000000E+01 0. -1.
         -5    1    3    3    0  502  0.71080197571E+02  0.30847467913E+02 -0.81352251374E+02  0.11242607334E+03  0.41800000000E+01 0. -1.
        -11    1    1    2    0    0 -0.11249928649E+03  0.17654673944E+01 -0.82792068645E+02  0.13969156369E+03  0.00000000000E+00 0. -1.
         11    1    1    2    0    0 -0.36185456630E+03  0.86515588668E+02 -0.12634453548E+03  0.39292062287E+03  0.00000000000E+00 0.  1.
</event>
<event>
 7    1  0.2530765E-009  0.7051398E+02  0.7561462E-02  0.1358354E+00
         -2   -1    0    0    0  501 -0.00000000000E+00  0.00000000000E+00  0.27093444148E+02  0.27093444148E+02  0.00000000000E+00 0.  1.
          2   -1    0    0  501    0  0.00000000000E+00 -0.00000000000E+00 -0.48712167788E+03  0.48712167788E+03  0.00000000000E+00 0. -1.
         25    2    1    2    0    0  0.10603043304E+02 -0.25985083828E+02 -0.31941024815E+03  0.34417776867E+03  0.12509108968E+03 0.  0.
          5    1    3    3  502    0  0.46893798182E+02 -0.27803760850E+02 -0.56093305229E+02  0.78332679750E+02  0.41800000000E+01 0.  1.
         -5    1    3    3    0  502 -0.36290754878E+02  0.18186770219E+01 -0.26331694292E+03  0.26584508892E+03  0.41800000000E+01 0.  1.
        -11    1    1    2    0    0 -0.77777220286E+01 -0.10563323598E+02  0.90557517958E+01  0.15939993914E+02  0.00000000000E+00 0.  1.
         11    1    1    2    0    0 -0.28253212756E+01  0.36548407425E+02 -0.14967373737E+03  0.15409735944E+03  0.00000000000E+00 0. -1.
</event>
<event>
 7    1  0.2694217E-009  0.1086057E+03  0.7561462E-02  0.1263174E+00
         -1   -1    0    0    0  501 -0.00000000000E+00  0.00000000000E+00  0.57250782493E+02  0.57250782493E+02  0.00000000000E+00 0.  1.
          1   -1    0    0  501    0  0.00000000000E+00 -0.00000000000E+00 -0.41467784896E+03  0.41467784896E+03  0.00000000000E+00 0. -1.
         25    2    1    2    0    0  0.80961109283E+02  0.55895229523E+02 -0.11961375318E+03  0.19908234847E+03  0.12508938253E+03 0.  0.
          5    1    3    3  502    0  0.52526633614E+02  0.65407648039E+02 -0.13951960925E+03  0.16285085639E+03  0.41800000000E+01 0.  1.
         -5    1    3    3    0  502  0.28434475669E+02 -0.95124185153E+01  0.19905856070E+02  0.36231492082E+02  0.41800000000E+01 0.  1.
        -11    1    1    2    0    0 -0.64683567287E+02 -0.27648824849E+02 -0.61174286849E+02  0.93224003154E+02  0.00000000000E+00 0.  1.
         11    1    1    2    0    0 -0.16277541996E+02 -0.28246404674E+02 -0.17663902643E+03  0.17962227983E+03  0.00000000000E+00 0. -1.
</event>
<event>
 7    1  0.2530765E-009  0.8874123E+02  0.7561462E-02  0.1305929E+00
         -2   -1    0    0    0  501 -0.00000000000E+00  0.00000000000E+00  0.79379069028E+02  0.79379069028E+02  0.00000000000E+00 0.  1.
          2   -1    0    0  501    0  0.00000000000E+00 -0.00000000000E+00 -0.17571767055E+03  0.17571767055E+03  0.00000000000E+00 0. -1.
         25    2    1    2    0    0  0.69255435007E+01  0.32653718403E+02 -0.88734867550E+02  0.15695703244E+03  0.12508958724E+03 0.  0.
          5    1    3    3  502    0 -0.32434840378E+02  0.65891195557E+01 -0.10234816787E+03  0.10764782967E+03  0.41800000000E+01 0. -1.
         -5    1    3    3    0  502  0.39360383878E+02  0.26064598848E+02  0.13613300320E+02  0.49309202769E+02  0.41800000000E+01 0. -1.
        -11    1    1    2    0    0  0.22522747474E+02  0.23979029186E+02 -0.96224327073E+01  0.34276219244E+02  0.00000000000E+00 0. -1.
         11    1    1    2    0    0 -0.29448290975E+02 -0.56632747590E+02  0.20186987364E+01  0.63863487890E+02  0.00000000000E+00 0.  1.
</event>
<event>
 7    1  0.2530765E-009  0.1063233E+03  0.7561462E-02  0.1267534E+00
          1   -1    0    0  501    0  0.00000000000E+00  0.00000000000E+00  0.21163043108E+03  0.21163043108E+03  0.00000000000E+00 0. -1.
         -1   -1    0    0    0  501 -0.00000000000E+00 -0.00000000000E+00 -0.58289424077E+02  0.58289424077E+02  0.00000000000E+00 0.  1.
         25    2    1    2    0    0 -0.16343866692E+02  0.46344983622E+01  0.66594081860E+02  0.14272266113E+03  0.12508551358E+03 0.  0.
          5    1    3    3  502    0 -0.52486197357E+02  0.44473531084E+02  0.20901348708E+02  0.72021070930E+02  0.41800000000E+01 0.  1.
         -5    1    3    3    0  502  0.36142330666E+02 -0.39839032721E+02  0.45692733152E+02  0.70701590201E+02  0.41800000000E+01 0.  1.
        -11    1    1    2    0    0  0.29445262428E+02  0.36329844742E+02  0.28400840829E+02  0.54712785144E+02  0.00000000000E+00 0.  1.
         11    1    1    2    0    0 -0.13101395736E+02 -0.40964343104E+02  0.58346084320E+02  0.72484408887E+02  0.00000000000E+00 0. -1.
</event>
<event>
 7    1  0.2530765E-009  0.8832010E+02  0.7561462E-02  0.1306972E+00
          2   -1    0    0  501    0  0.00000000000E+00  0.00000000000E+00  0.20529072287E+04  0.20529072287E+04  0.00000000000E+00 0. -1.
         -2   -1    0    0    0  501 -0.00000000000E+00 -0.00000000000E+00 -0.82206757754E+01  0.82206757754E+01  0.00000000000E+00 0.  1.
         25    2    1    2    0    0 -0.31843839980E+01  0.17617847984E+02  0.17056902209E+04  0.17103647213E+04  0.12509125133E+03 0.  0.
          5    1    3    3  502    0  0.30359680365E+02 -0.19813448655E+02  0.17121912425E+03  0.17506497036E+03  0.41800000000E+01 0.  1.
         -5    1    3    3    0  502 -0.33544064363E+02  0.37431296639E+02  0.15344710967E+04  0.15352997509E+04  0.41800000000E+01 0.  1.
        -11    1    1    2    0    0  0.41592370568E+02  0.95388329419E+01  0.14525703580E+03  0.15139524786E+03  0.00000000000E+00 0.  1.
         11    1    1    2    0    0 -0.38407986570E+02 -0.27156680926E+02  0.19373929615E+03  0.19936793530E+03  0.00000000000E+00 0. -1.
</event>
<event>
 7    1  0.2530765E-009  0.1196345E+03  0.7561462E-02  0.1243701E+00
         -1   -1    0    0    0  501 -0.00000000000E+00  0.00000000000E+00  0.23249305491E+02  0.23249305491E+02  0.00000000000E+00 0.  1.
          1   -1    0    0  501    0  0.00000000000E+00 -0.00000000000E+00 -0.84860242658E+03  0.84860242658E+03  0.00000000000E+00 0. -1.
         25    2    1    2    0    0  0.24174561965E+02 -0.76500813512E+02 -0.33295944658E+03  0.36462063628E+03  0.12509768751E+03 0.  0.
          5    1    3    3  502    0  0.51387917700E+02 -0.19798063947E+02 -0.26977786475E+03  0.27537292919E+03  0.41800000000E+01 0. -1.
         -5    1    3    3    0  502 -0.27213355734E+02 -0.56702749566E+02 -0.63181581830E+02  0.89247707092E+02  0.41800000000E+01 0. -1.
        -11    1    1    2    0    0 -0.58417033871E+02  0.39080118249E+02 -0.25721813712E+03  0.26664766181E+03  0.00000000000E+00 0.  1.
         11    1    1    2    0    0  0.34242471906E+02  0.37420695263E+02 -0.23517553739E+03  0.24058343397E+03  0.00000000000E+00 0. -1.
</event>
<event>
 7    1  0.2530765E-009  0.1154390E+03  0.7561462E-02  0.1250817E+00
         -2   -1    0    0    0  501 -0.00000000000E+00  0.00000000000E+00  0.43448492890E+02  0.43448492890E+02  0.00000000000E+00 0.  1.
          2   -1    0    0  501    0  0.00000000000E+00 -0.00000000000E+00 -0.39133126818E+03  0.39133126818E+03  0.00000000000E+00 0. -1.
         25    2    1    2    0    0 -0.64466521598E+01 -0.70857110226E+02 -0.18525308206E+03  0.23458052268E+03  0.12508808022E+03 0.  0.
          5    1    3    3  502    0  0.28794690585E+02  0.27067063682E+02 -0.49853175146E+02  0.63753992929E+02  0.41800000000E+01 0.  1.
         -5    1    3    3    0  502 -0.35241342744E+02 -0.97924173908E+02 -0.13539990691E+03  0.17082652975E+03  0.41800000000E+01 0.  1.
        -11    1    1    2    0    0  0.28073175225E+02  0.32479774789E+02 -0.14750228943E+03  0.15362279884E+03  0.00000000000E+00 0. -1.
         11    1    1    2    0    0 -0.21626523065E+02  0.38377335436E+02 -0.15127403798E+02  0.46576439546E+02  0.00000000000E+00 0.  1.
</event>
<event>
 7    1  0.2530765E-009  0.1343067E+03  0.7561462E-02  0.1221202E+00
         -3   -1    0    0    0  501 -0.00000000000E+00  0.00000000000E+00  0.43778885923E+02  0.43778885923E+02  0.00000000000E+00 0.  1.
          3   -1    0    0  501    0  0.00000000000E+00 -0.00000000000E+00 -0.56573432662E+03  0.56573432662E+03  0.00000000000E+00 0. -1.
         25    2    1    2    0    0  0.32412638785E+02 -0.98287266472E+02 -0.17989655419E+03  0.24232827345E+03  0.12509698638E+03 0.  0.
          5    1    3    3  502    0  0.71306378304E+02 -0.63649313014E+02 -0.63739734853E+02  0.11496112749E+03  0.41800000000E+01 0. -1.
         -5    1    3    3    0  502 -0.38893739519E+02 -0.34637953458E+02 -0.11615681933E+03  0.12736714597E+03  0.41800000000E+01 0. -1.
        -11    1    1    2    0    0  0.54458913740E+01  0.77129767616E+02 -0.13448339532E+03  0.15512718137E+03  0.00000000000E+00 0.  1.
         11    1    1    2    0    0 -0.37858530159E+02  0.21157498856E+02 -0.20757549119E+03  0.21205775771E+03  0.00000000000E+00 0. -1.
</event>
<event>
 7    1  0.2530765E-009  0.9035780E+02  0.7561462E-02  0.1301988E+00
         -1   -1    0    0    0  501 -0.00000000000E+00  0.00000000000E+00  0.57631392420E+02  0.57631392420E+02  0.00000000000E+00 0.  1.
          1   -1    0    0  501    0  0.00000000000E+00 -0.00000000000E+00 -0.33383065921E+03  0.33383065921E+03  0.00000000000E+00 0. -1.
         25    2    1    2    0    0 -0.56887610550E+02 -0.51605728356E+02 -0.93985635236E+02  0.17429694517E+03  0.12508706580E+03 0.  0.
          5    1    3    3  502    0  0.19620701838E+01 -0.66138305372E+00  0.28626876606E+02  0.29004441231E+02  0.41800000000E+01 0.  1.
         -5    1    3    3    0  502 -0.58849680733E+02 -0.50944345302E+02 -0.12261251184E+03  0.14529250394E+03  0.41800000000E+01 0.  1.
        -11    1    1    2    0    0 -0.32613988616E+01  0.35749247232E+02 -0.13325411775E+03  0.13800472926E+03  0.00000000000E+00 0. -1.
         11    1    1    2    0    0  0.60149009411E+02  0.15856481124E+02 -0.48959513804E+02  0.79160377202E+02  0.00000000000E+00 0.  1.
</event>
<event>
 7    1  0.2530765E-009  0.2446729E+03  0.7561462E-02  0.1116718E+00
          1   -1    0    0  501    0  0.00000000000E+00  0.00000000000E+00  0.39038034508E+03  0.39038034508E+03  0.00000000000E+00 0. -1.
         -1   -1    0    0    0  501 -0.00000000000E+00 -0.00000000000E+00 -0.15602986005E+03  0.15602986005E+03  0.00000000000E+00 0.  1.
         25    2    1    2    0    0  0.22082518876E+03  0.15406000630E+02  0.11358364146E+03  0.27847484332E+03  0.12508351574E+03 0.  0.
          5    1    3    3  502    0  0.18652521291E+03 -0.38205711512E+02  0.83171225090E+02  0.20781303262E+03  0.41800000000E+01 0. -1.
         -5    1    3    3    0  502  0.34299975848E+02  0.53611712142E+02  0.30412416372E+02  0.70661810701E+02  0.41800000000E+01 0. -1.
        -11    1    1    2    0    0 -0.29810750231E+02  0.26130056779E+02  0.40341906687E+02  0.56559085316E+02  0.00000000000E+00 0.  1.
         11    1    1    2    0    0 -0.19101443853E+03 -0.41536057409E+02  0.80424936884E+02  0.21137627650E+03  0.00000000000E+00 0. -1.
</event>
<event>
 7    1  0.2530765E-009  0.2041671E+03  0.7561462E-02  0.1146270E+00
         -1   -1    0    0    0  501 -0.00000000000E+00  0.00000000000E+00  0.52367862177E+02  0.52367862177E+02  0.00000000000E+00 0.  1.
          1   -1    0    0  501    0  0.00000000000E+00 -0.00000000000E+00 -0.84490236087E+03  0.84490236087E+03  0.00000000000E+00 0. -1.
         25    2    1    2    0    0 -0.95092187245E+01  0.17888932036E+03 -0.44966766626E+03  0.49994003768E+03  0.12508883649E+03 0.  0.
          5    1    3    3  502    0 -0.63595402656E+02  0.71213297846E+02 -0.16301606798E+03  0.18896407026E+03  0.41800000000E+01 0. -1.
         -5    1    3    3    0  502  0.54086183932E+02  0.10767602251E+03 -0.28665159828E+03  0.31097596742E+03  0.41800000000E+01 0. -1.
        -11    1    1    2    0    0  0.30657985335E+02 -0.34034121508E+02 -0.13896386305E+03  0.14631879143E+03  0.00000000000E+00 0. -1.
         11    1    1    2    0    0 -0.21148766611E+02 -0.14485519885E+03 -0.20390296939E+03  0.25101139395E+03  0.00000000000E+00 0.  1.
</event>
<event>
 7    1  0.2586798E-009  0.1023436E+03  0.7561462E-02  0.1275444E+00
          1   -1    0    0  501    0  0.00000000000E+00  0.00000000000E+00  0.95947693289E+03  0.95947693289E+03  0.00000000000E+00 0. -1.
         -1   -1    0    0    0  501 -0.00000000000E+00 -0.00000000000E+00 -0.13344015632E+02  0.13344015632E+02  0.00000000000E+00 0.  1.
         25    2    1    2    0    0  0.96243501154E+01 -0.35593141818E+01  0.66644356914E+03  0.67815926987E+03  0.12509063765E+03 0.  0.
          5    1    3    3  502    0 -0.13146751215E+01  0.56078583985E+02  0.19954160834E+03  0.20731826212E+03  0.41800000000E+01 0.  1.
         -5    1    3    3    0  502  0.10939025237E+02 -0.59637898167E+02  0.46690196081E+03  0.47084100775E+03  0.41800000000E+01 0.  1.
        -11    1    1    2    0    0 -0.48605587706E+02  0.17009457834E+01  0.10574556471E+03  0.11639381783E+03  0.00000000000E+00 0.  1.
         11    1    1    2    0    0  0.38981237590E+02  0.18583683984E+01  0.17394378340E+03  0.17826786082E+03  0.00000000000E+00 0. -1.
</event>
<event>
 7    1  0.2530765E-009  0.1833375E+03  0.7561462E-02  0.1164612E+00
          1   -1    0    0  501    0  0.00000000000E+00  0.00000000000E+00  0.13633054530E+03  0.13633054530E+03  0.00000000000E+00 0. -1.
         -1   -1    0    0    0  501 -0.00000000000E+00 -0.00000000000E+00 -0.31176756805E+03  0.31176756805E+03  0.00000000000E+00 0.  1.
         25    2    1    2    0    0 -0.36340162639E+02 -0.15556285416E+03 -0.14762853763E+02  0.20343364449E+03  0.12508755672E+03 0.  0.
          5    1    3    3  502    0 -0.39351931169E+02 -0.59570529754E+01 -0.33994738439E+02  0.52508814578E+02  0.41800000000E+01 0.  1.
         -5    1    3    3    0  502  0.30117685294E+01 -0.14960580118E+03  0.19231884675E+02  0.15092482992E+03  0.41800000000E+01 0.  1.
        -11    1    1    2    0    0  0.60180741164E+02  0.10407819910E+03 -0.74327428856E+02  0.14134553341E+03  0.00000000000E+00 0. -1.
         11    1    1    2    0    0 -0.23840578525E+02  0.51484655058E+02 -0.86346740133E+02  0.10331893545E+03  0.00000000000E+00 0.  1.
</event>
<event>
 7    1  0.2530765E-009  0.1040697E+03  0.7561462E-02  0.1271963E+00
          1   -1    0    0  501    0  0.00000000000E+00  0.00000000000E+00  0.12233144075E+03  0.12233144075E+03  0.00000000000E+00 0. -1.
         -1   -1    0    0    0  501 -0.00000000000E+00 -0.00000000000E+00 -0.29608267638E+03  0.29608267638E+03  0.00000000000E+00 0.  1.
         25    2    1    2    0    0  0.30018638021E+02 -0.73158012492E+01  0.76624009246E+02  0.14991262639E+03  0.12509163514E+03 0.  0.
          5    1    3    3  502    0  0.10823441591E+02  0.50170280337E+02  0.72628415148E+02  0.89031247345E+02  0.41800000000E+01 0. -1.
         -5    1    3    3    0  502  0.19195196430E+02 -0.57486081586E+02  0.39955940979E+01  0.60881379044E+02  0.41800000000E+01 0. -1.
        -11    1    1    2    0    0  0.30637871975E+02  0.16091844600E+02 -0.11039349816E+03  0.11569075632E+03  0.00000000000E+00 0. -1.
         11    1    1    2    0    0 -0.60656509996E+02 -0.87760433505E+01 -0.13998174671E+03  0.15281073442E+03  0.00000000000E+00 0.  1.
</event>
<event>
 7    1  0.2530765E-009  0.1749615E+03  0.7561462E-02  0.1172770E+00
         -1   -1    0    0    0  501 -0.00000000000E+00  0.00000000000E+00  0.32122899777E+02  0.32122899777E+02  0.00000000000E+00 0.  1.
          1   -1    0    0  501    0  0.00000000000E+00 -0.00000000000E+00 -0.15095082199E+04  0.15095082199E+04  0.00000000000E+00 0. -1.
         25    2    1    2    0    0  0.15007182545E+03 -0.45197924360E+02 -0.11465107511E+04  0.11639153245E+04  0.12509026773E+03 0.  0.
          5    1    3    3  502    0  0.80678828783E+00  0.10615091692E+02 -0.41846528703E+03  0.41862154738E+03  0.41800000000E+01 0. -1.
         -5    1    3    3    0  502  0.14926503717E+03 -0.55813016052E+02 -0.72804546403E+03  0.74529377710E+03  0.41800000000E+01 0. -1.
        -11    1    1    2    0    0 -0.93057025612E+02 -0.17108814971E+02 -0.20920955499E+03  0.22961045156E+03  0.00000000000E+00 0.  1.
         11    1    1    2    0    0 -0.57014799842E+02  0.62306739331E+02 -0.12166501406E+03  0.14810534363E+03  0.00000000000E+00 0. -1.
</event>
<event>
 7    1  0.2530765E-009  0.8646994E+02  0.7561462E-02  0.1311633E+00
          1   -1    0    0  501    0  0.00000000000E+00  0.00000000000E+00  0.21973807288E+03  0.21973807288E+03  0.00000000000E+00 0. -1.
         -1   -1    0    0    0  501 -0.00000000000E+00 -0.00000000000E+00 -0.56404005698E+02  0.56404005698E+02  0.00000000000E+00 0.  1.
         25    2    1    2    0    0 -0.11500403896E+02 -0.12393551139E+02  0.68392652463E+02  0.14356579490E+03  0.12509085960E+03 0.  0.
          5    1    3    3  502    0 -0.57464127120E+02  0.10349927748E+01 -0.27684053144E+01  0.57691711568E+02  0.41800000000E+01 0.  1.
         -5    1    3    3    0  502  0.45963723224E+02 -0.13428543914E+02  0.71161057777E+02  0.85874083333E+02  0.41800000000E+01 0.  1.
        -11    1    1    2    0    0 -0.17395776328E+02  0.29075087211E+02  0.93197377641E+02  0.99165139689E+02  0.00000000000E+00 0. -1.
         11    1    1    2    0    0  0.28896180224E+02 -0.16681536072E+02  0.17440370775E+01  0.33411143988E+02  0.00000000000E+00 0.  1.
</event>
<event>
 7    1  0.2530765E-009  0.2275814E+03  0.7561462E-02  0.1128354E+00
         -1   -1    0    0    0  501 -0.00000000000E+00  0.00000000000E+00  0.51155245915E+03  0.51155245915E+03  0.00000000000E+00 0.  1.
          1   -1    0    0  501    0  0.00000000000E+00 -0.00000000000E+00 -0.11405722749E+03  0.11405722749E+03  0.00000000000E+00 0. -1.
         25    2    1    2    0    0 -0.21214824086E+03 -0.37501298918E+02  0.19791575862E+03  0.31817015165E+03  0.12509346254E+03 0.  0.
          5    1    3    3  502    0  0.11038648038E+02 -0.46390313652E+00 -0.62808103424E+01  0.13378637269E+02  0.41800000000E+01 0.  1.
         -5    1    3    3    0  502 -0.22318688890E+03 -0.37037395781E+02  0.20419656896E+03  0.30479151438E+03  0.41800000000E+01 0.  1.
        -11    1    1    2    0    0  0.89505675861E+02  0.29203077498E+02  0.31647275628E+02  0.99325907000E+02  0.00000000000E+00 0. -1.
         11    1    1    2    0    0  0.12264256500E+03  0.82982214196E+01  0.16793219742E+03  0.20811362800E+03  0.00000000000E+00 0.  1.
</event>
<event>
 7    1  0.2530765E-009  0.1003928E+03  0.7561462E-02  0.1279472E+00
          1   -1    0    0  501    0  0.00000000000E+00  0.00000000000E+00  0.73968026516E+02  0.73968026516E+02  0.00000000000E+00 0. -1.
         -1   -1    0    0    0  501 -0.00000000000E+00 -0.00000000000E+00 -0.20416995763E+03  0.20416995763E+03  0.00000000000E+00 0.  1.
         25    2    1    2    0    0  0.24246668206E+02  0.52148252584E+02 -0.83333184338E+02  0.16093266618E+03  0.12509021650E+03 0.  0.
          5    1    3    3  502    0 -0.33843090442E+02  0.68901739094E+02 -0.42315495693E+02  0.87754646581E+02  0.41800000000E+01 0.  1.
         -5    1    3    3    0  502  0.58089758648E+02 -0.16753486510E+02 -0.41017688645E+02  0.73178019594E+02  0.41800000000E+01 0.  1.
        -11    1    1    2    0    0 -0.28675758627E+02 -0.33306243603E+02 -0.72684696982E+02  0.84939214566E+02  0.00000000000E+00 0.  1.
         11    1    1    2    0    0  0.44290904212E+01 -0.18842008981E+02  0.25815950201E+02  0.32266103409E+02  0.00000000000E+00 0. -1.
</event>
<event>
 7    1  0.2530765E-009  0.1862576E+03  0.7561462E-02  0.1161881E+00
          2   -1    0    0  501    0  0.00000000000E+00  0.00000000000E+00  0.18645698243E+04  0.18645698243E+04  0.00000000000E+00 0. -1.
         -2   -1    0    0    0  501 -0.00000000000E+00 -0.00000000000E+00 -0.23348686902E+02  0.23348686902E+02  0.00000000000E+00 0.  1.
         25    2    1    2    0    0 -0.11194411815E+03 -0.12624259120E+03  0.12220927530E+04  0.12400108898E+04  0.12509049640E+03 0.  0.
          5    1    3    3  502    0 -0.11839985195E+03 -0.94093269660E+02  0.11585236137E+04  0.11683606054E+04  0.41800000000E+01 0. -1.
         -5    1    3    3    0  502  0.64557338037E+01 -0.32149321538E+02  0.63569139339E+02  0.71650284372E+02  0.41800000000E+01 0. -1.
        -11    1    1    2    0    0  0.11743780745E+03  0.81168821253E+02  0.51254649217E+03  0.53205631544E+03  0.00000000000E+00 0. -1.
         11    1    1    2    0    0 -0.54936893053E+01  0.45073769945E+02  0.10658189223E+03  0.11585130604E+03  0.00000000000E+00 0.  1.
</event>
<event>
 7    1  0.2530765E-009  0.2309266E+03  0.7561462E-02  0.1125989E+00
          1   -1    0    0  501    0  0.00000000000E+00  0.00000000000E+00  0.13704578692E+04  0.13704578692E+04  0.00000000000E+00 0. -1.
         -1   -1    0    0    0  501 -0.00000000000E+00 -0.00000000000E+00 -0.45407273689E+02  0.45407273689E+02  0.00000000000E+00 0.  1.
         25    2    1    2    0    0  0.20614380926E+03 -0.70192818670E+02  0.53765876500E+03  0.59341952371E+03  0.12508989427E+03 0.  0.
          5    1    3    3  502    0  0.20871761480E+03 -0.58766329978E+02  0.53891885040E+03  0.58091955035E+03  0.41800000000E+01 0.  1.
         -5    1    3    3    0  502 -0.25738055369E+01 -0.11426488692E+02 -0.12600853972E+01  0.12499973359E+02  0.41800000000E+01 0.  1.
        -11    1    1    2    0    0 -0.11862573092E+03 -0.26834368123E+01  0.48541115287E+03  0.49970316409E+03  0.00000000000E+00 0. -1.
         11    1    1    2    0    0 -0.87518078341E+02  0.72876255482E+02  0.30198067765E+03  0.32274245510E+03  0.00000000000E+00 0.  1.
</event>
<event>
 7    1  0.2530765E-009  0.1657680E+03  0.7561462E-02  0.1182334E+00
          2   -1    0    0  501    0  0.00000000000E+00  0.00000000000E+00  0.40594111312E+03  0.40594111312E+03  0.00000000000E+00 0. -1.
         -2   -1    0    0    0  501 -0.00000000000E+00 -0.00000000000E+00 -0.77570242939E+02  0.77570242939E+02  0.00000000000E+00 0.  1.
         25    2    1    2    0    0 -0.89906499433E+02 -0.10850507165E+03  0.17258539778E+03  0.25551865477E+03  0.12509010430E+03 0.  0.
          5    1    3    3  502    0 -0.46361833439E+02  0.17963055259E+02  0.23403841776E+02  0.55111733450E+02  0.41800000000E+01 0. -1.
         -5    1    3    3    0  502 -0.43544665994E+02 -0.12646812691E+03  0.14918155600E+03  0.20040692132E+03  0.41800000000E+01 0. -1.
        -11    1    1    2    0    0  0.43154733448E+02  0.85370290782E+02  0.45361622218E+02  0.10586828769E+03  0.00000000000E+00 0.  1.
         11    1    1    2    0    0  0.46751765985E+02  0.23134780871E+02  0.11042385018E+03  0.12212441360E+03  0.00000000000E+00 0. -1.
</event>
<event>
 7    1  0.2530765E-009  0.9185403E+02  0.7561462E-02  0.1298423E+00
         -1   -1    0    0    0  501 -0.00000000000E+00  0.00000000000E+00  0.74974808150E+02  0.74974808150E+02  0.00000000000E+00 0.  1.
          1   -1    0    0  501    0  0.00000000000E+00 -0.00000000000E+00 -0.12688890382E+03  0.12688890382E+03  0.00000000000E+00 0. -1.
         25    2    1    2    0    0 -0.47472418541E+01 -0.31601974275E+02 -0.39795843196E+02  0.13510144909E+03  0.12508985302E+03 0.  0.
          5    1    3    3  502    0 -0.41838079485E+02 -0.58646039107E+02  0.29730040018E+01  0.72222530769E+02  0.41800000000E+01 0.  1.
         -5    1    3    3    0  502  0.37090837631E+02  0.27044064832E+02 -0.42768847198E+02  0.62878918323E+02  0.41800000000E+01 0.  1.
        -11    1    1    2    0    0  0.27383725935E+02  0.32869388217E+02 -0.10386002898E+02  0.44024245411E+02  0.00000000000E+00 0.  1.
         11    1    1    2    0    0 -0.22636484081E+02 -0.12674139423E+01 -0.17322495735E+01  0.22738017465E+02  0.00000000000E+00 0. -1.
</event>
<event>
 7    1  0.2530765E-009  0.1037113E+03  0.7561462E-02  0.1272680E+00
         -1   -1    0    0    0  501 -0.00000000000E+00  0.00000000000E+00  0.46289975754E+03  0.46289975754E+03  0.00000000000E+00 0.  1.
          1   -1    0    0  501    0  0.00000000000E+00 -0.00000000000E+00 -0.41747822252E+02  0.41747822252E+02  0.00000000000E+00 0. -1.
         25    2    1    2    0    0  0.70985066592E+02 -0.11815724074E+02  0.31387252706E+03  0.34546056090E+03  0.12509414406E+03 0.  0.
          5    1    3    3  502    0  0.61988912841E+02  0.44837493875E+02  0.11307776492E+03  0.13659092024E+03  0.41800000000E+01 0. -1.
         -5    1    3    3    0  502  0.89961537509E+01 -0.56653217949E+02  0.20079476214E+03  0.20886964066E+03  0.41800000000E+01 0. -1.
        -11    1    1    2    0    0 -0.23042559696E+02 -0.26906011799E+01  0.10659806302E+03  0.10909329004E+03  0.00000000000E+00 0.  1.
         11    1    1    2    0    0 -0.47942506896E+02  0.14506325253E+02  0.68134521333E+00  0.50093728860E+02  0.00000000000E+00 0. -1.
</event>
<event>
 7    1  0.2530765E-009  0.1145221E+03  0.7561462E-02  0.1252418E+00
          1   -1    0    0  501    0  0.00000000000E+00  0.00000000000E+00  0.44150836039E+02  0.44150836039E+02  0.00000000000E+00 0. -1.
         -1   -1    0    0    0  501 -0.00000000000E+00 -0.00000000000E+00 -0.63094412068E+03  0.63094412068E+03  0.00000000000E+00 0.  1.
         25    2    1    2    0    0 -0.67606685902E+02 -0.87941421877E+02 -0.43459221884E+03  0.46564217689E+03  0.12509149676E+03 0.  0.
          5    1    3    3  502    0 -0.66503104778E+02 -0.64812907993E+02 -0.43209526739E+03  0.44198095942E+03  0.41800000000E+01 0. -1.
         -5    1    3    3    0  502 -0.11035811244E+01 -0.23128513884E+02 -0.24969514531E+01  0.23661217474E+02  0.41800000000E+01 0. -1.
        -11    1    1    2    0    0  0.58237281013E+02  0.62405093585E+02 -0.15983637654E+03  0.18120056256E+03  0.00000000000E+00 0.  1.
         11    1    1    2    0    0  0.93694048887E+01  0.25536328292E+02  0.76353107419E+01  0.28252217271E+02  0.00000000000E+00 0. -1.
</event>
<event>
 7    1  0.2530765E-009  0.9214595E+02  0.7561462E-02  0.1297737E+00
          2   -1    0    0  501    0  0.00000000000E+00  0.00000000000E+00  0.39503054461E+03  0.39503054461E+03  0.00000000000E+00 0.  1.
         -2   -1    0    0    0  501 -0.00000000000E+00 -0.00000000000E+00 -0.33976492923E+02  0.33976492923E+02  0.00000000000E+00 0. -1.
         25    2    1    2    0    0  0.11024732481E+02 -0.31569548396E+02  0.16737495035E+03  0.21161248066E+03  0.12508911566E+03 0.  0.
          5    1    3    3  502    0 -0.36221362441E+02  0.74336095945E+01  0.13913000328E+03  0.14402040085E+03  0.41800000000E+01 0.  1.
         -5    1    3    3    0  502  0.47246094923E+02 -0.39003157990E+02  0.28244947073E+02  0.67592079816E+02  0.41800000000E+01 0.  1.
        -11    1    1    2    0    0  0.93938693904E+01  0.54306375708E+02  0.65398640896E+02  0.85524320843E+02  0.00000000000E+00 0. -1.
         11    1    1    2    0    0 -0.20418601872E+02 -0.22736827312E+02  0.12828046044E+03  0.13187023603E+03  0.00000000000E+00 0.  1.
</event>
<event>
 7    1  0.2530765E-009  0.1148609E+03  0.7561462E-02  0.1251824E+00
         -2   -1    0    0    0  501 -0.00000000000E+00  0.00000000000E+00  0.75412275454E+02  0.75412275454E+02  0.00000000000E+00 0.  1.
          2   -1    0    0  501    0  0.00000000000E+00 -0.00000000000E+00 -0.31801218305E+03  0.31801218305E+03  0.00000000000E+00 0. -1.
         25    2    1    2    0    0  0.10798420540E+03 -0.21786526534E+02 -0.11784331903E+03  0.20413141601E+03  0.12508935129E+03 0.  0.
          5    1    3    3  502    0  0.72156225292E+01 -0.62594729851E+01 -0.99996997150E+02  0.10053913690E+03  0.41800000000E+01 0. -1.
         -5    1    3    3    0  502  0.10076858287E+03 -0.15527053549E+02 -0.17846321885E+02  0.10359227911E+03  0.41800000000E+01 0. -1.
        -11    1    1    2    0    0 -0.93981392092E+02  0.32723266902E+01 -0.13450308221E+03  0.16411669417E+03  0.00000000000E+00 0. -1.
         11    1    1    2    0    0 -0.14002813307E+02  0.18514199844E+02  0.97464936487E+01  0.25176348322E+02  0.00000000000E+00 0.  1.
</event>
<event>
 7    1  0.2530765E-009  0.1214473E+03  0.7561462E-02  0.1240728E+00
         -2   -1    0    0    0  501 -0.00000000000E+00  0.00000000000E+00  0.14557327684E+02  0.14557327684E+02  0.00000000000E+00 0.  1.
          2   -1    0    0  501    0  0.00000000000E+00 -0.00000000000E+00 -0.12718069724E+04  0.12718069724E+04  0.00000000000E+00 0. -1.
         25    2    1    2    0    0  0.27855660241E+02  0.67294178352E+02 -0.87050305527E+03  0.88245554860E+03  0.12509109390E+03 0.  0.
          5    1    3    3  502    0 -0.46509244613E+02  0.13210185010E+02 -0.20785933521E+03  0.21344927842E+03  0.41800000000E+01 0.  1.
         -5    1    3    3    0  502  0.74364904854E+02  0.54083993342E+02 -0.66264372005E+03  0.66900627018E+03  0.41800000000E+01 0.  1.
        -11    1    1    2    0    0 -0.81931088899E+01  0.15332403469E+02 -0.16232642970E+02  0.23784623756E+02  0.00000000000E+00 0.  1.
         11    1    1    2    0    0 -0.19662551351E+02 -0.82626581821E+02 -0.37051394651E+03  0.38012412776E+03  0.00000000000E+00 0. -1.
</event>
<event>
 7    1  0.2530765E-009  0.4450107E+03  0.7561462E-02  0.1029220E+00
          1   -1    0    0  501    0  0.00000000000E+00  0.00000000000E+00  0.23003755484E+04  0.23003755484E+04  0.00000000000E+00 0. -1.
         -1   -1    0    0    0  501 -0.00000000000E+00 -0.00000000000E+00 -0.10851893064E+03  0.10851893064E+03  0.00000000000E+00 0.  1.
         25    2    1    2    0    0  0.43975804696E+03  0.36681760873E+02  0.16037277537E+04  0.16680293473E+04  0.12508598625E+03 0.  0.
          5    1    3    3  502    0  0.21818330513E+03 -0.15861362577E+02  0.59623716728E+03  0.63511555603E+03  0.41800000000E+01 0.  1.
         -5    1    3    3    0  502  0.22157474182E+03  0.52543123450E+02  0.10074905864E+04  0.10329137913E+04  0.41800000000E+01 0.  1.
        -11    1    1    2    0    0 -0.25314821773E+03 -0.42867986985E+02  0.27446788262E+03  0.37583813409E+03  0.00000000000E+00 0. -1.
         11    1    1    2    0    0 -0.18660982923E+03  0.61862261119E+01  0.31366098147E+03  0.36502699771E+03  0.00000000000E+00 0.  1.
</event>
<event>
 7    1  0.2530765E-009  0.4212684E+03  0.7561462E-02  0.1036654E+00
          1   -1    0    0  501    0  0.00000000000E+00  0.00000000000E+00  0.43412503053E+03  0.43412503053E+03  0.00000000000E+00 0. -1.
         -1   -1    0    0    0  501 -0.00000000000E+00 -0.00000000000E+00 -0.45177555243E+03  0.45177555243E+03  0.00000000000E+00 0.  1.
         25    2    1    2    0    0  0.40367851770E+03  0.87536679937E+02 -0.12488859568E+03  0.44929222664E+03  0.12508927853E+03 0.  0.
          5    1    3    3  502    0  0.11210390958E+02  0.29776058005E+02  0.35873622556E+01  0.32289751682E+02  0.41800000000E+01 0. -1.
         -5    1    3    3    0  502  0.39246812674E+03  0.57760621932E+02 -0.12847595794E+03  0.41700247496E+03  0.41800000000E+01 0. -1.
        -11    1    1    2    0    0 -0.18216190347E+03 -0.27545059544E+02  0.93754404368E+02  0.20671617673E+03  0.00000000000E+00 0.  1.
         11    1    1    2    0    0 -0.22151661423E+03 -0.59991620393E+02  0.13483669413E+02  0.22989217959E+03  0.00000000000E+00 0. -1.
</event>
<event>
 7    1  0.2530765E-009  0.7141201E+02  0.7561462E-02  0.1355356E+00
         -2   -1    0    0    0  501 -0.00000000000E+00  0.00000000000E+00  0.11794100119E+02  0.11794100119E+02  0.00000000000E+00 0. -1.
          2   -1    0    0  501    0  0.00000000000E+00 -0.00000000000E+00 -0.12752512938E+04  0.12752512938E+04  0.00000000000E+00 0.  1.
         25    2    1    2    0    0  0.78213685297E+01  0.13599169186E+02 -0.97927265171E+03  0.98735415853E+03  0.12508875553E+03 0.  0.
          5    1    3    3  502    0  0.17412768898E+02 -0.10947142069E+02 -0.93782717553E+03  0.93806200648E+03  0.41800000000E+01 0.  1.
         -5    1    3    3    0  502 -0.95914003678E+01  0.24546311256E+02 -0.41445476180E+02  0.49292152043E+02  0.41800000000E+01 0.  1.
        -11    1    1    2    0    0 -0.49555847586E+02 -0.18992935142E+02 -0.15852802389E+03  0.16717550052E+03  0.00000000000E+00 0. -1.
         11    1    1    2    0    0  0.41734479056E+02  0.53937659559E+01 -0.12565651805E+03  0.13251573484E+03  0.00000000000E+00 0.  1.
</event>
<event>
 7    1  0.2530765E-009  0.1210625E+03  0.7561462E-02  0.1241354E+00
          1   -1    0    0  501    0  0.00000000000E+00  0.00000000000E+00  0.11803276791E+03  0.11803276791E+03  0.00000000000E+00 0. -1.
         -1   -1    0    0    0  501 -0.00000000000E+00 -0.00000000000E+00 -0.15376569894E+03  0.15376569894E+03  0.00000000000E+00 0.  1.
         25    2    1    2    0    0  0.42009329816E+02 -0.62760577372E+02 -0.41736125876E+02  0.15197423422E+03  0.12510231732E+03 0.  0.
          5    1    3    3  502    0  0.40742800202E+02  0.15851864187E+02  0.23424575999E+02  0.49773894033E+02  0.41800000000E+01 0.  1.
         -5    1    3    3    0  502  0.12665296148E+01 -0.78612441559E+02 -0.65160701875E+02  0.10220034019E+03  0.41800000000E+01 0.  1.
        -11    1    1    2    0    0 -0.71735225925E+02  0.47740181855E+02  0.12217846477E+01  0.86177493348E+02  0.00000000000E+00 0.  1.
         11    1    1    2    0    0  0.29725896108E+02  0.15020395517E+02  0.47814101907E+01  0.33646739283E+02  0.00000000000E+00 0. -1.
</event>
<event>
 7    1  0.2530765E-009  0.2684052E+03  0.7561462E-02  0.1102196E+00
         -1   -1    0    0    0  501 -0.00000000000E+00  0.00000000000E+00  0.17469154576E+03  0.17469154576E+03  0.00000000000E+00 0.  1.
          1   -1    0    0  501    0  0.00000000000E+00 -0.00000000000E+00 -0.44563283255E+03  0.44563283255E+03  0.00000000000E+00 0. -1.
         25    2    1    2    0    0  0.21200975397E+03 -0.13331601975E+03 -0.75661878945E+02  0.28999081712E+03  0.12509459296E+03 0.  0.
          5    1    3    3  502    0  0.74930476382E+02  0.12235318595E+02 -0.43010566231E+02  0.87359375682E+02  0.41800000000E+01 0. -1.
         -5    1    3    3    0  502  0.13707927759E+03 -0.14555133834E+03 -0.32651312715E+02  0.20263144144E+03  0.41800000000E+01 0. -1.
        -11    1    1    2    0    0 -0.16428511158E+03  0.13558704537E+03 -0.13038348819E+03  0.24974646895E+03  0.00000000000E+00 0.  1.
         11    1    1    2    0    0 -0.47724642386E+02 -0.22710256233E+01 -0.64895919657E+02  0.80587092244E+02  0.00000000000E+00 0. -1.
</event>
<event>
 7    1  0.2530765E-009  0.1273981E+03  0.7561462E-02  0.1231368E+00
         -2   -1    0    0    0  501 -0.00000000000E+00  0.00000000000E+00  0.39905636352E+03  0.39905636352E+03  0.00000000000E+00 0.  1.
          2   -1    0    0  501    0  0.00000000000E+00 -0.00000000000E+00 -0.61353161260E+02  0.61353161260E+02  0.00000000000E+00 0. -1.
         25    2    1    2    0    0  0.85345643137E+02 -0.38168371267E+02  0.27307825604E+03  0.31457910699E+03  0.12509027647E+03 0.  0.
          5    1    3    3  502    0  0.65537921481E+02 -0.70916382077E+02  0.25367872168E+03  0.27146771195E+03  0.41800000000E+01 0.  1.
         -5    1    3    3    0  502  0.19807721656E+02  0.32748010810E+02  0.19399534361E+02  0.43111395044E+02  0.41800000000E+01 0.  1.
        -11    1    1    2    0    0 -0.90730048541E+02  0.52157523033E+02  0.73979559789E+02  0.12816132093E+03  0.00000000000E+00 0.  1.
         11    1    1    2    0    0  0.53844054040E+01 -0.13989151766E+02 -0.93546135652E+01  0.17669096854E+02  0.00000000000E+00 0. -1.
</event>
<event>
 7    1  0.2530765E-009  0.1254183E+03  0.7561462E-02  0.1234417E+00
         -2   -1    0    0    0  501 -0.00000000000E+00  0.00000000000E+00  0.36241579992E+02  0.36241579992E+02  0.00000000000E+00 0. -1.
          2   -1    0    0  501    0  0.00000000000E+00 -0.00000000000E+00 -0.56020704615E+03  0.56020704615E+03  0.00000000000E+00 0.  1.
         25    2    1    2    0    0 -0.88465364857E+02  0.94640367984E+01 -0.24753030699E+03  0.29126156729E+03  0.12508540653E+03 0.  0.
          5    1    3    3  502    0 -0.63453757218E+00  0.36851487227E+02 -0.13014246756E+02  0.39310021208E+02  0.41800000000E+01 0. -1.
         -5    1    3    3    0  502 -0.87830827284E+02 -0.27387450429E+02 -0.23451606024E+03  0.25195154608E+03  0.41800000000E+01 0. -1.
        -11    1    1    2    0    0  0.15178157220E+02 -0.39597100014E+02 -0.15080892338E+03  0.15665771018E+03  0.00000000000E+00 0.  1.
         11    1    1    2    0    0  0.73287207636E+02  0.30133063215E+02 -0.12562623578E+03  0.14852934868E+03  0.00000000000E+00 0. -1.
</event>
<event>
 7    1  0.2530765E-009  0.1127302E+03  0.7561462E-02  0.1255596E+00
          3   -1    0    0  501    0  0.00000000000E+00  0.00000000000E+00  0.90806318506E+03  0.90806318506E+03  0.00000000000E+00 0. -1.
         -3   -1    0    0    0  501 -0.00000000000E+00 -0.00000000000E+00 -0.16846897862E+02  0.16846897862E+02  0.00000000000E+00 0.  1.
         25    2    1    2    0    0  0.37708290817E+02 -0.14550895830E+02  0.40080350718E+03  0.42181079048E+03  0.12508895966E+03 0.  0.
          5    1    3    3  502    0 -0.88140728521E+01 -0.55051865946E+02  0.28605537141E+03  0.29146791202E+03  0.41800000000E+01 0.  1.
         -5    1    3    3    0  502  0.46522363669E+02  0.40500970117E+02  0.11474813578E+03  0.13034287846E+03  0.41800000000E+01 0.  1.
        -11    1    1    2    0    0 -0.37402906786E+02 -0.39080665213E+02  0.31699385038E+03  0.32157639374E+03  0.00000000000E+00 0. -1.
         11    1    1    2    0    0 -0.30538403129E+00  0.53631561043E+02  0.17341892963E+03  0.18152289871E+03  0.00000000000E+00 0.  1.
</event>
<event>
 7    1  0.2530765E-009  0.1252573E+03  0.7561462E-02  0.1234668E+00
         -2   -1    0    0    0  501 -0.00000000000E+00  0.00000000000E+00  0.21114685575E+02  0.21114685575E+02  0.00000000000E+00 0.  1.
          2   -1    0    0  501    0  0.00000000000E+00 -0.00000000000E+00 -0.21889399096E+04  0.21889399096E+04  0.00000000000E+00 0. -1.
         25    2    1    2    0    0  0.27732712554E+02 -0.65969931627E+02 -0.19955356217E+04  0.20007316919E+04  0.12507497848E+03 0.  0.
          5    1    3    3  502    0  0.54062795095E+02  0.91769269328E+01 -0.11871579941E+04  0.11884311411E+04  0.41800000000E+01 0.  1.
         -5    1    3    3    0  502 -0.26330082541E+02 -0.75146858560E+02 -0.80837762767E+03  0.81230055086E+03  0.41800000000E+01 0.  1.
        -11    1    1    2    0    0 -0.61241758738E+02  0.47635176396E+02 -0.13633445319E+03  0.15686537594E+03  0.00000000000E+00 0. -1.
         11    1    1    2    0    0  0.33509046184E+02  0.18334755231E+02 -0.35955149148E+02  0.52457527351E+02  0.00000000000E+00 0.  1.
</event>
<event>
 7    1  0.2530765E-009  0.1141540E+03  0.7561462E-02  0.1253065E+00
          3   -1    0    0  501    0  0.00000000000E+00  0.00000000000E+00  0.25817089485E+02  0.25817089485E+02  0.00000000000E+00 0. -1.
         -3   -1    0    0    0  501 -0.00000000000E+00 -0.00000000000E+00 -0.74666193708E+03  0.74666193708E+03  0.00000000000E+00 0.  1.
         25    2    1    2    0    0  0.29550080470E+02  0.56578876419E+02 -0.56404080688E+03  0.58125960863E+03  0.12508526809E+03 0.  0.
          5    1    3    3  502    0  0.16595039873E+02 -0.31585557300E+02 -0.64622690504E+02  0.73936508616E+02  0.41800000000E+01 0. -1.
         -5    1    3    3    0  502  0.12955040597E+02  0.88164433719E+02 -0.49941811637E+03  0.50732310002E+03  0.41800000000E+01 0. -1.
        -11    1    1    2    0    0  0.26953255371E+02 -0.31211007079E+02 -0.95734677993E+02  0.10423882918E+03  0.00000000000E+00 0.  1.
         11    1    1    2    0    0 -0.56503335841E+02 -0.25367869340E+02 -0.61069362721E+02  0.86980588749E+02  0.00000000000E+00 0. -1.
</event>
<event>
 7    1  0.2530765E-009  0.1043747E+03  0.7561462E-02  0.1271356E+00
          1   -1    0    0  501    0  0.00000000000E+00  0.00000000000E+00  0.24330895366E+03  0.24330895366E+03  0.00000000000E+00 0. -1.
         -1   -1    0    0    0  501 -0.00000000000E+00 -0.00000000000E+00 -0.55495638272E+02  0.55495638272E+02  0.00000000000E+00 0.  1.
         25    2    1    2    0    0 -0.18544165703E+02 -0.32491834701E+02  0.13615945887E+03  0.18864053057E+03  0.12508495564E+03 0.  0.
          5    1    3    3  502    0  0.47123771580E+02  0.13777576621E+02  0.62340694958E+02  0.79462608271E+02  0.41800000000E+01 0. -1.
         -5    1    3    3    0  502 -0.65667937283E+02 -0.46269411321E+02  0.73818763913E+02  0.10917792229E+03  0.41800000000E+01 0. -1.
        -11    1    1    2    0    0 -0.39514696799E+01  0.50231388155E+02 -0.80408943488E+00  0.50392985905E+02  0.00000000000E+00 0.  1.
         11    1    1    2    0    0  0.22495635383E+02 -0.17739553455E+02  0.52457945952E+02  0.59771075459E+02  0.00000000000E+00 0. -1.
</event>
<event>
 7    1  0.2530765E-009  0.2775417E+03  0.7561462E-02  0.1097039E+00
         -3   -1    0    0    0  501 -0.00000000000E+00  0.00000000000E+00  0.57517346857E+03  0.57517346857E+03  0.00000000000E+00 0.  1.
          3   -1    0    0  501    0  0.00000000000E+00 -0.00000000000E+00 -0.15969395536E+03  0.15969395536E+03  0.00000000000E+00 0. -1.
         25    2    1    2    0    0  0.80897148753E+02  0.25326896113E+03  0.32453195994E+03  0.43778746195E+03  0.12508938193E+03 0.  0.
          5    1    3    3  502    0 -0.22060372819E+02  0.11179737135E+02  0.83114066460E+01  0.26423445115E+02  0.41800000000E+01 0.  1.
         -5    1    3    3    0  502  0.10295752157E+03  0.24208922400E+03  0.31622055329E+03  0.41136401684E+03  0.41800000000E+01 0.  1.
        -11    1    1    2    0    0 -0.19407570006E+02 -0.33809448986E+02  0.53370470990E+02  0.66091904103E+02  0.00000000000E+00 0. -1.
         11    1    1    2    0    0 -0.61489578747E+02 -0.21945951215E+03  0.37577082283E+02  0.23098805787E+03  0.00000000000E+00 0.  1.
</event>
<event>
 7    1  0.2530765E-009  0.1460209E+03  0.7561462E-02  0.1205450E+00
          1   -1    0    0  501    0  0.00000000000E+00  0.00000000000E+00  0.41643640589E+03  0.41643640589E+03  0.00000000000E+00 0. -1.
         -1   -1    0    0    0  501 -0.00000000000E+00 -0.00000000000E+00 -0.77335597059E+02  0.77335597059E+02  0.00000000000E+00 0.  1.
         25    2    1    2    0    0 -0.97658197666E+02  0.62401846123E+02  0.29450028293E+03  0.34030835509E+03  0.12509294915E+03 0.  0.
          5    1    3    3  502    0 -0.97820928329E+02  0.93943843531E+02  0.26063320008E+03  0.29383927093E+03  0.41800000000E+01 0. -1.
         -5    1    3    3    0  502  0.16273066279E+00 -0.31541997409E+02  0.33867082844E+02  0.46469084155E+02  0.41800000000E+01 0. -1.
        -11    1    1    2    0    0 -0.18041270547E+01 -0.13644194457E+02 -0.20715223993E+02  0.24870452788E+02  0.00000000000E+00 0.  1.
         11    1    1    2    0    0  0.99462324721E+02 -0.48757651666E+02  0.65315749897E+02  0.12859319507E+03  0.00000000000E+00 0. -1.
</event>
<event>
 7    1  0.2530765E-009  0.9722649E+02  0.7561462E-02  0.1286239E+00
         -4   -1    0    0    0  501 -0.00000000000E+00  0.00000000000E+00  0.90654524844E+02  0.90654524844E+02  0.00000000000E+00 0.  1.
          4   -1    0    0  501    0  0.00000000000E+00 -0.00000000000E+00 -0.13361319322E+03  0.13361319322E+03  0.00000000000E+00 0. -1.
         25    2    1    2    0    0  0.12564839019E+02  0.19082163533E+02 -0.27273873651E+02  0.13005056864E+03  0.12508909654E+03 0.  0.
          5    1    3    3  502    0 -0.44106610127E+02 -0.21046130643E+02  0.11541412591E+02  0.50388582799E+02  0.41800000000E+01 0. -1.
         -5    1    3    3    0  502  0.56671449145E+02  0.40128294176E+02 -0.38815286242E+02  0.79661985838E+02  0.41800000000E+01 0. -1.
        -11    1    1    2    0    0 -0.37574206809E+02 -0.30452836965E+02 -0.35794992219E+02  0.60170406053E+02  0.00000000000E+00 0. -1.
         11    1    1    2    0    0  0.25009367791E+02  0.11370673433E+02  0.20110197489E+02  0.34046743378E+02  0.00000000000E+00 0.  1.
</event>
<event>
 7    1  0.2530765E-009  0.9451219E+02  0.7561462E-02  0.1292279E+00
          2   -1    0    0  501    0  0.00000000000E+00  0.00000000000E+00  0.12858371817E+04  0.12858371817E+04  0.00000000000E+00 0. -1.
         -2   -1    0    0    0  501 -0.00000000000E+00 -0.00000000000E+00 -0.17801472849E+02  0.17801472849E+02  0.00000000000E+00 0.  1.
         25    2    1    2    0    0  0.68092436279E+02 -0.31140509536E+02  0.10157735457E+04  0.10261813566E+04  0.12508384890E+03 0.  0.
          5    1    3    3  502    0  0.50129973840E+02 -0.11399798067E+02  0.97998383402E+03  0.98134028605E+03  0.41800000000E+01 0.  1.
         -5    1    3    3    0  502  0.17962462440E+02 -0.19740711470E+02  0.35789711724E+02  0.44841070588E+02  0.41800000000E+01 0.  1.
        -11    1    1    2    0    0 -0.23870595074E+02 -0.27865494442E+02  0.48869663084E+02  0.61110842406E+02  0.00000000000E+00 0.  1.
         11    1    1    2    0    0 -0.44221841206E+02  0.59006003978E+02  0.20339249998E+03  0.21634645547E+03  0.00000000000E+00 0. -1.
</event>
<event>
 7    1  0.2530765E-009  0.1215955E+03  0.7561462E-02  0.1240488E+00
          2   -1    0    0  501    0  0.00000000000E+00  0.00000000000E+00  0.57059414962E+03  0.57059414962E+03  0.00000000000E+00 0. -1.
         -2   -1    0    0    0  501 -0.00000000000E+00 -0.00000000000E+00 -0.37096655124E+02  0.37096655124E+02  0.00000000000E+00 0.  1.
         25    2    1    2    0    0  0.67686495619E+02 -0.31001330300E+02  0.41632547383E+03  0.44104087921E+03  0.12509041851E+03 0.  0.
          5    1    3    3  502    0  0.69546579089E+02  0.21101432169E+02  0.34498061664E+03  0.35257778626E+03  0.41800000000E+01 0.  1.
         -5    1    3    3    0  502 -0.18600834697E+01 -0.52102762469E+02  0.71344857184E+02  0.88463092949E+02  0.41800000000E+01 0.  1.
        -11    1    1    2    0    0 -0.81385170332E+02 -0.29924809049E+01  0.87083537984E+02  0.11923105082E+03  0.00000000000E+00 0. -1.
         11    1    1    2    0    0  0.13698674713E+02  0.33993811205E+02  0.30088482682E+02  0.47418874715E+02  0.00000000000E+00 0.  1.
</event>
<event>
 7    1  0.2530765E-009  0.1174303E+03  0.7561462E-02  0.1247398E+00
          1   -1    0    0  501    0  0.00000000000E+00  0.00000000000E+00  0.47697370853E+03  0.47697370853E+03  0.00000000000E+00 0. -1.
         -1   -1    0    0    0  501 -0.00000000000E+00 -0.00000000000E+00 -0.44520415154E+02  0.44520415154E+02  0.00000000000E+00 0.  1.
         25    2    1    2    0    0  0.77711396090E+02  0.11001971374E+02  0.12828732745E+03  0.19561705186E+03  0.12509311787E+03 0.  0.
          5    1    3    3  502    0 -0.26820088376E+02 -0.23167869905E+02  0.18627737578E+02  0.40255836145E+02  0.41800000000E+01 0. -1.
         -5    1    3    3    0  502  0.10453148447E+03  0.34169841279E+02  0.10965958987E+03  0.15536121571E+03  0.41800000000E+01 0. -1.
        -11    1    1    2    0    0 -0.19685901217E+02  0.15762780421E+02  0.14176245252E+02  0.28930362645E+02  0.00000000000E+00 0.  1.
         11    1    1    2    0    0 -0.58025494873E+02 -0.26764751796E+02  0.28998972068E+03  0.29694670918E+03  0.00000000000E+00 0. -1.
</event>
<event>
 7    1  0.2530765E-009  0.1072861E+03  0.7561462E-02  0.1265680E+00
          1   -1    0    0  501    0  0.00000000000E+00  0.00000000000E+00  0.16426568986E+02  0.16426568986E+02  0.00000000000E+00 0. -1.
         -1   -1    0    0    0  501 -0.00000000000E+00 -0.00000000000E+00 -0.86261371133E+03  0.86261371133E+03  0.00000000000E+00 0.  1.
         25    2    1    2    0    0 -0.35664455954E+02 -0.31758061453E+02 -0.51604201131E+03  0.53312925756E+03  0.12508764902E+03 0.  0.
          5    1    3    3  502    0 -0.74583437256E+02  0.27854368825E+01 -0.38269025062E+03  0.38992274632E+03  0.41800000000E+01 0.  1.
         -5    1    3    3    0  502  0.38918981302E+02 -0.34543498335E+02 -0.13335176069E+03  0.14320651124E+03  0.41800000000E+01 0.  1.
        -11    1    1    2    0    0  0.53599816600E+02  0.29520772845E+01 -0.28166728538E+03  0.28673701322E+03  0.00000000000E+00 0.  1.
         11    1    1    2    0    0 -0.17935360646E+02  0.28805984168E+02 -0.48477845651E+02  0.59174009534E+02  0.00000000000E+00 0. -1.
</event>
<event>
 7    1  0.2530765E-009  0.1202790E+03  0.7561462E-02  0.1242637E+00
          1   -1    0    0  501    0  0.00000000000E+00  0.00000000000E+00  0.30106580176E+02  0.30106580176E+02  0.00000000000E+00 0. -1.
         -1   -1    0    0    0  501 -0.00000000000E+00 -0.00000000000E+00 -0.79285091942E+03  0.79285091942E+03  0.00000000000E+00 0.  1.
         25    2    1    2    0    0  0.51834473806E+02  0.81235251780E+02 -0.27401157520E+03  0.31625555018E+03  0.12509696587E+03 0.  0.
          5    1    3    3  502    0  0.38521783716E+02  0.14661012709E+02 -0.86598185456E+01  0.42324200779E+02  0.41800000000E+01 0.  1.
         -5    1    3    3    0  502  0.13312690090E+02  0.66574239071E+02 -0.26535175665E+03  0.27393134940E+03  0.41800000000E+01 0.  1.
        -11    1    1    2    0    0 -0.39621661542E+02 -0.10065225916E+03 -0.35846838507E+03  0.37443335379E+03  0.00000000000E+00 0. -1.
         11    1    1    2    0    0 -0.12212812264E+02  0.19417007377E+02 -0.13026437898E+03  0.13226859563E+03  0.00000000000E+00 0.  1.
</event>
<event>
 7    1  0.2530765E-009  0.1331210E+03  0.7561462E-02  0.1222897E+00
          2   -1    0    0  501    0  0.00000000000E+00  0.00000000000E+00  0.10040631488E+04  0.10040631488E+04  0.00000000000E+00 0. -1.
         -2   -1    0    0    0  501 -0.00000000000E+00 -0.00000000000E+00 -0.24971368846E+02  0.24971368846E+02  0.00000000000E+00 0.  1.
         25    2    1    2    0    0 -0.69743238234E+01 -0.11425978884E+03  0.58734566410E+03  0.61133116926E+03  0.12508768459E+03 0.  0.
          5    1    3    3  502    0  0.20997969037E+02 -0.44676198320E+02  0.56273938935E+02  0.74974035527E+02  0.41800000000E+01 0.  1.
         -5    1    3    3    0  502 -0.27972292860E+02 -0.69583590517E+02  0.53107172517E+03  0.53635713374E+03  0.41800000000E+01 0.  1.
        -11    1    1    2    0    0 -0.38079340044E+02  0.59984085317E+02  0.24127682951E+03  0.25152064545E+03  0.00000000000E+00 0. -1.
         11    1    1    2    0    0  0.45053663868E+02  0.54275703520E+02  0.15046928632E+03  0.16618270291E+03  0.00000000000E+00 0.  1.
</event>
<event>
 7    1  0.2530765E-009  0.1299299E+03  0.7561462E-02  0.1227560E+00
          1   -1    0    0  501    0  0.00000000000E+00  0.00000000000E+00  0.24495373015E+03  0.24495373015E+03  0.00000000000E+00 0. -1.
         -1   -1    0    0    0  501 -0.00000000000E+00 -0.00000000000E+00 -0.10361161641E+03  0.10361161641E+03  0.00000000000E+00 0.  1.
         25    2    1    2    0    0 -0.10395290965E+03 -0.22321734685E+01  0.13362290866E+03  0.21050720078E+03  0.12508800838E+03 0.  0.
          5    1    3    3  502    0 -0.30865622236E+01  0.23598153479E+02  0.97140022067E+02  0.10010022978E+03  0.41800000000E+01 0. -1.
         -5    1    3    3    0  502 -0.10086634742E+03 -0.25830326948E+02  0.36482886596E+02  0.11040697101E+03  0.41800000000E+01 0. -1.
        -11    1    1    2    0    0  0.82025823110E+02  0.37319069452E+02  0.24535002310E+02  0.93396546724E+02  0.00000000000E+00 0. -1.
         11    1    1    2    0    0  0.21927086538E+02 -0.35086895983E+02 -0.16815797236E+02  0.44661599059E+02  0.00000000000E+00 0.  1.
</event>
<event>
 7    1  0.2530765E-009  0.1030591E+03  0.7561462E-02  0.1273991E+00
          2   -1    0    0  501    0  0.00000000000E+00  0.00000000000E+00  0.25300522434E+02  0.25300522434E+02  0.00000000000E+00 0. -1.
         -2   -1    0    0    0  501 -0.00000000000E+00 -0.00000000000E+00 -0.49732005404E+03  0.49732005404E+03  0.00000000000E+00 0.  1.
         25    2    1    2    0    0  0.33324322877E+02  0.69068428989E+01 -0.25568384931E+03  0.28667064147E+03  0.12509041095E+03 0.  0.
          5    1    3    3  502    0 -0.21396106942E+02 -0.44434991779E+02 -0.64905267103E+02  0.81623697443E+02  0.41800000000E+01 0.  1.
         -5    1    3    3    0  502  0.54720429819E+02  0.51341834677E+02 -0.19077858220E+03  0.20504694403E+03  0.41800000000E+01 0.  1.
        -11    1    1    2    0    0 -0.57209831320E+02 -0.31897074268E+01 -0.19648982465E+03  0.20467386307E+03  0.00000000000E+00 0.  1.
         11    1    1    2    0    0  0.23885508443E+02 -0.37171354720E+01 -0.19845857649E+02  0.31276071933E+02  0.00000000000E+00 0. -1.
</event>
<event>
 7    1  0.2530765E-009  0.1954184E+03  0.7561462E-02  0.1153663E+00
         -2   -1    0    0    0  501 -0.00000000000E+00  0.00000000000E+00  0.98231527223E+02  0.98231527223E+02  0.00000000000E+00 0.  1.
          2   -1    0    0  501    0  0.00000000000E+00 -0.00000000000E+00 -0.89185059674E+03  0.89185059674E+03  0.00000000000E+00 0. -1.
         25    2    1    2    0    0  0.16737867464E+03  0.12331234869E+02 -0.76572208422E+03  0.79381708475E+03  0.12509026224E+03 0.  0.
          5    1    3    3  502    0  0.13637391958E+03  0.62598563117E+02 -0.54950761669E+03  0.56964244860E+03  0.41800000000E+01 0. -1.
         -5    1    3    3    0  502  0.31004755053E+02 -0.50267328247E+02 -0.21621446752E+03  0.22417463615E+03  0.41800000000E+01 0. -1.
        -11    1    1    2    0    0 -0.82920029529E+01  0.17767458055E+02  0.19406808397E+02  0.27587390069E+02  0.00000000000E+00 0.  1.
         11    1    1    2    0    0 -0.15908667168E+03 -0.30098692924E+02 -0.47303793697E+02  0.16867764914E+03  0.00000000000E+00 0. -1.
</event>
<event>
 7    1  0.2530765E-009  0.1314769E+03  0.7561462E-02  0.1225281E+00
         -2   -1    0    0    0  501 -0.00000000000E+00  0.00000000000E+00  0.32850406886E+02  0.32850406886E+02  0.00000000000E+00 0. -1.
          2   -1    0    0  501    0  0.00000000000E+00 -0.00000000000E+00 -0.85477938121E+03  0.85477938121E+03  0.00000000000E+00 0.  1.
         25    2    1    2    0    0  0.81298881074E+02 -0.26388225464E+02 -0.68180363463E+03  0.69843388439E+03  0.12509135924E+03 0.  0.
          5    1    3    3  502    0  0.26202309350E+02 -0.73479047899E+02 -0.38869040413E+03  0.39646366058E+03  0.41800000000E+01 0. -1.
         -5    1    3    3    0  502  0.55096571724E+02  0.47090822434E+02 -0.29311323050E+03  0.30197022381E+03  0.41800000000E+01 0. -1.
        -11    1    1    2    0    0 -0.72971841954E+02 -0.11116290494E+02 -0.44617031434E+02  0.86250455804E+02  0.00000000000E+00 0.  1.
         11    1    1    2    0    0 -0.83270391203E+01  0.37504515958E+02 -0.95508308258E+02  0.10294544790E+03  0.00000000000E+00 0. -1.
</event>
<event>
 7    1  0.2530765E-009  0.1448159E+03  0.7561462E-02  0.1206992E+00
         -2   -1    0    0    0  501 -0.00000000000E+00  0.00000000000E+00  0.59883957805E+02  0.59883957805E+02  0.00000000000E+00 0.  1.
          2   -1    0    0  501    0  0.00000000000E+00 -0.00000000000E+00 -0.44486629862E+03  0.44486629862E+03  0.00000000000E+00 0. -1.
         25    2    1    2    0    0 -0.61918234466E+02 -0.88591078062E+02 -0.26988985541E+03  0.31649667135E+03  0.12508941622E+03 0.  0.
          5    1    3    3  502    0  0.26238639540E+02 -0.33077931216E+02 -0.22480146167E+02  0.48015050871E+02  0.41800000000E+01 0. -1.
         -5    1    3    3    0  502 -0.88156874005E+02 -0.55513146846E+02 -0.24740970924E+03  0.26848162048E+03  0.41800000000E+01 0. -1.
        -11    1    1    2    0    0  0.53468717724E+02 -0.47934624430E+00 -0.69931691816E+02  0.88031670825E+02  0.00000000000E+00 0. -1.
         11    1    1    2    0    0  0.84495167413E+01  0.89070424306E+02 -0.45160793595E+02  0.10022191426E+03  0.00000000000E+00 0.  1.
</event>
<event>
 7    1  0.2530765E-009  0.2127207E+03  0.7561462E-02  0.1139429E+00
         -2   -1    0    0    0  501 -0.00000000000E+00  0.00000000000E+00  0.12237523795E+03  0.12237523795E+03  0.00000000000E+00 0.  1.
          2   -1    0    0  501    0  0.00000000000E+00 -0.00000000000E+00 -0.43862616906E+03  0.43862616906E+03  0.00000000000E+00 0. -1.
         25    2    1    2    0    0  0.19370414263E+03 -0.54464517850E+02 -0.12410683522E+03  0.26746374795E+03  0.12508665535E+03 0.  0.
          5    1    3    3  502    0  0.75560617853E+02 -0.63359745868E+02 -0.11045744338E+03  0.14812894236E+03  0.41800000000E+01 0. -1.
         -5    1    3    3    0  502  0.11814352478E+03  0.88952280179E+01 -0.13649391833E+02  0.11933480559E+03  0.41800000000E+01 0. -1.
        -11    1    1    2    0    0 -0.16252796248E+02  0.22701758701E+02  0.27487660304E+01  0.28054927351E+02  0.00000000000E+00 0.  1.
         11    1    1    2    0    0 -0.17745134638E+03  0.31762759150E+02 -0.19489286193E+03  0.26548273171E+03  0.00000000000E+00 0. -1.
</event>
<event>
 7    1  0.2530765E-009  0.1131838E+03  0.7561462E-02  0.1254785E+00
          1   -1    0    0  501    0  0.00000000000E+00  0.00000000000E+00  0.31461382218E+02  0.31461382218E+02  0.00000000000E+00 0. -1.
         -1   -1    0    0    0  501 -0.00000000000E+00 -0.00000000000E+00 -0.69622238841E+03  0.69622238841E+03  0.00000000000E+00 0.  1.
         25    2    1    2    0    0  0.22432772353E+02 -0.36458828177E+02 -0.58277935971E+03  0.59758776660E+03  0.12508749439E+03 0.  0.
          5    1    3    3  502    0  0.67147330512E+02  0.68955560015E+01 -0.24895656496E+03  0.25797898427E+03  0.41800000000E+01 0. -1.
         -5    1    3    3    0  502 -0.44714558159E+02 -0.43354384178E+02 -0.33382279475E+03  0.33960878232E+03  0.41800000000E+01 0. -1.
        -11    1    1    2    0    0 -0.16274528061E+02 -0.27557537920E+02 -0.47068347942E+02  0.56918428806E+02  0.00000000000E+00 0. -1.
         11    1    1    2    0    0 -0.61582442926E+01  0.64016366097E+02 -0.34913298539E+02  0.73177575225E+02  0.00000000000E+00 0.  1.
</event>
<event>
 7    1  0.2530765E-009  0.1105230E+03  0.7561462E-02  0.1259604E+00
          2   -1    0    0  501    0  0.00000000000E+00  0.00000000000E+00  0.14415560910E+03  0.14415560910E+03  0.00000000000E+00 0. -1.
         -2   -1    0    0    0  501 -0.00000000000E+00 -0.00000000000E+00 -0.14787581213E+03  0.14787581213E+03  0.00000000000E+00 0.  1.
         25    2    1    2    0    0  0.87151285930E+02 -0.40519074698E+02  0.12269842284E+02  0.15822716082E+03  0.12509253910E+03 0.  0.
          5    1    3    3  502    0  0.51174682926E+02 -0.86066530746E+01  0.67260443023E+02  0.85055054203E+02  0.41800000000E+01 0. -1.
         -5    1    3    3    0  502  0.35976603004E+02 -0.31912421624E+02 -0.54990600740E+02  0.73172106621E+02  0.41800000000E+01 0. -1.
        -11    1    1    2    0    0  0.68038221944E+01  0.24467746881E+02  0.19579421091E+02  0.32067372268E+02  0.00000000000E+00 0.  1.
         11    1    1    2    0    0 -0.93955108125E+02  0.16051327817E+02 -0.35569466403E+02  0.10173688814E+03  0.00000000000E+00 0. -1.
</event>
<event>
 7    1  0.2530765E-009  0.2046227E+03  0.7561462E-02  0.1145896E+00
          2   -1    0    0  501    0  0.00000000000E+00  0.00000000000E+00  0.24141131756E+03  0.24141131756E+03  0.00000000000E+00 0. -1.
         -2   -1    0    0    0  501 -0.00000000000E+00 -0.00000000000E+00 -0.24389771846E+03  0.24389771846E+03  0.00000000000E+00 0.  1.
         25    2    1    2    0    0 -0.89440314268E+01 -0.18071373426E+03  0.11779420363E+03  0.24952169327E+03  0.12509257194E+03 0.  0.
          5    1    3    3  502    0 -0.66378353145E+02 -0.96711029650E+02  0.52789624459E+02  0.12869858536E+03  0.41800000000E+01 0.  1.
         -5    1    3    3    0  502  0.57434321718E+02 -0.84002704609E+02  0.65004579171E+02  0.12082310791E+03  0.41800000000E+01 0.  1.
        -11    1    1    2    0    0 -0.17407658981E+02  0.14277858254E+03 -0.51178735095E+02  0.15266962091E+03  0.00000000000E+00 0. -1.
         11    1    1    2    0    0  0.26351690408E+02  0.37935151716E+02 -0.69101869437E+02  0.83117721833E+02  0.00000000000E+00 0.  1.
</event>
<event>
 7    1  0.2530765E-009  0.8996014E+02  0.7561462E-02  0.1302948E+00
          3   -1    0    0  501    0  0.00000000000E+00  0.00000000000E+00  0.16145149761E+04  0.16145149761E+04  0.00000000000E+00 0. -1.
         -3   -1    0    0    0  501 -0.00000000000E+00 -0.00000000000E+00 -0.94599933576E+01  0.94599933576E+01  0.00000000000E+00 0.  1.
         25    2    1    2    0    0 -0.37368037032E+02 -0.38874778394E+02  0.10784334891E+04  0.10870020564E+04  0.12508821526E+03 0.  0.
          5    1    3    3  502    0 -0.66811632679E+01  0.12644739395E+02  0.86860881458E+03  0.86873659561E+03  0.41800000000E+01 0. -1.
         -5    1    3    3    0  502 -0.30686873764E+02 -0.51519517789E+02  0.20982467453E+03  0.21826546080E+03  0.41800000000E+01 0. -1.
        -11    1    1    2    0    0 -0.47512582323E+01  0.58323119563E+02  0.29870309593E+03  0.30438084737E+03  0.00000000000E+00 0. -1.
         11    1    1    2    0    0  0.42119295264E+02 -0.19448341169E+02  0.22791839774E+03  0.23259206572E+03  0.00000000000E+00 0.  1.
</event>
<event>
 7    1  0.2530765E-009  0.1427555E+03  0.7561462E-02  0.1209669E+00
          1   -1    0    0  501    0  0.00000000000E+00  0.00000000000E+00  0.13174223057E+03  0.13174223057E+03  0.00000000000E+00 0. -1.
         -1   -1    0    0    0  501 -0.00000000000E+00 -0.00000000000E+00 -0.19864660136E+03  0.19864660136E+03  0.00000000000E+00 0.  1.
         25    2    1    2    0    0  0.36978467105E+02 -0.10975813753E+03 -0.66989359989E+02  0.18316290818E+03  0.12508725273E+03 0.  0.
          5    1    3    3  502    0  0.68093750333E+02 -0.27685413533E+02 -0.60064206670E+02  0.95018010292E+02  0.41800000000E+01 0.  1.
         -5    1    3    3    0  502 -0.31115283228E+02 -0.82072723997E+02 -0.69251533189E+01  0.88144897885E+02  0.41800000000E+01 0.  1.
        -11    1    1    2    0    0  0.62961160139E+01  0.49092539662E+02 -0.39060649802E+02  0.63051192616E+02  0.00000000000E+00 0.  1.
         11    1    1    2    0    0 -0.43274583119E+02  0.60665597868E+02  0.39145639003E+02  0.84174731135E+02  0.00000000000E+00 0. -1.
</event>
<event>
 7    1  0.2530765E-009  0.1131734E+03  0.7561462E-02  0.1254804E+00
         -1   -1    0    0    0  501 -0.00000000000E+00  0.00000000000E+00  0.24200331468E+02  0.24200331468E+02  0.00000000000E+00 0.  1.
          1   -1    0    0  501    0  0.00000000000E+00 -0.00000000000E+00 -0.70915761871E+03  0.70915761871E+03  0.00000000000E+00 0. -1.
         25    2    1    2    0    0 -0.19669328499E+02  0.51910163743E+02 -0.21860276733E+03  0.25791539565E+03  0.12510649001E+03 0.  0.
          5    1    3    3  502    0 -0.71404947601E+02  0.34014752086E+02 -0.15368897227E+03  0.17289720211E+03  0.41800000000E+01 0. -1.
         -5    1    3    3    0  502  0.51735619102E+02  0.17895411658E+02 -0.64913795069E+02  0.85018193538E+02  0.41800000000E+01 0. -1.
        -11    1    1    2    0    0  0.89833739044E-02 -0.67283659008E+02 -0.32327741994E+03  0.33020505916E+03  0.00000000000E+00 0.  1.
         11    1    1    2    0    0  0.19660345125E+02  0.15373495265E+02 -0.14307709997E+03  0.14523749538E+03  0.00000000000E+00 0. -1.
</event>
<event>
 7    1  0.2530765E-009  0.1096062E+03  0.7561462E-02  0.1261301E+00
          1   -1    0    0  501    0  0.00000000000E+00  0.00000000000E+00  0.41510103435E+03  0.41510103435E+03  0.00000000000E+00 0. -1.
         -1   -1    0    0    0  501 -0.00000000000E+00 -0.00000000000E+00 -0.39593607949E+02  0.39593607949E+02  0.00000000000E+00 0.  1.
         25    2    1    2    0    0  0.93401648265E+01  0.36565596524E+02  0.31097380565E+03  0.33730571485E+03  0.12508459515E+03 0.  0.
          5    1    3    3  502    0 -0.42672901176E+02 -0.25227233601E+02  0.12185776659E+03  0.13162134131E+03  0.41800000000E+01 0. -1.
         -5    1    3    3    0  502  0.52013066003E+02  0.61792830125E+02  0.18911603906E+03  0.20568437354E+03  0.41800000000E+01 0. -1.
        -11    1    1    2    0    0 -0.44581982545E+02 -0.13953716263E+02  0.58843279544E+02  0.75131823568E+02  0.00000000000E+00 0. -1.
         11    1    1    2    0    0  0.35241817719E+02 -0.22611880261E+02  0.56903412076E+01  0.42257103878E+02  0.00000000000E+00 0.  1.
</event>
<event>
 7    1  0.2530765E-009  0.8565539E+02  0.7561462E-02  0.1313727E+00
          2   -1    0    0  501    0  0.00000000000E+00  0.00000000000E+00  0.40942783030E+02  0.40942783030E+02  0.00000000000E+00 0. -1.
         -2   -1    0    0    0  501 -0.00000000000E+00 -0.00000000000E+00 -0.38997124859E+03  0.38997124859E+03  0.00000000000E+00 0.  1.
         25    2    1    2    0    0 -0.37365800370E+02  0.46034499865E+02 -0.24587154768E+03  0.28216297183E+03  0.12509095289E+03 0.  0.
          5    1    3    3  502    0  0.15041977282E+02  0.58820561188E+01  0.89237056760E+01  0.18919952107E+02  0.41800000000E+01 0.  1.
         -5    1    3    3    0  502 -0.52407777652E+02  0.40152443746E+02 -0.25479525336E+03  0.26324301972E+03  0.41800000000E+01 0.  1.
        -11    1    1    2    0    0  0.49414192325E+02 -0.99162885959E+01 -0.14780861655E+02  0.52522081584E+02  0.00000000000E+00 0. -1.
         11    1    1    2    0    0 -0.12048391955E+02 -0.36118211269E+02 -0.88376056220E+02  0.96228978208E+02  0.00000000000E+00 0.  1.
</event>
<event>
 7    1  0.2530765E-009  0.1105560E+03  0.7561462E-02  0.1259544E+00
         -1   -1    0    0    0  501 -0.00000000000E+00  0.00000000000E+00  0.17506689585E+02  0.17506689585E+02  0.00000000000E+00 0.  1.
          1   -1    0    0  501    0  0.00000000000E+00 -0.00000000000E+00 -0.83117474849E+03  0.83117474849E+03  0.00000000000E+00 0. -1.
         25    2    1    2    0    0 -0.44672983683E+02  0.26058816283E+02 -0.44375837416E+03  0.46394374128E+03  0.12509021967E+03 0.  0.
          5    1    3    3  502    0 -0.42019472182E+02  0.64800907883E+02 -0.16229052700E+03  0.17977897891E+03  0.41800000000E+01 0.  1.
         -5    1    3    3    0  502 -0.26535115004E+01 -0.38742091599E+02 -0.28146784717E+03  0.28416476237E+03  0.41800000000E+01 0.  1.
        -11    1    1    2    0    0 -0.28354476460E+02 -0.84955972990E+01 -0.81521123051E+02  0.86728570911E+02  0.00000000000E+00 0.  1.
         11    1    1    2    0    0  0.73027460143E+02 -0.17563218984E+02 -0.28838856169E+03  0.29800912588E+03  0.00000000000E+00 0. -1.
</event>
<event>
 7    1  0.2530765E-009  0.2571759E+03  0.7561462E-02  0.1108852E+00
         -2   -1    0    0    0  501 -0.00000000000E+00  0.00000000000E+00  0.53305375837E+03  0.53305375837E+03  0.00000000000E+00 0.  1.
          2   -1    0    0  501    0  0.00000000000E+00 -0.00000000000E+00 -0.24606970737E+03  0.24606970737E+03  0.00000000000E+00 0. -1.
         25    2    1    2    0    0  0.36298894011E+02 -0.23260839695E+03 -0.12616616401E+03  0.29493996354E+03  0.12508958834E+03 0.  0.
          5    1    3    3  502    0  0.75882653739E+02 -0.11595511011E+03 -0.39151012297E+02  0.14406262132E+03  0.41800000000E+01 0.  1.
         -5    1    3    3    0  502 -0.39583759728E+02 -0.11665328685E+03 -0.87015151710E+02  0.15087734221E+03  0.41800000000E+01 0. -1.
        -11    1    1    2    0    0 -0.64764551931E+02  0.12065315302E+03  0.22147549050E+03  0.26039013693E+03  0.00000000000E+00 0. -1.
         11    1    1    2    0    0  0.28465657920E+02  0.11195524394E+03  0.19167472450E+03  0.22379336527E+03  0.00000000000E+00 0.  1.
</event>
<event>
 7    1  0.2530765E-009  0.2429907E+03  0.7561462E-02  0.1117816E+00
         -1   -1    0    0    0  501 -0.00000000000E+00  0.00000000000E+00  0.37698624305E+02  0.37698624305E+02  0.00000000000E+00 0.  1.
          1   -1    0    0  501    0  0.00000000000E+00 -0.00000000000E+00 -0.17956385451E+04  0.17956385451E+04  0.00000000000E+00 0. -1.
         25    2    1    2    0    0  0.21464560144E+03  0.88870026272E+02 -0.76505495024E+03  0.80927568480E+03  0.12508973313E+03 0.  0.
          5    1    3    3  502    0  0.98530101346E+02  0.19279230966E+02 -0.15762910647E+03  0.18693388464E+03  0.41800000000E+01 0.  1.
         -5    1    3    3    0  502  0.11611550009E+03  0.69590795306E+02 -0.60742584377E+03  0.62234180017E+03  0.41800000000E+01 0.  1.
        -11    1    1    2    0    0 -0.20824038277E+03 -0.54715045384E+02 -0.87947814012E+03  0.90544993907E+03  0.00000000000E+00 0. -1.
         11    1    1    2    0    0 -0.64052186752E+01 -0.34154980889E+02 -0.11340683041E+03  0.11861154551E+03  0.00000000000E+00 0.  1.
</event>
<event>
 7    1  0.2530765E-009  0.1106990E+03  0.7561462E-02  0.1259281E+00
          2   -1    0    0  501    0  0.00000000000E+00  0.00000000000E+00  0.11941442242E+03  0.11941442242E+03  0.00000000000E+00 0. -1.
         -2   -1    0    0    0  501 -0.00000000000E+00 -0.00000000000E+00 -0.11078075498E+03  0.11078075498E+03  0.00000000000E+00 0.  1.
         25    2    1    2    0    0  0.33416694837E+02  0.19734520257E+02  0.29338928603E+01  0.13100396482E+03  0.12508918533E+03 0.  0.
          5    1    3    3  502    0  0.58689039539E+01 -0.48521440928E+02 -0.21188229014E+02  0.53433956546E+02  0.41800000000E+01 0. -1.
         -5    1    3    3    0  502  0.27547790883E+02  0.68255961185E+02  0.24122121875E+02  0.77570008274E+02  0.41800000000E+01 0. -1.
        -11    1    1    2    0    0 -0.22788591341E+02 -0.56196443988E+02  0.78707997683E+01  0.61149895349E+02  0.00000000000E+00 0.  1.
         11    1    1    2    0    0 -0.10628103496E+02  0.36461923731E+02 -0.21710251871E+01  0.38041317228E+02  0.00000000000E+00 0. -1.
</event>
<event>
 7    1  0.2530765E-009  0.9648742E+02  0.7561462E-02  0.1287861E+00
         -1   -1    0    0    0  501 -0.00000000000E+00  0.00000000000E+00  0.30034685019E+02  0.30034685019E+02  0.00000000000E+00 0.  1.
          1   -1    0    0  501    0  0.00000000000E+00 -0.00000000000E+00 -0.63129687107E+03  0.63129687107E+03  0.00000000000E+00 0. -1.
         25    2    1    2    0    0 -0.50558059295E+01  0.66064701029E+02 -0.19837463311E+03  0.24369925730E+03  0.12508687801E+03 0.  0.
          5    1    3    3  502    0 -0.17590025598E+02  0.24872686345E+01 -0.17303443059E+03  0.17399420127E+03  0.41800000000E+01 0. -1.
         -5    1    3    3    0  502  0.12534219668E+02  0.63577432395E+02 -0.25340202523E+02  0.69705056032E+02  0.41800000000E+01 0. -1.
        -11    1    1    2    0    0  0.45604883884E+02 -0.45106968803E+02 -0.22273833817E+03  0.23179044708E+03  0.00000000000E+00 0.  1.
         11    1    1    2    0    0 -0.40549077954E+02 -0.20957732226E+02 -0.18014921477E+03  0.18584185171E+03  0.00000000000E+00 0. -1.
</event>
<event>
 7    1  0.2530765E-009  0.1234743E+03  0.7561462E-02  0.1237473E+00
         -1   -1    0    0    0  501 -0.00000000000E+00  0.00000000000E+00  0.47334871980E+03  0.47334871980E+03  0.00000000000E+00 0.  1.
          1   -1    0    0  501    0  0.00000000000E+00 -0.00000000000E+00 -0.61236917050E+02  0.61236917050E+02  0.00000000000E+00 0. -1.
         25    2    1    2    0    0  0.87758523776E+02 -0.52423598989E+02  0.93121023552E+02  0.18646277280E+03  0.12508816246E+03 0.  0.
          5    1    3    3  502    0 -0.92864251594E+01  0.97977007923E+00  0.73111666976E+02  0.73824019733E+02  0.41800000000E+01 0. -1.
         -5    1    3    3    0  502  0.97044948935E+02 -0.53403369068E+02  0.20009356576E+02  0.11263875307E+03  0.41800000000E+01 0. -1.
        -11    1    1    2    0    0 -0.83920970885E+02  0.11427906466E+02  0.13336986634E+03  0.15799002388E+03  0.00000000000E+00 0. -1.
         11    1    1    2    0    0 -0.38375528911E+01  0.40995692523E+02  0.18562091286E+03  0.19013284017E+03  0.00000000000E+00 0.  1.
</event>
<event>
 7    1  0.2530765E-009  0.2028092E+03  0.7561462E-02  0.1147390E+00
          3   -1    0    0  501    0  0.00000000000E+00  0.00000000000E+00  0.20082758193E+03  0.20082758193E+03  0.00000000000E+00 0. -1.
         -3   -1    0    0    0  501 -0.00000000000E+00 -0.00000000000E+00 -0.21642054741E+03  0.21642054741E+03  0.00000000000E+00 0.  1.
         25    2    1    2    0    0  0.17531797029E+03 -0.29931308629E+01  0.18929764439E+02  0.21622058751E+03  0.12509059494E+03 0.  0.
          5    1    3    3  502    0  0.14806834522E+03  0.43142702592E+02 -0.11053581830E+02  0.15467767038E+03  0.41800000000E+01 0.  1.
         -5    1    3    3    0  502  0.27249625070E+02 -0.46135833455E+02  0.29983346269E+02  0.61542917127E+02  0.41800000000E+01 0.  1.
        -11    1    1    2    0    0 -0.16668568986E+03  0.29888734627E+02 -0.24780015371E+02  0.17114761121E+03  0.00000000000E+00 0.  1.
         11    1    1    2    0    0 -0.86322804307E+01 -0.26895603764E+02 -0.97427145452E+01  0.29879930622E+02  0.00000000000E+00 0. -1.
</event>
<event>
 7    1  0.2530765E-009  0.1206748E+03  0.7561462E-02  0.1241988E+00
         -1   -1    0    0    0  501 -0.00000000000E+00  0.00000000000E+00  0.35489294826E+03  0.35489294826E+03  0.00000000000E+00 0.  1.
          1   -1    0    0  501    0  0.00000000000E+00 -0.00000000000E+00 -0.43060270780E+02  0.43060270780E+02  0.00000000000E+00 0. -1.
         25    2    1    2    0    0  0.54249827454E+02  0.38784501790E+02  0.14543784038E+03  0.20309462254E+03  0.12509188196E+03 0.  0.
          5    1    3    3  502    0 -0.37381845912E+02  0.31377057269E+02  0.40825882476E+02  0.63766348544E+02  0.41800000000E+01 0.  1.
         -5    1    3    3    0  502  0.91631673366E+02  0.74074445208E+01  0.10461195791E+03  0.13932827400E+03  0.41800000000E+01 0.  1.
        -11    1    1    2    0    0 -0.10304623918E+02 -0.53124576018E+02  0.10362872658E+03  0.11690730868E+03  0.00000000000E+00 0.  1.
         11    1    1    2    0    0 -0.43945203536E+02  0.14340074228E+02  0.62766110525E+02  0.77951287822E+02  0.00000000000E+00 0. -1.
</event>
<event>
 7    1  0.2530765E-009  0.9604659E+02  0.7561462E-02  0.1288836E+00
         -1   -1    0    0    0  501 -0.00000000000E+00  0.00000000000E+00  0.19095672582E+02  0.19095672582E+02  0.00000000000E+00 0.  1.
          1   -1    0    0  501    0  0.00000000000E+00 -0.00000000000E+00 -0.87699639320E+03  0.87699639320E+03  0.00000000000E+00 0. -1.
         25    2    1    2    0    0  0.19835062399E+02 -0.39999396171E+02 -0.62919464500E+03  0.64306085084E+03  0.12509186704E+03 0.  0.
          5    1    3    3  502    0 -0.34524058847E+01  0.20503242006E+02 -0.47837399293E+03  0.47884386970E+03  0.41800000000E+01 0. -1.
         -5    1    3    3    0  502  0.23287468283E+02 -0.60502638177E+02 -0.15082065206E+03  0.16421698114E+03  0.41800000000E+01 0. -1.
        -11    1    1    2    0    0  0.29249178518E+02  0.47979813537E+02 -0.94971931893E+02  0.11035055414E+03  0.00000000000E+00 0.  1.
         11    1    1    2    0    0 -0.49084240917E+02 -0.79804173664E+01 -0.13373414372E+03  0.14268066080E+03  0.00000000000E+00 0. -1.
</event>
<event>
 7    1  0.3852919E-009  0.7799088E+02  0.7561462E-02  0.1334852E+00
          1   -1    0    0  501    0  0.00000000000E+00  0.00000000000E+00  0.11521599489E+03  0.11521599489E+03  0.00000000000E+00 0. -1.
         -1   -1    0    0    0  501 -0.00000000000E+00 -0.00000000000E+00 -0.10909819636E+03  0.10909819636E+03  0.00000000000E+00 0.  1.
         25    2    1    2    0    0  0.11626552860E+02  0.25701106918E+02  0.80646451893E+01  0.12847751479E+03  0.12508281128E+03 0.  0.
          5    1    3    3  502    0  0.49758477552E+02  0.27116320807E+02  0.47045033501E+02  0.73769292524E+02  0.41800000000E+01 0.  1.
         -5    1    3    3    0  502 -0.38131924692E+02 -0.14152138885E+01 -0.38980388312E+02  0.54708222270E+02  0.41800000000E+01 0.  1.
        -11    1    1    2    0    0  0.18145305264E+02 -0.25130382292E+02  0.36061892534E+02  0.47552584687E+02  0.00000000000E+00 0. -1.
         11    1    1    2    0    0 -0.29771858123E+02 -0.57072462669E+00 -0.38008739194E+02  0.48284091768E+02  0.00000000000E+00 0.  1.
</event>
<event>
 7    1  0.2530765E-009  0.1080539E+03  0.7561462E-02  0.1264217E+00
          1   -1    0    0  501    0  0.00000000000E+00  0.00000000000E+00  0.35968123837E+03  0.35968123837E+03  0.00000000000E+00 0. -1.
         -1   -1    0    0    0  501 -0.00000000000E+00 -0.00000000000E+00 -0.50687402549E+02  0.50687402549E+02  0.00000000000E+00 0.  1.
         25    2    1    2    0    0  0.44067405849E+02  0.47680231899E+02  0.23895362855E+03  0.27742181639E+03  0.12509471148E+03 0.  0.
          5    1    3    3  502    0 -0.21702145899E+02 -0.20814897717E+02  0.12691394073E+03  0.13049468900E+03  0.41800000000E+01 0. -1.
         -5    1    3    3    0  502  0.65769551748E+02  0.68495129617E+02  0.11203968782E+03  0.14692712739E+03  0.41800000000E+01 0. -1.
        -11    1    1    2    0    0 -0.29095779224E+02  0.10261501707E+02  0.66131897909E+02  0.72974589461E+02  0.00000000000E+00 0. -1.
         11    1    1    2    0    0 -0.14971626625E+02 -0.57941733606E+02  0.39083093629E+01  0.59972235069E+02  0.00000000000E+00 0.  1.
</event>
<event>
 7    1  0.2530765E-009  0.1160662E+03  0.7561462E-02  0.1249731E+00
          1   -1    0    0  501    0  0.00000000000E+00  0.00000000000E+00  0.16821125953E+03  0.16821125953E+03  0.00000000000E+00 0. -1.
         -1   -1    0    0    0  501 -0.00000000000E+00 -0.00000000000E+00 -0.95989915252E+02  0.95989915252E+02  0.00000000000E+00 0.  1.
         25    2    1    2    0    0 -0.51144968624E+02 -0.20034461068E+02  0.77897921731E+02  0.15725677615E+03  0.12507765584E+03 0.  0.
          5    1    3    3  502    0 -0.12187314071E+02 -0.70809364263E+02  0.34460029595E+02  0.79796382946E+02  0.41800000000E+01 0. -1.
         -5    1    3    3    0  502 -0.38957654553E+02  0.50774903195E+02  0.43437892136E+02  0.77460393208E+02  0.41800000000E+01 0. -1.
        -11    1    1    2    0    0  0.45368879916E+02 -0.24197381810E+02 -0.26352699015E+02  0.57778138570E+02  0.00000000000E+00 0.  1.
         11    1    1    2    0    0  0.57760887082E+01  0.44231842878E+02  0.20676121559E+02  0.49166260056E+02  0.00000000000E+00 0. -1.
</event>
<event>
 7    1  0.2530765E-009  0.1385683E+03  0.7561462E-02  0.1215268E+00
         -2   -1    0    0    0  501 -0.00000000000E+00  0.00000000000E+00  0.27653894057E+03  0.27653894057E+03  0.00000000000E+00 0.  1.
          2   -1    0    0  501    0  0.00000000000E+00 -0.00000000000E+00 -0.11325771697E+03  0.11325771697E+03  0.00000000000E+00 0. -1.
         25    2    1    2    0    0  0.12426984870E+03 -0.15458680269E+02  0.15941825040E+03  0.23820533931E+03  0.12508252886E+03 0.  0.
          5    1    3    3  502    0  0.26426384989E+02  0.31409127600E+02  0.11269148579E+03  0.12000721016E+03  0.41800000000E+01 0. -1.
         -5    1    3    3    0  502  0.97843463710E+02 -0.46867807868E+02  0.46726764608E+02  0.11819812916E+03  0.41800000000E+01 0. -1.
        -11    1    1    2    0    0 -0.14747423296E+02 -0.56068053591E+01  0.32775124120E+02  0.36374874863E+02  0.00000000000E+00 0.  1.
         11    1    1    2    0    0 -0.10952242540E+03  0.21065485628E+02 -0.28912150913E+02  0.11521644336E+03  0.00000000000E+00 0. -1.
</event>
<event>
 7    1  0.2530765E-009  0.9065884E+02  0.7561462E-02  0.1301264E+00
          1   -1    0    0  501    0  0.00000000000E+00  0.00000000000E+00  0.75267771913E+03  0.75267771913E+03  0.00000000000E+00 0. -1.
         -1   -1    0    0    0  501 -0.00000000000E+00 -0.00000000000E+00 -0.24031282757E+02  0.24031282757E+02  0.00000000000E+00 0.  1.
         25    2    1    2    0    0  0.25234003678E+02  0.35074356500E+02  0.56544840132E+03  0.58072886332E+03  0.12508857943E+03 0.  0.
          5    1    3    3  502    0  0.58214817848E+01  0.56100131716E+02  0.10406820471E+03  0.11844314274E+03  0.41800000000E+01 0. -1.
         -5    1    3    3    0  502  0.19412521893E+02 -0.21025775217E+02  0.46138019661E+03  0.46228572058E+03  0.41800000000E+01 0. -1.
        -11    1    1    2    0    0 -0.57386536104E+01 -0.62184636246E+02  0.14516990315E+03  0.15803215467E+03  0.00000000000E+00 0. -1.
         11    1    1    2    0    0 -0.19495350067E+02  0.27110279746E+02  0.18028131904E+02  0.37947983901E+02  0.00000000000E+00 0.  1.
</event>
<event>
 7    1  0.2530765E-009  0.1076651E+03  0.7561462E-02  0.1264956E+00
         -2   -1    0    0    0  501 -0.00000000000E+00  0.00000000000E+00  0.50447524119E+02  0.50447524119E+02  0.00000000000E+00 0.  1.
          2   -1    0    0  501    0  0.00000000000E+00 -0.00000000000E+00 -0.39660433077E+03  0.39660433077E+03  0.00000000000E+00 0. -1.
         25    2    1    2    0    0 -0.79790988094E+02  0.39681700347E+02 -0.20291409090E+03  0.25448410546E+03  0.12508713971E+03 0.  0.
          5    1    3    3  502    0 -0.55775367425E+02  0.53311669942E+02 -0.35989611766E+02  0.85239370706E+02  0.41800000000E+01 0.  1.
         -5    1    3    3    0  502 -0.24015620669E+02 -0.13629969594E+02 -0.16692447913E+03  0.16924473475E+03  0.41800000000E+01 0.  1.
        -11    1    1    2    0    0  0.29248433199E+02  0.17286935963E+02 -0.44657844002E+01  0.34267363918E+02  0.00000000000E+00 0.  1.
         11    1    1    2    0    0  0.50542554895E+02 -0.56968636310E+02 -0.13877693135E+03  0.15830038551E+03  0.00000000000E+00 0. -1.
</event>
<event>
 7    1  0.2530765E-009  0.8015973E+02  0.7561462E-02  0.1328599E+00
         -1   -1    0    0    0  501 -0.00000000000E+00  0.00000000000E+00  0.23227260471E+03  0.23227260471E+03  0.00000000000E+00 0.  1.
          1   -1    0    0  501    0  0.00000000000E+00 -0.00000000000E+00 -0.52304305307E+02  0.52304305307E+02  0.00000000000E+00 0. -1.
         25    2    1    2    0    0 -0.15171993269E+02  0.18711603564E+02  0.80509453995E+02  0.15069655758E+03  0.12508943519E+03 0.  0.
          5    1    3    3  502    0 -0.28733591618E+02 -0.29738696346E+02  0.90176129800E+02  0.99293585560E+02  0.41800000000E+01 0.  1.
         -5    1    3    3    0  502  0.13561598349E+02  0.48450299910E+02 -0.96666758048E+01  0.51402972018E+02  0.41800000000E+01 0.  1.
        -11    1    1    2    0    0 -0.25237781536E+02 -0.66510607838E+01  0.27211902671E+00  0.26100886482E+02  0.00000000000E+00 0. -1.
         11    1    1    2    0    0  0.40409774805E+02 -0.12060542780E+02  0.99186726379E+02  0.10777946596E+03  0.00000000000E+00 0.  1.
</event>
<event>
 7    1  0.2530765E-009  0.2596928E+03  0.7561462E-02  0.1107328E+00
         -2   -1    0    0    0  501 -0.00000000000E+00  0.00000000000E+00  0.30900248389E+03  0.30900248389E+03  0.00000000000E+00 0.  1.
          2   -1    0    0  501    0  0.00000000000E+00 -0.00000000000E+00 -0.25061540283E+03  0.25061540283E+03  0.00000000000E+00 0. -1.
         25    2    1    2    0    0 -0.10141593366E+03 -0.22990978721E+03  0.77570355236E+02  0.29121178517E+03  0.12507374606E+03 0.  0.
          5    1    3    3  502    0 -0.70491245149E+02 -0.13474839221E+03  0.10797175217E+03  0.18655164570E+03  0.41800000000E+01 0.  1.
         -5    1    3    3    0  502 -0.30924688506E+02 -0.95161394997E+02 -0.30401396938E+02  0.10466013946E+03  0.41800000000E+01 0.  1.
        -11    1    1    2    0    0  0.11621405518E+03  0.17376317164E+03 -0.75001693734E+01  0.20917839033E+03  0.00000000000E+00 0.  1.
         11    1    1    2    0    0 -0.14798121523E+02  0.56146615566E+02 -0.11683104802E+02  0.59227711233E+02  0.00000000000E+00 0. -1.
</event>
<event>
 7    1  0.2530765E-009  0.9321544E+02  0.7561462E-02  0.1295247E+00
          2   -1    0    0  501    0  0.00000000000E+00  0.00000000000E+00  0.12122827957E+03  0.12122827957E+03  0.00000000000E+00 0. -1.
         -2   -1    0    0    0  501 -0.00000000000E+00 -0.00000000000E+00 -0.13045034774E+03  0.13045034774E+03  0.00000000000E+00 0.  1.
         25    2    1    2    0    0  0.64699532853E+01  0.60792131338E+02 -0.21992155804E+02  0.14095456841E+03  0.12508793671E+03 0.  0.
          5    1    3    3  502    0 -0.10030628629E+02 -0.65967836967E+01 -0.60276770408E+02  0.61602698940E+02  0.41800000000E+01 0. -1.
         -5    1    3    3    0  502  0.16500581915E+02  0.67388915035E+02  0.38284614604E+02  0.79351869471E+02  0.41800000000E+01 0. -1.
        -11    1    1    2    0    0 -0.28160884492E+02  0.10223091438E+02 -0.12251805340E+02  0.32367479790E+02  0.00000000000E+00 0.  1.
         11    1    1    2    0    0  0.21690931206E+02 -0.71015222777E+02  0.25021892976E+02  0.78356579116E+02  0.00000000000E+00 0. -1.
</event>
<event>
 7    1  0.2530765E-009  0.8185143E+02  0.7561462E-02  0.1323878E+00
          2   -1    0    0  501    0  0.00000000000E+00  0.00000000000E+00  0.68446312681E+03  0.68446312681E+03  0.00000000000E+00 0. -1.
         -2   -1    0    0    0  501 -0.00000000000E+00 -0.00000000000E+00 -0.19674180664E+02  0.19674180664E+02  0.00000000000E+00 0.  1.
         25    2    1    2    0    0  0.55465668141E+01  0.29489168795E+02  0.44938881204E+03  0.46743880805E+03  0.12509340273E+03 0.  0.
          5    1    3    3  502    0  0.27582736112E+02 -0.81281827611E+01  0.40147247707E+03  0.40252266636E+03  0.41800000000E+01 0.  1.
         -5    1    3    3    0  502 -0.22036169297E+02  0.37617351556E+02  0.47916334967E+02  0.64916141691E+02  0.41800000000E+01 0.  1.
        -11    1    1    2    0    0  0.40183580984E+02 -0.12923852513E+02  0.14580317868E+03  0.15179035891E+03  0.00000000000E+00 0. -1.
         11    1    1    2    0    0 -0.45730147799E+02 -0.16565316282E+02  0.69596955430E+02  0.84908140519E+02  0.00000000000E+00 0.  1.
</event>
<event>
 7    1  0.2530765E-009  0.9281178E+02  0.7561462E-02  0.1296182E+00
          3   -1    0    0  501    0  0.00000000000E+00  0.00000000000E+00  0.65663633539E+02  0.65663633539E+02  0.00000000000E+00 0. -1.
         -3   -1    0    0    0  501 -0.00000000000E+00 -0.00000000000E+00 -0.30171955527E+03  0.30171955527E+03  0.00000000000E+00 0.  1.
         25    2    1    2    0    0 -0.18346211531E+02 -0.72682021326E+02 -0.74360919496E+02  0.16369748173E+03  0.12509220390E+03 0.  0.
          5    1    3    3  502    0  0.18901804790E+02 -0.59374380351E+02 -0.98896811838E+02  0.11696429822E+03  0.41800000000E+01 0.  1.
         -5    1    3    3    0  502 -0.37248016320E+02 -0.13307640975E+02  0.24535892342E+02  0.46733183511E+02  0.41800000000E+01 0.  1.
        -11    1    1    2    0    0  0.26805402451E+02  0.31520614145E+02 -0.15586243341E+03  0.16126120695E+03  0.00000000000E+00 0.  1.
         11    1    1    2    0    0 -0.84591909209E+01  0.41161407181E+02 -0.58325688203E+01  0.42424500129E+02  0.00000000000E+00 0. -1.
</event>
<event>
 7    1  0.2530765E-009  0.1574352E+03  0.7561462E-02  0.1191623E+00
         -1   -1    0    0    0  501 -0.00000000000E+00  0.00000000000E+00  0.58475980459E+02  0.58475980459E+02  0.00000000000E+00 0.  1.
          1   -1    0    0  501    0  0.00000000000E+00 -0.00000000000E+00 -0.49491875790E+03  0.49491875790E+03  0.00000000000E+00 0. -1.
         25    2    1    2    0    0 -0.11142166882E+03  0.51851427720E+02 -0.15775174571E+03  0.23587086825E+03  0.12508434905E+03 0.  0.
          5    1    3    3  502    0  0.22920983949E+02  0.28607930907E+02 -0.19810370695E+02  0.41877301764E+02  0.41800000000E+01 0.  1.
         -5    1    3    3    0  502 -0.13434265277E+03  0.23243496813E+02 -0.13794137502E+03  0.19399356649E+03  0.41800000000E+01 0.  1.
        -11    1    1    2    0    0  0.62435880295E+01 -0.34393254157E+02 -0.12961468673E+03  0.13424546674E+03  0.00000000000E+00 0. -1.
         11    1    1    2    0    0  0.10517808079E+03 -0.17458173563E+02 -0.14907634500E+03  0.18327840337E+03  0.00000000000E+00 0.  1.
</event>
<event>
 7    1  0.2530765E-009  0.1028804E+03  0.7561462E-02  0.1274353E+00
         -1   -1    0    0    0  501 -0.00000000000E+00  0.00000000000E+00  0.58245655450E+02  0.58245655450E+02  0.00000000000E+00 0.  1.
          1   -1    0    0  501    0  0.00000000000E+00 -0.00000000000E+00 -0.36225575866E+03  0.36225575866E+03  0.00000000000E+00 0. -1.
         25    2    1    2    0    0  0.40155078707E+02 -0.64500095674E+02 -0.25056425127E+03  0.29017599408E+03  0.12508785248E+03 0.  0.
          5    1    3    3  502    0  0.51276112458E+02 -0.41688103800E+02 -0.38577086693E+02  0.76634207277E+02  0.41800000000E+01 0.  1.
         -5    1    3    3    0  502 -0.11121033750E+02 -0.22811991874E+02 -0.21198716458E+03  0.21354178681E+03  0.41800000000E+01 0.  1.
        -11    1    1    2    0    0 -0.59964213010E+02  0.16951520696E+02 -0.47741984234E+02  0.78500687604E+02  0.00000000000E+00 0.  1.
         11    1    1    2    0    0  0.19809134302E+02  0.47548574978E+02 -0.57038677039E+01  0.51824732426E+02  0.00000000000E+00 0. -1.
</event>
<event>
 7    1  0.2530765E-009  0.8970380E+02  0.7561462E-02  0.1303571E+00
          3   -1    0    0  501    0  0.00000000000E+00  0.00000000000E+00  0.12890637509E+03  0.12890637509E+03  0.00000000000E+00 0. -1.
         -3   -1    0    0    0  501 -0.00000000000E+00 -0.00000000000E+00 -0.15419609799E+03  0.15419609799E+03  0.00000000000E+00 0.  1.
         25    2    1    2    0    0 -0.82283131897E+02  0.33103319831E+02 -0.27788218500E+02  0.15584497574E+03  0.12509647396E+03 0.  0.
          5    1    3    3  502    0 -0.31401343220E+02  0.13619922218E+02  0.50027010524E+02  0.60759532744E+02  0.41800000000E+01 0. -1.
         -5    1    3    3    0  502 -0.50881788677E+02  0.19483397613E+02 -0.77815229024E+02  0.95085442995E+02  0.41800000000E+01 0. -1.
        -11    1    1    2    0    0  0.61327093617E+02 -0.16399026282E+02  0.44435928962E+02  0.77488658894E+02  0.00000000000E+00 0. -1.
         11    1    1    2    0    0  0.20956038281E+02 -0.16704293549E+02 -0.41937433360E+02  0.49768838446E+02  0.00000000000E+00 0.  1.
</event>
<event>
 7    1  0.2530765E-009  0.7349539E+02  0.7561462E-02  0.1348595E+00
         -2   -1    0    0    0  501 -0.00000000000E+00  0.00000000000E+00  0.17006126085E+03  0.17006126085E+03  0.00000000000E+00 0.  1.
          2   -1    0    0  501    0  0.00000000000E+00 -0.00000000000E+00 -0.69204543430E+02  0.69204543430E+02  0.00000000000E+00 0. -1.
         25    2    1    2    0    0 -0.25333758665E+02  0.91957947697E+01  0.53234408055E+02  0.13859244190E+03  0.12509037046E+03 0.  0.
          5    1    3    3  502    0  0.53939222060E+01  0.25345325855E+02 -0.34962053449E+02  0.43718388818E+02  0.41800000000E+01 0.  1.
         -5    1    3    3    0  502 -0.30727680871E+02 -0.16149531086E+02  0.88196461504E+02  0.94874053080E+02  0.41800000000E+01 0.  1.
        -11    1    1    2    0    0  0.54575567898E+02  0.16239168816E+01  0.17539969521E+02  0.57347887915E+02  0.00000000000E+00 0. -1.
         11    1    1    2    0    0 -0.29241809234E+02 -0.10819711651E+02  0.30082339845E+02  0.43325474470E+02  0.00000000000E+00 0.  1.
</event>
<event>
 7    1  0.2530765E-009  0.7240181E+02  0.7561462E-02  0.1352111E+00
          2   -1    0    0  501    0  0.00000000000E+00  0.00000000000E+00  0.13263878148E+04  0.13263878148E+04  0.00000000000E+00 0. -1.
         -2   -1    0    0    0  501 -0.00000000000E+00 -0.00000000000E+00 -0.15645831077E+02  0.15645831077E+02  0.00000000000E+00 0.  1.
         25    2    1    2    0    0 -0.17984430132E+02  0.32838008473E+02  0.11231635877E+04  0.11307279438E+04  0.12508982244E+03 0.  0.
          5    1    3    3  502    0 -0.23384607326E+02  0.14203534414E+02  0.48201802964E+02  0.55582969142E+02  0.41800000000E+01 0.  1.
         -5    1    3    3    0  502  0.54001771939E+01  0.18634474059E+02  0.10749617847E+04  0.10751449747E+04  0.41800000000E+01 0.  1.
        -11    1    1    2    0    0 -0.36587842505E+02 -0.17713898130E+02  0.79519962591E+02  0.89307764817E+02  0.00000000000E+00 0. -1.
         11    1    1    2    0    0  0.54572272637E+02 -0.15124110343E+02  0.10805843343E+03  0.12199793724E+03  0.00000000000E+00 0.  1.
</event>
<event>
 7    1  0.2530765E-009  0.1137461E+03  0.7561462E-02  0.1253786E+00
         -2   -1    0    0    0  501 -0.00000000000E+00  0.00000000000E+00  0.89819848831E+02  0.89819848831E+02  0.00000000000E+00 0.  1.
          2   -1    0    0  501    0  0.00000000000E+00 -0.00000000000E+00 -0.24666883532E+03  0.24666883532E+03  0.00000000000E+00 0. -1.
         25    2    1    2    0    0 -0.10602961072E+02 -0.89388472608E+02 -0.33791596473E+02  0.15777017050E+03  0.12508730107E+03 0.  0.
          5    1    3    3  502    0 -0.41253434431E+02  0.11144256789E+01  0.22093201006E+02  0.46996486333E+02  0.41800000000E+01 0. -1.
         -5    1    3    3    0  502  0.30650473359E+02 -0.90502898287E+02 -0.55884797480E+02  0.11077368417E+03  0.41800000000E+01 0. -1.
        -11    1    1    2    0    0  0.77891716171E+01  0.32865991870E+02 -0.11702917752E+03  0.12180588248E+03  0.00000000000E+00 0. -1.
         11    1    1    2    0    0  0.28137894552E+01  0.56522480739E+02 -0.60282124934E+01  0.56912631163E+02  0.00000000000E+00 0.  1.
</event>
<event>
 7    1  0.2530765E-009  0.1496676E+03  0.7561462E-02  0.1200882E+00
          2   -1    0    0  501    0  0.00000000000E+00  0.00000000000E+00  0.29429590072E+03  0.29429590072E+03  0.00000000000E+00 0. -1.
         -2   -1    0    0    0  501 -0.00000000000E+00 -0.00000000000E+00 -0.85717938270E+02  0.85717938270E+02  0.00000000000E+00 0.  1.
         25    2    1    2    0    0 -0.44355959750E+02  0.10063374669E+03  0.15061932615E+03  0.22456662501E+03  0.12509750405E+03 0.  0.
          5    1    3    3  502    0 -0.15651296781E+02 -0.28837473732E+02  0.39347951827E+02  0.51403275140E+02  0.41800000000E+01 0. -1.
         -5    1    3    3    0  502 -0.28704662968E+02  0.12947122042E+03  0.11127137432E+03  0.17316334987E+03  0.41800000000E+01 0. -1.
        -11    1    1    2    0    0  0.26130240879E+02 -0.11001789888E+03  0.23717969688E+02  0.11553903950E+03  0.00000000000E+00 0.  1.
         11    1    1    2    0    0  0.18225718871E+02  0.93841521880E+01  0.34240666611E+02  0.39908174483E+02  0.00000000000E+00 0. -1.
</event>
<event>
 7    1  0.2530765E-009  0.1126579E+03  0.7561462E-02  0.1255726E+00
         -2   -1    0    0    0  501 -0.00000000000E+00  0.00000000000E+00  0.93681023381E+01  0.93681023381E+01  0.00000000000E+00 0. -1.
          2   -1    0    0  501    0  0.00000000000E+00 -0.00000000000E+00 -0.24830350050E+04  0.24830350050E+04  0.00000000000E+00 0.  1.
         25    2    1    2    0    0  0.79130244791E+02  0.37505513689E+02 -0.18769530041E+04  0.18831528612E+04  0.12507541634E+03 0.  0.
          5    1    3    3  502    0  0.76726350155E+02  0.48767756819E+02 -0.67168241520E+03  0.67782001018E+03  0.41800000000E+01 0. -1.
         -5    1    3    3    0  502  0.24038946359E+01 -0.11262243129E+02 -0.12052705889E+04  0.12053328510E+04  0.41800000000E+01 0. -1.
        -11    1    1    2    0    0 -0.50275437218E+02  0.22798744232E+02 -0.30695223285E+03  0.31187669932E+03  0.00000000000E+00 0.  1.
         11    1    1    2    0    0 -0.28854807573E+02 -0.60304257921E+02 -0.28976166568E+03  0.29737354681E+03  0.00000000000E+00 0. -1.
</event>
<event>
 7    1  0.2530765E-009  0.1755561E+03  0.7561462E-02  0.1172175E+00
          2   -1    0    0  501    0  0.00000000000E+00  0.00000000000E+00  0.73601726562E+03  0.73601726562E+03  0.00000000000E+00 0. -1.
         -2   -1    0    0    0  501 -0.00000000000E+00 -0.00000000000E+00 -0.61425815327E+02  0.61425815327E+02  0.00000000000E+00 0.  1.
         25    2    1    2    0    0  0.13055163613E+03 -0.79783968015E+02  0.54035590764E+03  0.57536179593E+03  0.12508987988E+03 0.  0.
          5    1    3    3  502    0  0.83485150214E+02 -0.19483701173E+01  0.39567220899E+03  0.40441010845E+03  0.41800000000E+01 0.  1.
         -5    1    3    3    0  502  0.47066485911E+02 -0.77835597898E+02  0.14468369865E+03  0.17095168748E+03  0.41800000000E+01 0.  1.
        -11    1    1    2    0    0  0.13109111636E+01  0.38139301088E+02  0.35952097665E+02  0.52429744440E+02  0.00000000000E+00 0. -1.
         11    1    1    2    0    0 -0.13186254729E+03  0.41644666928E+02  0.98283444989E+02  0.16965154058E+03  0.00000000000E+00 0.  1.
</event>
<event>
 7    1  0.2530765E-009  0.1192674E+03  0.7561462E-02  0.1244311E+00
          2   -1    0    0  501    0  0.00000000000E+00  0.00000000000E+00  0.25237290559E+03  0.25237290559E+03  0.00000000000E+00 0. -1.
         -2   -1    0    0    0  501 -0.00000000000E+00 -0.00000000000E+00 -0.87751813703E+02  0.87751813703E+02  0.00000000000E+00 0.  1.
         25    2    1    2    0    0 -0.75498197298E+02  0.46644944803E+02  0.40559131186E+02  0.15864631995E+03  0.12509149867E+03 0.  0.
          5    1    3    3  502    0 -0.27595912476E+02  0.80696808038E+02 -0.28929723239E+01  0.85436238808E+02  0.41800000000E+01 0.  1.
         -5    1    3    3    0  502 -0.47902284822E+02 -0.34051863235E+02  0.43452103510E+02  0.73210081139E+02  0.41800000000E+01 0.  1.
        -11    1    1    2    0    0  0.25686601701E+02 -0.34400680606E+02 -0.43967855352E+01  0.43157155330E+02  0.00000000000E+00 0.  1.
         11    1    1    2    0    0  0.49811595597E+02 -0.12244264197E+02  0.12845874624E+03  0.13832124402E+03  0.00000000000E+00 0. -1.
</event>
<event>
 7    1  0.2530765E-009  0.2036422E+03  0.7561462E-02  0.1146702E+00
          1   -1    0    0  501    0  0.00000000000E+00  0.00000000000E+00  0.10658813380E+03  0.10658813380E+03  0.00000000000E+00 0. -1.
         -1   -1    0    0    0  501 -0.00000000000E+00 -0.00000000000E+00 -0.40502913173E+03  0.40502913173E+03  0.00000000000E+00 0.  1.
         25    2    1    2    0    0  0.13291605098E+03 -0.11678953691E+03 -0.15361985035E+03  0.26561813203E+03  0.12508981213E+03 0.  0.
          5    1    3    3  502    0  0.15071883661E+03 -0.87582815564E+02 -0.15167267358E+03  0.23110385026E+03  0.41800000000E+01 0. -1.
         -5    1    3    3    0  502 -0.17802785637E+02 -0.29206721350E+02 -0.19471767631E+01  0.34514281766E+02  0.41800000000E+01 0. -1.
        -11    1    1    2    0    0 -0.63983372572E+02  0.13445504902E+01 -0.54059765807E+02  0.83774328172E+02  0.00000000000E+00 0. -1.
         11    1    1    2    0    0 -0.68932678405E+02  0.11544498642E+03 -0.90761381783E+02  0.16222480533E+03  0.00000000000E+00 0.  1.
</event>
<event>
 7    1  0.2530765E-009  0.4319944E+03  0.7561462E-02  0.1033232E+00
         -1   -1    0    0    0  501 -0.00000000000E+00  0.00000000000E+00  0.72044710899E+02  0.72044710899E+02  0.00000000000E+00 0.  1.
          1   -1    0    0  501    0  0.00000000000E+00 -0.00000000000E+00 -0.26064263426E+04  0.26064263426E+04  0.00000000000E+00 0. -1.
         25    2    1    2    0    0  0.39858347722E+03 -0.12633547365E+03 -0.13166933523E+04  0.13871393381E+04  0.12507885104E+03 0.  0.
          5    1    3    3  502    0  0.13968881544E+03  0.12586012385E+02 -0.36176813391E+03  0.38802709696E+03  0.41800000000E+01 0. -1.
         -5    1    3    3    0  502  0.25889466178E+03 -0.13892148603E+03 -0.95492521840E+03  0.99911224110E+03  0.41800000000E+01 0. -1.
        -11    1    1    2    0    0 -0.18027319594E+03  0.56055453831E+01 -0.51743578761E+03  0.54796865021E+03  0.00000000000E+00 0. -1.
         11    1    1    2    0    0 -0.21831028128E+03  0.12072992827E+03 -0.70025249175E+03  0.74336306519E+03  0.00000000000E+00 0.  1.
</event>
<event>
 7    1  0.2530765E-009  0.1108878E+03  0.7561462E-02  0.1258935E+00
          2   -1    0    0  501    0  0.00000000000E+00  0.00000000000E+00  0.12647598076E+04  0.12647598076E+04  0.00000000000E+00 0. -1.
         -2   -1    0    0    0  501 -0.00000000000E+00 -0.00000000000E+00 -0.16130446761E+02  0.16130446761E+02  0.00000000000E+00 0.  1.
         25    2    1    2    0    0  0.76339040953E+02  0.25097654936E+01  0.91070687128E+03  0.92242626881E+03  0.12509703389E+03 0.  0.
          5    1    3    3  502    0  0.80029772143E+02  0.22040216639E+02  0.88831589909E+03  0.89219568736E+03  0.41800000000E+01 0.  1.
         -5    1    3    3    0  502 -0.36907311898E+01 -0.19530451145E+02  0.22390972198E+02  0.30230581447E+02  0.41800000000E+01 0.  1.
        -11    1    1    2    0    0 -0.32474759658E+02  0.43825134951E+02  0.13022564509E+03  0.14118771585E+03  0.00000000000E+00 0.  1.
         11    1    1    2    0    0 -0.43864281296E+02 -0.46334900444E+02  0.20769684442E+03  0.21727626966E+03  0.00000000000E+00 0. -1.
</event>
<event>
 7    1  0.2530765E-009  0.1149641E+03  0.7561462E-02  0.1251644E+00
          2   -1    0    0  501    0  0.00000000000E+00  0.00000000000E+00  0.44624332436E+03  0.44624332436E+03  0.00000000000E+00 0. -1.
         -2   -1    0    0    0  501 -0.00000000000E+00 -0.00000000000E+00 -0.46459691159E+02  0.46459691159E+02  0.00000000000E+00 0.  1.
         25    2    1    2    0    0  0.90842571001E+02  0.24519066625E+02  0.31910311860E+03  0.35542603767E+03  0.12508921062E+03 0.  0.
          5    1    3    3  502    0  0.80848860639E+02 -0.23336547634E+02  0.28083462100E+03  0.29320076650E+03  0.41800000000E+01 0. -1.
         -5    1    3    3    0  502  0.99937103622E+01  0.47855614259E+02  0.38268497600E+02  0.62225271164E+02  0.41800000000E+01 0. -1.
        -11    1    1    2    0    0 -0.26229764063E+02  0.29581639890E+01  0.57613272920E+02  0.63372237404E+02  0.00000000000E+00 0. -1.
         11    1    1    2    0    0 -0.64612806939E+02 -0.27477230614E+02  0.23067241678E+02  0.73904740452E+02  0.00000000000E+00 0.  1.
</event>
<event>
 7    1  0.2530765E-009  0.1173600E+03  0.7561462E-02  0.1247517E+00
         -1   -1    0    0    0  501 -0.00000000000E+00  0.00000000000E+00  0.14473621419E+03  0.14473621419E+03  0.00000000000E+00 0.  1.
          1   -1    0    0  501    0  0.00000000000E+00 -0.00000000000E+00 -0.14492348009E+03  0.14492348009E+03  0.00000000000E+00 0. -1.
         25    2    1    2    0    0 -0.51727979058E+02 -0.67246731798E+02 -0.40671242976E+02  0.15652729566E+03  0.12509491407E+03 0.  0.
          5    1    3    3  502    0 -0.80231776939E+02 -0.70477044665E+02 -0.35728357367E+00  0.10687259661E+03  0.41800000000E+01 0. -1.
         -5    1    3    3    0  502  0.28503797880E+02  0.32303128672E+01 -0.40313959402E+02  0.49654699048E+02  0.41800000000E+01 0. -1.
        -11    1    1    2    0    0 -0.34795469153E+00  0.40156565615E+02  0.59186532733E+02  0.71524237091E+02  0.00000000000E+00 0.  1.
         11    1    1    2    0    0  0.52075933750E+02  0.27090166183E+02 -0.18702555658E+02  0.61608161536E+02  0.00000000000E+00 0. -1.
</event>
<event>
 7    1  0.2530765E-009  0.8979116E+02  0.7561462E-02  0.1303358E+00
         -2   -1    0    0    0  501 -0.00000000000E+00  0.00000000000E+00  0.45418184693E+02  0.45418184693E+02  0.00000000000E+00 0. -1.
          2   -1    0    0  501    0  0.00000000000E+00 -0.00000000000E+00 -0.29061728920E+03  0.29061728920E+03  0.00000000000E+00 0.  1.
         25    2    1    2    0    0  0.74052780759E+01 -0.38212782891E+01 -0.19108194391E+03  0.22853858012E+03  0.12509249779E+03 0.  0.
          5    1    3    3  502    0  0.90620542750E+01 -0.57306711870E+02 -0.15019331085E+03  0.16106422035E+03  0.41800000000E+01 0.  1.
         -5    1    3    3    0  502 -0.16567761991E+01  0.53485433581E+02 -0.40888633068E+02  0.67474359774E+02  0.41800000000E+01 0.  1.
        -11    1    1    2    0    0 -0.34669026249E+02  0.15627977264E+02 -0.65452013576E+02  0.75697695708E+02  0.00000000000E+00 0. -1.
         11    1    1    2    0    0  0.27263748174E+02 -0.11806698975E+02  0.11334852985E+02  0.31799198061E+02  0.00000000000E+00 0.  1.
</event>
<event>
 7    1  0.2530765E-009  0.1377873E+03  0.7561462E-02  0.1216338E+00
          1   -1    0    0  501    0  0.00000000000E+00  0.00000000000E+00  0.13677197050E+04  0.13677197050E+04  0.00000000000E+00 0.  1.
         -1   -1    0    0    0  501 -0.00000000000E+00 -0.00000000000E+00 -0.21276979437E+02  0.21276979437E+02  0.00000000000E+00 0. -1.
         25    2    1    2    0    0 -0.66599502133E+02  0.10191283504E+03  0.91194748022E+03  0.92850250765E+03  0.12508789075E+03 0.  0.
          5    1    3    3  502    0 -0.62086816306E+02  0.96910034041E+02  0.39382345350E+03  0.41031781875E+03  0.41800000000E+01 0. -1.
         -5    1    3    3    0  502 -0.45126858275E+01  0.50028009999E+01  0.51812402672E+03  0.51818468890E+03  0.41800000000E+01 0. -1.
        -11    1    1    2    0    0 -0.23377192634E+02 -0.23084496313E+02  0.88246954163E+02  0.94164282106E+02  0.00000000000E+00 0.  1.
         11    1    1    2    0    0  0.89976694767E+02 -0.78828338727E+02  0.34624829115E+03  0.36632989465E+03  0.00000000000E+00 0. -1.
</event>
<event>
 7    1  0.2530765E-009  0.4726982E+02  0.7561462E-02  0.1460649E+00
         -1   -1    0    0    0  501 -0.00000000000E+00  0.00000000000E+00  0.60771485100E+02  0.60771485100E+02  0.00000000000E+00 0.  1.
          1   -1    0    0  501    0  0.00000000000E+00 -0.00000000000E+00 -0.22064008216E+03  0.22064008216E+03  0.00000000000E+00 0. -1.
         25    2    1    2    0    0  0.89632666386E+01  0.92173548460E+01 -0.42671430618E+02  0.13279443799E+03  0.12509281351E+03 0.  0.
          5    1    3    3  502    0  0.15511506622E+02  0.12137372446E+02  0.42600821830E+02  0.47119264300E+02  0.41800000000E+01 0.  1.
         -5    1    3    3    0  502 -0.65482399830E+01 -0.29200176000E+01 -0.85272252448E+02  0.85675173692E+02  0.41800000000E+01 0.  1.
        -11    1    1    2    0    0 -0.29986192795E+02 -0.25620475755E+02 -0.13719286295E+02  0.41758823650E+02  0.00000000000E+00 0.  1.
         11    1    1    2    0    0  0.21022926156E+02  0.16403120909E+02 -0.10347788015E+03  0.10685830562E+03  0.00000000000E+00 0. -1.
</event>
<event>
 7    1  0.2530765E-009  0.6797615E+02  0.7561462E-02  0.1367114E+00
          1   -1    0    0  501    0  0.00000000000E+00  0.00000000000E+00  0.11066102530E+03  0.11066102530E+03  0.00000000000E+00 0. -1.
         -1   -1    0    0    0  501 -0.00000000000E+00 -0.00000000000E+00 -0.12927962225E+03  0.12927962225E+03  0.00000000000E+00 0.  1.
         25    2    1    2    0    0  0.15506791888E+02 -0.26007412491E+02  0.15338925517E+02  0.12961484086E+03  0.12509147947E+03 0.  0.
          5    1    3    3  502    0  0.18912594744E+02  0.23584603045E+02 -0.43080519866E+02  0.52795107090E+02  0.41800000000E+01 0.  1.
         -5    1    3    3    0  502 -0.34058028567E+01 -0.49592015535E+02  0.58419445384E+02  0.76819733773E+02  0.41800000000E+01 0.  1.
        -11    1    1    2    0    0 -0.65416213850E+01 -0.13519218003E+02 -0.60197429593E+02  0.62042667539E+02  0.00000000000E+00 0.  1.
         11    1    1    2    0    0 -0.89651705027E+01  0.39526630493E+02  0.26239907125E+02  0.48283139150E+02  0.00000000000E+00 0. -1.
</event>
<event>
 7    1  0.2530765E-009  0.1627074E+03  0.7561462E-02  0.1185674E+00
         -1   -1    0    0    0  501 -0.00000000000E+00  0.00000000000E+00  0.77334324558E+03  0.77334324558E+03  0.00000000000E+00 0.  1.
          1   -1    0    0  501    0  0.00000000000E+00 -0.00000000000E+00 -0.47091290903E+02  0.47091290903E+02  0.00000000000E+00 0. -1.
         25    2    1    2    0    0  0.13800556323E+03  0.68864104765E+02  0.31932132137E+03  0.37603344945E+03  0.12508896200E+03 0.  0.
          5    1    3    3  502    0  0.21120677397E+02  0.47376400779E+02  0.23295679789E+02  0.57015501939E+02  0.41800000000E+01 0. -1.
         -5    1    3    3    0  502  0.11688488584E+03  0.21487703985E+02  0.29602564158E+03  0.31901794751E+03  0.41800000000E+01 0. -1.
        -11    1    1    2    0    0 -0.80989389916E+02 -0.35800966660E+02  0.33643877612E+03  0.34789659465E+03  0.00000000000E+00 0.  1.
         11    1    1    2    0    0 -0.57016173316E+02 -0.33063138105E+02  0.70491857190E+02  0.96504492388E+02  0.00000000000E+00 0. -1.
</event>
<event>
 7    1  0.2530765E-009  0.1260744E+03  0.7561462E-02  0.1233400E+00
          2   -1    0    0  501    0  0.00000000000E+00  0.00000000000E+00  0.46532447447E+02  0.46532447447E+02  0.00000000000E+00 0. -1.
         -2   -1    0    0    0  501 -0.00000000000E+00 -0.00000000000E+00 -0.51756014742E+03  0.51756014742E+03  0.00000000000E+00 0.  1.
         25    2    1    2    0    0  0.11064518518E+03 -0.25397198675E+01 -0.26665388796E+03  0.31464315368E+03  0.12508881250E+03 0.  0.
          5    1    3    3  502    0  0.50280502345E+02  0.41759330502E+02 -0.21189768098E+03  0.22178834551E+03  0.41800000000E+01 0.  1.
         -5    1    3    3    0  502  0.60364682834E+02 -0.44299050370E+02 -0.54756206984E+02  0.92854808171E+02  0.41800000000E+01 0.  1.
        -11    1    1    2    0    0 -0.88934299069E+02  0.79478291829E+01 -0.70629174001E+02  0.11384620222E+03  0.00000000000E+00 0. -1.
         11    1    1    2    0    0 -0.21710886110E+02 -0.54081093154E+01 -0.13374463801E+03  0.13560323897E+03  0.00000000000E+00 0.  1.
</event>
<event>
 7    1  0.2530765E-009  0.1167051E+03  0.7561462E-02  0.1248634E+00
          1   -1    0    0  501    0  0.00000000000E+00  0.00000000000E+00  0.52185239958E+03  0.52185239958E+03  0.00000000000E+00 0. -1.
         -1   -1    0    0    0  501 -0.00000000000E+00 -0.00000000000E+00 -0.27477633981E+02  0.27477633981E+02  0.00000000000E+00 0.  1.
         25    2    1    2    0    0 -0.36263233954E+02 -0.37967061090E+02  0.30051380903E+03  0.32971594635E+03  0.12509011149E+03 0.  0.
          5    1    3    3  502    0 -0.76902786160E+02 -0.21043660713E+01  0.21498098221E+03  0.22836979219E+03  0.41800000000E+01 0. -1.
         -5    1    3    3    0  502  0.40639552206E+02 -0.35862695019E+02  0.85532826826E+02  0.10134615416E+03  0.41800000000E+01 0. -1.
        -11    1    1    2    0    0 -0.29116301927E+02  0.88336712920E+01  0.43492761103E+02  0.53079309102E+02  0.00000000000E+00 0. -1.
         11    1    1    2    0    0  0.65379535881E+02  0.29133389798E+02  0.15036819546E+03  0.16653477811E+03  0.00000000000E+00 0.  1.
</event>
<event>
 7    1  0.2530765E-009  0.1797495E+03  0.7561462E-02  0.1168046E+00
         -1   -1    0    0    0  501 -0.00000000000E+00  0.00000000000E+00  0.93660018448E+02  0.93660018448E+02  0.00000000000E+00 0.  1.
          1   -1    0    0  501    0  0.00000000000E+00 -0.00000000000E+00 -0.39453003075E+03  0.39453003075E+03  0.00000000000E+00 0. -1.
         25    2    1    2    0    0 -0.44465878400E+02 -0.14792565057E+03 -0.19583452037E+03  0.27902989944E+03  0.12508922006E+03 0.  0.
          5    1    3    3  502    0 -0.60395004227E+02 -0.13004234954E+02 -0.49190607177E+02  0.79081318254E+02  0.41800000000E+01 0.  1.
         -5    1    3    3    0  502  0.15929125827E+02 -0.13492141562E+03 -0.14664391320E+03  0.19994858119E+03  0.41800000000E+01 0.  1.
        -11    1    1    2    0    0  0.38662505671E+02  0.48332278765E+02 -0.88562707152E+02  0.10804698799E+03  0.00000000000E+00 0. -1.
         11    1    1    2    0    0  0.58033727293E+01  0.99593371809E+02 -0.16472784775E+02  0.10111316176E+03  0.00000000000E+00 0.  1.
</event>
<event>
 7    1  0.2530765E-009  0.1723066E+03  0.7561462E-02  0.1175464E+00
         -2   -1    0    0    0  501 -0.00000000000E+00  0.00000000000E+00  0.35213875181E+02  0.35213875181E+02  0.00000000000E+00 0.  1.
          2   -1    0    0  501    0  0.00000000000E+00 -0.00000000000E+00 -0.11233396915E+04  0.11233396915E+04  0.00000000000E+00 0. -1.
         25    2    1    2    0    0  0.87616922681E+01  0.16532677175E+03 -0.52095891516E+03  0.56076299266E+03  0.12508890415E+03 0.  0.
          5    1    3    3  502    0 -0.87042263244E+01  0.11366802403E+02 -0.23519396232E+03  0.23566637449E+03  0.41800000000E+01 0. -1.
         -5    1    3    3    0  502  0.17465918593E+02  0.15395996935E+03 -0.28576495284E+03  0.32509661817E+03  0.41800000000E+01 0. -1.
        -11    1    1    2    0    0  0.18933079031E+02 -0.12067923344E+03 -0.27461590758E+03  0.30055920475E+03  0.00000000000E+00 0.  1.
         11    1    1    2    0    0 -0.27694771299E+02 -0.44647538316E+02 -0.29255099357E+03  0.29723136926E+03  0.00000000000E+00 0. -1.
</event>
<event>
 7    1  0.2530765E-009  0.9579265E+02  0.7561462E-02  0.1289401E+00
          1   -1    0    0  501    0  0.00000000000E+00  0.00000000000E+00  0.52843744154E+02  0.52843744154E+02  0.00000000000E+00 0. -1.
         -1   -1    0    0    0  501 -0.00000000000E+00 -0.00000000000E+00 -0.29635508612E+03  0.29635508612E+03  0.00000000000E+00 0.  1.
         25    2    1    2    0    0 -0.18821892437E+01 -0.33430530464E+02 -0.61564510002E+02  0.14338372810E+03  0.12509021381E+03 0.  0.
          5    1    3    3  502    0 -0.13389948116E+02 -0.71652829110E+02 -0.71334938014E+02  0.10207626762E+03  0.41800000000E+01 0.  1.
         -5    1    3    3    0  502  0.11507758872E+02  0.38222298647E+02  0.97704280115E+01  0.41307460484E+02  0.41800000000E+01 0.  1.
        -11    1    1    2    0    0  0.32694456225E+02  0.34598854320E+02 -0.16257407163E+03  0.16939993198E+03  0.00000000000E+00 0.  1.
         11    1    1    2    0    0 -0.30812266982E+02 -0.11683238562E+01 -0.19372760337E+02  0.36415170194E+02  0.00000000000E+00 0. -1.
</event>
<event>
 7    1  0.2530765E-009  0.1473915E+03  0.7561462E-02  0.1203715E+00
          1   -1    0    0  501    0  0.00000000000E+00  0.00000000000E+00  0.14281599685E+03  0.14281599685E+03  0.00000000000E+00 0. -1.
         -1   -1    0    0    0  501 -0.00000000000E+00 -0.00000000000E+00 -0.20008436386E+03  0.20008436386E+03  0.00000000000E+00 0.  1.
         25    2    1    2    0    0  0.74407129527E+02  0.93367889658E+02  0.71598000212E+01  0.17306864421E+03  0.12509000412E+03 0.  0.
          5    1    3    3  502    0 -0.13245391982E+02  0.18831944865E+02  0.45958134306E+02  0.51572328482E+02  0.41800000000E+01 0. -1.
         -5    1    3    3    0  502  0.87652521509E+02  0.74535944793E+02 -0.38798334284E+02  0.12149631573E+03  0.41800000000E+01 0. -1.
        -11    1    1    2    0    0  0.17623605378E+02 -0.52816853392E+02 -0.31703561333E+02  0.64072827860E+02  0.00000000000E+00 0.  1.
         11    1    1    2    0    0 -0.92030734905E+02 -0.40551036265E+02 -0.32724605699E+02  0.10575888865E+03  0.00000000000E+00 0. -1.
</event>
<event>
 7    1  0.2530765E-009  0.3500569E+03  0.7561462E-02  0.1062592E+00
         -1   -1    0    0    0  501 -0.00000000000E+00  0.00000000000E+00  0.77831826010E+03  0.77831826010E+03  0.00000000000E+00 0.  1.
          1   -1    0    0  501    0  0.00000000000E+00 -0.00000000000E+00 -0.16379454403E+03  0.16379454403E+03  0.00000000000E+00 0. -1.
         25    2    1    2    0    0 -0.46975228141E+02  0.33005338373E+03  0.22158601306E+03  0.41939815169E+03  0.12511011265E+03 0.  0.
          5    1    3    3  502    0 -0.89420770671E+02  0.23412847298E+03  0.16561751913E+03  0.30043110879E+03  0.41800000000E+01 0.  1.
         -5    1    3    3    0  502  0.42445542531E+02  0.95924910756E+02  0.55968493933E+02  0.11896704290E+03  0.41800000000E+01 0.  1.
        -11    1    1    2    0    0 -0.11719866902E+02 -0.21496506088E+03  0.25498970804E+03  0.33371707161E+03  0.00000000000E+00 0.  1.
         11    1    1    2    0    0  0.58695095043E+02 -0.11508832286E+03  0.13794799497E+03  0.18899758082E+03  0.00000000000E+00 0. -1.
</event>
<event>
 7    1  0.6529836E-009  0.1143863E+03  0.7561462E-02  0.1252656E+00
         -2   -1    0    0    0  501 -0.00000000000E+00  0.00000000000E+00  0.20787821527E+02  0.20787821527E+02  0.00000000000E+00 0.  1.
          2   -1    0    0  501    0  0.00000000000E+00 -0.00000000000E+00 -0.11672485253E+04  0.11672485253E+04  0.00000000000E+00 0. -1.
         25    2    1    2    0    0  0.39972917176E+02  0.65684659096E+02 -0.92339178716E+03  0.93499228043E+03  0.12508342543E+03 0.  0.
          5    1    3    3  502    0  0.73243815685E+02  0.31203786375E+02 -0.77291349419E+03  0.77701420497E+03  0.41800000000E+01 0. -1.
         -5    1    3    3    0  502 -0.33270898509E+02  0.34480872721E+02 -0.15047829297E+03  0.15797807546E+03  0.41800000000E+01 0. -1.
        -11    1    1    2    0    0  0.18342134477E+02 -0.15318210105E+02 -0.90110328457E+01  0.25539776251E+02  0.00000000000E+00 0.  1.
         11    1    1    2    0    0 -0.58315051653E+02 -0.50366448991E+02 -0.21405788378E+03  0.22750429016E+03  0.00000000000E+00 0. -1.
</event>
<event>
 7    1  0.2530765E-009  0.1106563E+03  0.7561462E-02  0.1259359E+00
          1   -1    0    0  501    0  0.00000000000E+00  0.00000000000E+00  0.76198372637E+02  0.76198372637E+02  0.00000000000E+00 0. -1.
         -1   -1    0    0    0  501 -0.00000000000E+00 -0.00000000000E+00 -0.23520851086E+03  0.23520851086E+03  0.00000000000E+00 0.  1.
         25    2    1    2    0    0 -0.60505204462E+02  0.22435538983E+02 -0.14126964181E+03  0.19941585993E+03  0.12508133481E+03 0.  0.
          5    1    3    3  502    0 -0.65763451362E+02  0.50151297297E+02 -0.14847037790E+03  0.17000267548E+03  0.41800000000E+01 0.  1.
         -5    1    3    3    0  502  0.52582468998E+01 -0.27715758314E+02  0.72007360903E+01  0.29413184452E+02  0.41800000000E+01 0.  1.
        -11    1    1    2    0    0  0.53055006462E+02  0.27318968740E+02 -0.15384698151E+02  0.61626688219E+02  0.00000000000E+00 0.  1.
         11    1    1    2    0    0  0.74501980009E+01 -0.49754507724E+02 -0.23557982549E+01  0.50364335342E+02  0.00000000000E+00 0. -1.
</event>
<event>
 7    1  0.2530765E-009  0.1598905E+03  0.7561462E-02  0.1188820E+00
          1   -1    0    0  501    0  0.00000000000E+00  0.00000000000E+00  0.75767678047E+03  0.75767678047E+03  0.00000000000E+00 0. -1.
         -1   -1    0    0    0  501 -0.00000000000E+00 -0.00000000000E+00 -0.50453826192E+02  0.50453826192E+02  0.00000000000E+00 0.  1.
         25    2    1    2    0    0 -0.82884814829E+02  0.12911244331E+03  0.26252483251E+03  0.32879644586E+03  0.12509156478E+03 0.  0.
          5    1    3    3  502    0 -0.74751798114E+02  0.13540860135E+03  0.27282841495E+03  0.31364970436E+03  0.41800000000E+01 0. -1.
         -5    1    3    3    0  502 -0.81330167151E+01 -0.62961580366E+01 -0.10303582442E+02  0.15146741499E+02  0.41800000000E+01 0. -1.
        -11    1    1    2    0    0  0.35994587674E+02 -0.67810104577E+02  0.34399208791E+03  0.35245478741E+03  0.00000000000E+00 0. -1.
         11    1    1    2    0    0  0.46890227156E+02 -0.61302338734E+02  0.10070603386E+03  0.12687937340E+03  0.00000000000E+00 0.  1.
</event>
<event>
 7    1  0.2538733E-009  0.8390265E+02  0.7561462E-02  0.1318327E+00
          4   -1    0    0  501    0  0.00000000000E+00  0.00000000000E+00  0.76021803178E+02  0.76021803178E+02  0.00000000000E+00 0. -1.
         -4   -1    0    0    0  501 -0.00000000000E+00 -0.00000000000E+00 -0.16997470937E+03  0.16997470937E+03  0.00000000000E+00 0.  1.
         25    2    1    2    0    0  0.19323055738E+02  0.25936387584E+02 -0.63227318158E+02  0.14384558853E+03  0.12509109838E+03 0.  0.
          5    1    3    3  502    0 -0.26751055538E+02  0.63804849312E+02 -0.36863245076E+02  0.78505089043E+02  0.41800000000E+01 0. -1.
         -5    1    3    3    0  502  0.46074111276E+02 -0.37868461729E+02 -0.26364073082E+02  0.65340499486E+02  0.41800000000E+01 0. -1.
        -11    1    1    2    0    0 -0.14084185766E+02 -0.20248200115E+01 -0.61331233389E+02  0.62960180859E+02  0.00000000000E+00 0.  1.
         11    1    1    2    0    0 -0.52388699725E+01 -0.23911567572E+02  0.30605645351E+02  0.39190743163E+02  0.00000000000E+00 0. -1.
</event>
<event>
 7    1  0.2530765E-009  0.1465208E+03  0.7561462E-02  0.1204815E+00
          1   -1    0    0  501    0  0.00000000000E+00  0.00000000000E+00  0.87319987144E+03  0.87319987144E+03  0.00000000000E+00 0. -1.
         -1   -1    0    0    0  501 -0.00000000000E+00 -0.00000000000E+00 -0.31375387301E+02  0.31375387301E+02  0.00000000000E+00 0.  1.
         25    2    1    2    0    0 -0.11640043663E+03  0.46139385942E+02  0.35914866564E+03  0.40039141030E+03  0.12509041863E+03 0.  0.
          5    1    3    3  502    0 -0.49498003568E+02 -0.26334916646E+02  0.47898105397E+02  0.73859874713E+02  0.41800000000E+01 0.  1.
         -5    1    3    3    0  502 -0.66902433059E+02  0.72474302588E+02  0.31125056024E+03  0.32653153559E+03  0.41800000000E+01 0.  1.
        -11    1    1    2    0    0  0.25856430796E+02 -0.39630272110E+02  0.96437343676E+02  0.10742101627E+03  0.00000000000E+00 0.  1.
         11    1    1    2    0    0  0.90544005830E+02 -0.65091138323E+01  0.38623847482E+03  0.39676283216E+03  0.00000000000E+00 0. -1.
</event>
<event>
 7    1  0.2530765E-009  0.1377577E+03  0.7561462E-02  0.1216378E+00
          1   -1    0    0  501    0  0.00000000000E+00  0.00000000000E+00  0.97728608391E+02  0.97728608391E+02  0.00000000000E+00 0. -1.
         -1   -1    0    0    0  501 -0.00000000000E+00 -0.00000000000E+00 -0.36999978850E+03  0.36999978850E+03  0.00000000000E+00 0.  1.
         25    2    1    2    0    0  0.10887251164E+03  0.22164451878E+02 -0.27759166276E+03  0.32410900133E+03  0.12508008150E+03 0.  0.
          5    1    3    3  502    0  0.21850909418E+02 -0.47685289022E+02 -0.62034851561E+02  0.81345831115E+02  0.41800000000E+01 0.  1.
         -5    1    3    3    0  502  0.87021602222E+02  0.69849740901E+02 -0.21555681120E+03  0.24276317021E+03  0.41800000000E+01 0.  1.
        -11    1    1    2    0    0 -0.87098422147E+02 -0.15567334418E+02 -0.36737066977E+02  0.95802344082E+02  0.00000000000E+00 0.  1.
         11    1    1    2    0    0 -0.21774089493E+02 -0.65971174605E+01  0.42057549626E+02  0.47817051484E+02  0.00000000000E+00 0. -1.
</event>
<event>
 7    1  0.2530765E-009  0.1052201E+03  0.7561462E-02  0.1269687E+00
         -2   -1    0    0    0  501 -0.00000000000E+00  0.00000000000E+00  0.53715884387E+02  0.53715884387E+02  0.00000000000E+00 0. -1.
          2   -1    0    0  501    0  0.00000000000E+00 -0.00000000000E+00 -0.25950350881E+03  0.25950350881E+03  0.00000000000E+00 0.  1.
         25    2    1    2    0    0  0.41891764719E+02 -0.17783387864E+02 -0.84552148206E+02  0.15768837785E+03  0.12508153304E+03 0.  0.
          5    1    3    3  502    0  0.53188130824E+01  0.46240009013E+02 -0.67155666036E+02  0.81815549175E+02  0.41800000000E+01 0. -1.
         -5    1    3    3    0  502  0.36572951637E+02 -0.64023396877E+02 -0.17396482170E+02  0.75872828674E+02  0.41800000000E+01 0. -1.
        -11    1    1    2    0    0 -0.64946819251E+02  0.11461385710E+02 -0.57633703658E+02  0.87584796001E+02  0.00000000000E+00 0.  1.
         11    1    1    2    0    0  0.23055054532E+02  0.63220021546E+01 -0.63601772564E+02  0.67946219350E+02  0.00000000000E+00 0. -1.
</event>
<event>
 7    1  0.2530765E-009  0.1289052E+03  0.7561462E-02  0.1229089E+00
         -1   -1    0    0    0  501 -0.00000000000E+00  0.00000000000E+00  0.61975442813E+02  0.61975442813E+02  0.00000000000E+00 0.  1.
          1   -1    0    0  501    0  0.00000000000E+00 -0.00000000000E+00 -0.30857040002E+03  0.30857040002E+03  0.00000000000E+00 0. -1.
         25    2    1    2    0    0 -0.78253916702E+02 -0.33955213774E+02 -0.14668607739E+03  0.21080916958E+03  0.12508824349E+03 0.  0.
          5    1    3    3  502    0 -0.26453021547E+02  0.46694617626E+02 -0.38334980019E+02  0.66084739216E+02  0.41800000000E+01 0. -1.
         -5    1    3    3    0  502 -0.51800895154E+02 -0.80649831400E+02 -0.10835109737E+03  0.14472443037E+03  0.41800000000E+01 0. -1.
        -11    1    1    2    0    0  0.80193213229E+02  0.48264416985E+02 -0.10821631019E+03  0.14307751460E+03  0.00000000000E+00 0. -1.
         11    1    1    2    0    0 -0.19392965268E+01 -0.14309203212E+02  0.83074303667E+01  0.16659158648E+02  0.00000000000E+00 0.  1.
</event>
<event>
 7    1  0.2530765E-009  0.1847762E+03  0.7561462E-02  0.1163259E+00
          1   -1    0    0  501    0  0.00000000000E+00  0.00000000000E+00  0.14979978608E+03  0.14979978608E+03  0.00000000000E+00 0. -1.
         -1   -1    0    0    0  501 -0.00000000000E+00 -0.00000000000E+00 -0.25996557521E+03  0.25996557521E+03  0.00000000000E+00 0.  1.
         25    2    1    2    0    0 -0.16003918234E+02  0.16302341617E+03 -0.45589500386E+02  0.21108869460E+03  0.12508906758E+03 0.  0.
          5    1    3    3  502    0  0.51127541289E+02  0.70721839241E+02 -0.41711610429E+02  0.96813918774E+02  0.41800000000E+01 0.  1.
         -5    1    3    3    0  502 -0.67131459523E+02  0.92301576925E+02 -0.38778899570E+01  0.11427477583E+03  0.41800000000E+01 0.  1.
        -11    1    1    2    0    0 -0.11700913076E+02 -0.67870177905E+02  0.16283753349E+02  0.70770283586E+02  0.00000000000E+00 0. -1.
         11    1    1    2    0    0  0.27704831310E+02 -0.95153238261E+02 -0.80860042100E+02  0.12790638310E+03  0.00000000000E+00 0.  1.
</event>
<event>
 7    1  0.2530765E-009  0.9863417E+02  0.7561462E-02  0.1283195E+00
          1   -1    0    0  501    0  0.00000000000E+00  0.00000000000E+00  0.74495804781E+02  0.74495804781E+02  0.00000000000E+00 0. -1.
         -1   -1    0    0    0  501 -0.00000000000E+00 -0.00000000000E+00 -0.30160898470E+03  0.30160898470E+03  0.00000000000E+00 0.  1.
         25    2    1    2    0    0 -0.17199125405E+02 -0.49579951017E+02 -0.23407009734E+03  0.27053745784E+03  0.12509086364E+03 0.  0.
          5    1    3    3  502    0 -0.59248348901E+02 -0.45243546313E+02 -0.74751735000E+02  0.10565339377E+03  0.41800000000E+01 0. -1.
         -5    1    3    3    0  502  0.42049223497E+02 -0.43364047046E+01 -0.15931836234E+03  0.16488406406E+03  0.41800000000E+01 0. -1.
        -11    1    1    2    0    0 -0.22674083884E+02  0.22376059233E+02 -0.30780454536E+02  0.44297161176E+02  0.00000000000E+00 0.  1.
         11    1    1    2    0    0  0.39873209288E+02  0.27203891785E+02  0.37737371958E+02  0.61270170471E+02  0.00000000000E+00 0. -1.
</event>
<event>
 7    1  0.2530765E-009  0.9663637E+02  0.7561462E-02  0.1287533E+00
          2   -1    0    0  501    0  0.00000000000E+00  0.00000000000E+00  0.83286478133E+02  0.83286478133E+02  0.00000000000E+00 0. -1.
         -2   -1    0    0    0  501 -0.00000000000E+00 -0.00000000000E+00 -0.20885659852E+03  0.20885659852E+03  0.00000000000E+00 0.  1.
         25    2    1    2    0    0  0.25713482371E+02 -0.69975863740E+02 -0.78018453952E+02  0.16520421859E+03  0.12509096690E+03 0.  0.
          5    1    3    3  502    0  0.10723281153E+02 -0.70168877784E+01  0.33549469207E+02  0.36156116452E+02  0.41800000000E+01 0. -1.
         -5    1    3    3    0  502  0.14990201218E+02 -0.62958975962E+02 -0.11156792316E+03  0.12904810214E+03  0.41800000000E+01 0. -1.
        -11    1    1    2    0    0 -0.58093159389E+02  0.51648597573E+02 -0.18950237394E+02  0.80009401300E+02  0.00000000000E+00 0. -1.
         11    1    1    2    0    0  0.32379677019E+02  0.18327266167E+02 -0.28601429039E+02  0.46929456763E+02  0.00000000000E+00 0.  1.
</event>
<event>
 7    1  0.2530765E-009  0.2011570E+03  0.7561462E-02  0.1148767E+00
         -2   -1    0    0    0  501 -0.00000000000E+00  0.00000000000E+00  0.76294903637E+02  0.76294903637E+02  0.00000000000E+00 0.  1.
          2   -1    0    0  501    0  0.00000000000E+00 -0.00000000000E+00 -0.75127352934E+03  0.75127352934E+03  0.00000000000E+00 0. -1.
         25    2    1    2    0    0 -0.57933580818E+02 -0.18428310605E+03 -0.19279500737E+03  0.30022087429E+03  0.12508435366E+03 0.  0.
          5    1    3    3  502    0 -0.48780175164E+02 -0.12917657270E+03 -0.20070075216E+03  0.24364801814E+03  0.41800000000E+01 0.  1.
         -5    1    3    3    0  502 -0.91534056541E+01 -0.55106533353E+02  0.79057447881E+01  0.56572856158E+02  0.41800000000E+01 0.  1.
        -11    1    1    2    0    0  0.58941035202E+02  0.60850365428E+02 -0.14065657887E+03  0.16419831236E+03  0.00000000000E+00 0. -1.
         11    1    1    2    0    0 -0.10074543836E+01  0.12343274062E+03 -0.34152703946E+03  0.36314924632E+03  0.00000000000E+00 0.  1.
</event>
<event>
 7    1  0.2530765E-009  0.8199497E+02  0.7561462E-02  0.1323483E+00
          1   -1    0    0  501    0  0.00000000000E+00  0.00000000000E+00  0.77100572384E+02  0.77100572384E+02  0.00000000000E+00 0. -1.
         -1   -1    0    0    0  501 -0.00000000000E+00 -0.00000000000E+00 -0.16701802826E+03  0.16701802826E+03  0.00000000000E+00 0.  1.
         25    2    1    2    0    0  0.18801014365E+02  0.26538689391E+02 -0.34632709108E+02  0.13380820162E+03  0.12508968824E+03 0.  0.
          5    1    3    3  502    0 -0.45813131335E+01  0.73439826347E+02 -0.60032850287E+01  0.73945306512E+02  0.41800000000E+01 0.  1.
         -5    1    3    3    0  502  0.23382327499E+02 -0.46901136957E+02 -0.28629424079E+02  0.59862895104E+02  0.41800000000E+01 0.  1.
        -11    1    1    2    0    0 -0.13722915141E+02 -0.35525217229E+01  0.23852186859E+02  0.27746452539E+02  0.00000000000E+00 0. -1.
         11    1    1    2    0    0 -0.50780992243E+01 -0.22986167668E+02 -0.79136933628E+02  0.82563946489E+02  0.00000000000E+00 0.  1.
</event>
<event>
 7    1  0.2530765E-009  0.1826500E+03  0.7561462E-02  0.1165263E+00
          3   -1    0    0  501    0  0.00000000000E+00  0.00000000000E+00  0.64256942900E+03  0.64256942900E+03  0.00000000000E+00 0. -1.
         -3   -1    0    0    0  501 -0.00000000000E+00 -0.00000000000E+00 -0.75007145905E+02  0.75007145905E+02  0.00000000000E+00 0.  1.
         25    2    1    2    0    0  0.10820529491E+03 -0.11058757571E+03  0.47758834059E+03  0.51737450441E+03  0.12509099485E+03 0.  0.
          5    1    3    3  502    0 -0.14712193898E+02 -0.60107439578E+02  0.20356461326E+03  0.21280361161E+03  0.41800000000E+01 0. -1.
         -5    1    3    3    0  502  0.12291748881E+03 -0.50480136135E+02  0.27402372733E+03  0.30457089280E+03  0.41800000000E+01 0. -1.
        -11    1    1    2    0    0  0.10663843261E+02  0.98910606393E+01  0.29869260762E+02  0.33222332431E+02  0.00000000000E+00 0. -1.
         11    1    1    2    0    0 -0.11886913817E+03  0.10069651507E+03  0.60104681742E+02  0.16697973807E+03  0.00000000000E+00 0.  1.
</event>
<event>
 7    1  0.2530765E-009  0.1812367E+03  0.7561462E-02  0.1166611E+00
          1   -1    0    0  501    0  0.00000000000E+00  0.00000000000E+00  0.12813723328E+04  0.12813723328E+04  0.00000000000E+00 0. -1.
         -1   -1    0    0    0  501 -0.00000000000E+00 -0.00000000000E+00 -0.43348888351E+02  0.43348888351E+02  0.00000000000E+00 0.  1.
         25    2    1    2    0    0  0.13403037426E+03 -0.73999910066E+02  0.24021482776E+03  0.31111393470E+03  0.12509432032E+03 0.  0.
          5    1    3    3  502    0  0.28295079009E+02 -0.73173586791E+02  0.16026538276E+03  0.17848655583E+03  0.41800000000E+01 0. -1.
         -5    1    3    3    0  502  0.10573529525E+03 -0.82632327574E+00  0.79949444997E+02  0.13262737887E+03  0.41800000000E+01 0. -1.
        -11    1    1    2    0    0 -0.76287764453E+01 -0.19449874856E+02  0.10331487977E+03  0.10540616796E+03  0.00000000000E+00 0.  1.
         11    1    1    2    0    0 -0.12640159781E+03  0.93449784922E+02  0.89449373690E+03  0.90820111847E+03  0.00000000000E+00 0. -1.
</event>
<event>
 7    1  0.2530765E-009  0.1322722E+03  0.7561462E-02  0.1224123E+00
         -2   -1    0    0    0  501 -0.00000000000E+00  0.00000000000E+00  0.31270571641E+02  0.31270571641E+02  0.00000000000E+00 0.  1.
          2   -1    0    0  501    0  0.00000000000E+00 -0.00000000000E+00 -0.73707463944E+03  0.73707463944E+03  0.00000000000E+00 0. -1.
         25    2    1    2    0    0  0.67496594521E+02 -0.44264242661E+02 -0.55792488719E+03  0.57744473918E+03  0.12508850308E+03 0.  0.
          5    1    3    3  502    0 -0.31098188071E+02  0.10423473586E+02 -0.18105195137E+03  0.18404626483E+03  0.41800000000E+01 0.  1.
         -5    1    3    3    0  502  0.98594782592E+02 -0.54687716247E+02 -0.37687293582E+03  0.39339847434E+03  0.41800000000E+01 0.  1.
        -11    1    1    2    0    0 -0.23963524810E+02  0.65843702630E+02 -0.10418481179E+03  0.12555524164E+03  0.00000000000E+00 0. -1.
         11    1    1    2    0    0 -0.43533069711E+02 -0.21579459969E+02 -0.43694368817E+02  0.65345230257E+02  0.00000000000E+00 0.  1.
</event>
<event>
 7    1  0.2530765E-009  0.1767044E+03  0.7561462E-02  0.1171031E+00
         -1   -1    0    0    0  501 -0.00000000000E+00  0.00000000000E+00  0.68099850790E+02  0.68099850790E+02  0.00000000000E+00 0.  1.
          1   -1    0    0  501    0  0.00000000000E+00 -0.00000000000E+00 -0.52802933796E+03  0.52802933796E+03  0.00000000000E+00 0. -1.
         25    2    1    2    0    0 -0.15370291838E+03  0.40057265557E+00 -0.20479967509E+03  0.28497855893E+03  0.12508047232E+03 0.  0.
          5    1    3    3  502    0 -0.63899172794E+02 -0.43218041449E+02 -0.28527348086E+02  0.82354024670E+02  0.41800000000E+01 0. -1.
         -5    1    3    3    0  502 -0.89803745589E+02  0.43618614104E+02 -0.17627232701E+03  0.20262453426E+03  0.41800000000E+01 0. -1.
        -11    1    1    2    0    0  0.13648676372E+03  0.31414287481E+02 -0.21949875093E+03  0.26037510593E+03  0.00000000000E+00 0. -1.
         11    1    1    2    0    0  0.17216154661E+02 -0.31814860136E+02 -0.35631061145E+02  0.50775523879E+02  0.00000000000E+00 0.  1.
</event>
<event>
 7    1  0.2530765E-009  0.8407873E+02  0.7561462E-02  0.1317859E+00
         -4   -1    0    0    0  501 -0.00000000000E+00  0.00000000000E+00  0.73399643148E+03  0.73399643148E+03  0.00000000000E+00 0.  1.
          4   -1    0    0  501    0  0.00000000000E+00 -0.00000000000E+00 -0.20470055036E+02  0.20470055036E+02  0.00000000000E+00 0. -1.
         25    2    1    2    0    0 -0.44883326062E+01 -0.21710261665E+02  0.55796858855E+03  0.57224833713E+03  0.12509089875E+03 0.  0.
          5    1    3    3  502    0  0.19666200942E+02 -0.46136321156E+02  0.51321168927E+03  0.51567337530E+03  0.41800000000E+01 0.  1.
         -5    1    3    3    0  502 -0.24154533548E+02  0.24426059491E+02  0.44756899281E+02  0.56574961833E+02  0.41800000000E+01 0.  1.
        -11    1    1    2    0    0  0.11919810604E+02 -0.29323203569E+02  0.10626066827E+03  0.11087498263E+03  0.00000000000E+00 0.  1.
         11    1    1    2    0    0 -0.74314779981E+01  0.51033465234E+02  0.49297119626E+02  0.71343166754E+02  0.00000000000E+00 0. -1.
</event>
<event>
 7    1  0.2530765E-009  0.9678942E+02  0.7561462E-02  0.1287196E+00
         -1   -1    0    0    0  501 -0.00000000000E+00  0.00000000000E+00  0.53008333747E+03  0.53008333747E+03  0.00000000000E+00 0.  1.
          1   -1    0    0  501    0  0.00000000000E+00 -0.00000000000E+00 -0.24834813266E+02  0.24834813266E+02  0.00000000000E+00 0. -1.
         25    2    1    2    0    0  0.21126049018E+02  0.35437479648E+02  0.32880162173E+03  0.35420183271E+03  0.12508519868E+03 0.  0.
          5    1    3    3  502    0  0.41315680393E+02  0.60573431383E+02  0.30549968602E+03  0.31420320907E+03  0.41800000000E+01 0. -1.
         -5    1    3    3    0  502 -0.20189631375E+02 -0.25135951735E+02  0.23301935718E+02  0.39998623637E+02  0.41800000000E+01 0. -1.
        -11    1    1    2    0    0  0.15397365870E+02 -0.46887886755E+02  0.57562762669E+02  0.75822321556E+02  0.00000000000E+00 0. -1.
         11    1    1    2    0    0 -0.36523414888E+02  0.11450407107E+02  0.11888413980E+03  0.12489399647E+03  0.00000000000E+00 0.  1.
</event>
<event>
 7    1  0.2530765E-009  0.9692180E+02  0.7561462E-02  0.1286905E+00
          2   -1    0    0  501    0  0.00000000000E+00  0.00000000000E+00  0.13318338369E+03  0.13318338369E+03  0.00000000000E+00 0. -1.
         -2   -1    0    0    0  501 -0.00000000000E+00 -0.00000000000E+00 -0.14458969384E+03  0.14458969384E+03  0.00000000000E+00 0.  1.
         25    2    1    2    0    0  0.68469512529E+02  0.35363444700E+02  0.31726337564E+02  0.15032129464E+03  0.12510509087E+03 0.  0.
          5    1    3    3  502    0  0.40358082741E+02  0.57862797403E+02  0.68688031964E+02  0.98551490608E+02  0.41800000000E+01 0. -1.
         -5    1    3    3    0  502  0.28111429788E+02 -0.22499352703E+02 -0.36961694400E+02  0.51769804034E+02  0.41800000000E+01 0. -1.
        -11    1    1    2    0    0 -0.39173237623E+02  0.22620973106E+01  0.23331146975E+02  0.45650871287E+02  0.00000000000E+00 0. -1.
         11    1    1    2    0    0 -0.29296274906E+02 -0.37625542010E+02 -0.66463794682E+02  0.81800911600E+02  0.00000000000E+00 0.  1.
</event>
<event>
 7    1  0.3067339E-009  0.1295495E+03  0.7561462E-02  0.1228126E+00
         -1   -1    0    0    0  501 -0.00000000000E+00  0.00000000000E+00  0.37215860956E+02  0.37215860956E+02  0.00000000000E+00 0.  1.
          1   -1    0    0  501    0  0.00000000000E+00 -0.00000000000E+00 -0.57627274227E+03  0.57627274227E+03  0.00000000000E+00 0. -1.
         25    2    1    2    0    0  0.92670538709E+02  0.24085555415E+02 -0.33557541763E+03  0.37071079129E+03  0.12509071563E+03 0.  0.
          5    1    3    3  502    0 -0.78205635866E+01 -0.35325898270E+02 -0.47532906242E+02  0.59882634204E+02  0.41800000000E+01 0.  1.
         -5    1    3    3    0  502  0.10049110230E+03  0.59411453686E+02 -0.28804251138E+03  0.31082815708E+03  0.41800000000E+01 0.  1.
        -11    1    1    2    0    0 -0.53287712188E+02 -0.36476424503E+02 -0.44254070785E+02  0.78284944886E+02  0.00000000000E+00 0.  1.
         11    1    1    2    0    0 -0.39382826521E+02  0.12390869088E+02 -0.15922739291E+03  0.16449286706E+03  0.00000000000E+00 0. -1.
</event>
<event>
 7    1  0.2530765E-009  0.7987601E+02  0.7561462E-02  0.1329404E+00
          2   -1    0    0  501    0  0.00000000000E+00  0.00000000000E+00  0.30265098975E+03  0.30265098975E+03  0.00000000000E+00 0. -1.
         -2   -1    0    0    0  501 -0.00000000000E+00 -0.00000000000E+00 -0.41531831666E+02  0.41531831666E+02  0.00000000000E+00 0.  1.
         25    2    1    2    0    0  0.22335461233E+02 -0.13531270159E+02  0.12686229693E+03  0.18006490372E+03  0.12508940430E+03 0.  0.
          5    1    3    3  502    0  0.10306069616E+02  0.37061289146E+02 -0.42764979216E+01  0.38929616728E+02  0.41800000000E+01 0. -1.
         -5    1    3    3    0  502  0.12029391617E+02 -0.50592559305E+02  0.13113879485E+03  0.14113528699E+03  0.41800000000E+01 0. -1.
        -11    1    1    2    0    0  0.54586097836E+01 -0.22629768628E+02  0.10311314990E+01  0.23301632585E+02  0.00000000000E+00 0.  1.
         11    1    1    2    0    0 -0.27794071017E+02  0.36161038788E+02  0.13322572965E+03  0.14081628511E+03  0.00000000000E+00 0. -1.
</event>
<event>
 7    1  0.2530765E-009  0.9836801E+02  0.7561462E-02  0.1283766E+00
          2   -1    0    0  501    0  0.00000000000E+00  0.00000000000E+00  0.28451534318E+02  0.28451534318E+02  0.00000000000E+00 0. -1.
         -2   -1    0    0    0  501 -0.00000000000E+00 -0.00000000000E+00 -0.39287249187E+03  0.39287249187E+03  0.00000000000E+00 0.  1.
         25    2    1    2    0    0  0.39329076758E+00  0.11372396205E+02 -0.22086138381E+03  0.25407801873E+03  0.12508558139E+03 0.  0.
          5    1    3    3  502    0 -0.58372534842E+02  0.26415280372E+02 -0.12570532795E+03  0.14115389380E+03  0.41800000000E+01 0.  1.
         -5    1    3    3    0  502  0.58765825610E+02 -0.15042884167E+02 -0.95156055862E+02  0.11292412493E+03  0.41800000000E+01 0.  1.
        -11    1    1    2    0    0 -0.86319966201E+01 -0.40522734606E+02 -0.34063461338E+02  0.53636953530E+02  0.00000000000E+00 0. -1.
         11    1    1    2    0    0  0.82387058525E+01  0.29150338401E+02 -0.10949611240E+03  0.11360905393E+03  0.00000000000E+00 0.  1.
</event>
<event>
 7    1  0.2530765E-009  0.8995732E+02  0.7561462E-02  0.1302955E+00
          1   -1    0    0  501    0  0.00000000000E+00  0.00000000000E+00  0.14123000381E+02  0.14123000381E+02  0.00000000000E+00 0. -1.
         -1   -1    0    0    0  501 -0.00000000000E+00 -0.00000000000E+00 -0.91723053825E+03  0.91723053825E+03  0.00000000000E+00 0.  1.
         25    2    1    2    0    0  0.28739902419E+02  0.18675065644E+02 -0.47659199349E+03  0.49392488524E+03  0.12508846443E+03 0.  0.
          5    1    3    3  502    0  0.50793923116E+02 -0.79793841037E+01 -0.76201456656E+02  0.92020799783E+02  0.41800000000E+01 0.  1.
         -5    1    3    3    0  502 -0.22054020697E+02  0.26654449747E+02 -0.40039053684E+03  0.40190408546E+03  0.41800000000E+01 0.  1.
        -11    1    1    2    0    0 -0.54103373694E+01  0.34758305871E+02 -0.10690858152E+03  0.11254712960E+03  0.00000000000E+00 0.  1.
         11    1    1    2    0    0 -0.23329565050E+02 -0.53433371515E+02 -0.31960696285E+03  0.32488152379E+03  0.00000000000E+00 0. -1.
</event>
<event>
 7    1  0.2530765E-009  0.7661757E+02  0.7561462E-02  0.1338934E+00
          4   -1    0    0  501    0  0.00000000000E+00  0.00000000000E+00  0.28166493963E+03  0.28166493963E+03  0.00000000000E+00 0. -1.
         -4   -1    0    0    0  501 -0.00000000000E+00 -0.00000000000E+00 -0.67117567229E+02  0.67117567229E+02  0.00000000000E+00 0.  1.
         25    2    1    2    0    0 -0.26797598944E+02 -0.88877050218E+01  0.21716904821E+03  0.25220524441E+03  0.12509191499E+03 0.  0.
          5    1    3    3  502    0  0.25091554198E+02  0.89617651511E+01  0.18799198251E+03  0.18991671125E+03  0.41800000000E+01 0.  1.
         -5    1    3    3    0  502 -0.51889153142E+02 -0.17849470173E+02  0.29177065703E+02  0.62288533152E+02  0.41800000000E+01 0.  1.
        -11    1    1    2    0    0 -0.20105963706E+02  0.13323951463E+02 -0.32735902345E+02  0.40662227699E+02  0.00000000000E+00 0.  1.
         11    1    1    2    0    0  0.46903562650E+02 -0.44362464410E+01  0.30114226538E+02  0.55915034755E+02  0.00000000000E+00 0. -1.
</event>
<event>
 7    1  0.2530765E-009  0.9416838E+02  0.7561462E-02  0.1293060E+00
         -1   -1    0    0    0  501 -0.00000000000E+00  0.00000000000E+00  0.86068900865E+02  0.86068900865E+02  0.00000000000E+00 0.  1.
          1   -1    0    0  501    0  0.00000000000E+00 -0.00000000000E+00 -0.15627044187E+03  0.15627044187E+03  0.00000000000E+00 0. -1.
         25    2    1    2    0    0  0.39420071565E+01  0.15261533893E+02 -0.83054651257E+02  0.15097913591E+03  0.12509264786E+03 0.  0.
          5    1    3    3  502    0 -0.54061573083E+02 -0.15917840704E+02 -0.56320017778E+02  0.79783758619E+02  0.41800000000E+01 0. -1.
         -5    1    3    3    0  502  0.58003580239E+02  0.31179374597E+02 -0.26734633478E+02  0.71195377294E+02  0.41800000000E+01 0. -1.
        -11    1    1    2    0    0  0.33919187997E+01 -0.39945921650E+02 -0.23757457007E+02  0.46600413443E+02  0.00000000000E+00 0. -1.
         11    1    1    2    0    0 -0.73339259562E+01  0.24684387757E+02  0.36610567255E+02  0.44759793382E+02  0.00000000000E+00 0.  1.
</event>
<event>
 7    1  0.2530765E-009  0.1152835E+03  0.7561462E-02  0.1251087E+00
         -2   -1    0    0    0  501 -0.00000000000E+00  0.00000000000E+00  0.51822755065E+02  0.51822755065E+02  0.00000000000E+00 0.  1.
          2   -1    0    0  501    0  0.00000000000E+00 -0.00000000000E+00 -0.33711649792E+03  0.33711649792E+03  0.00000000000E+00 0. -1.
         25    2    1    2    0    0  0.59087147462E+02  0.38153191323E+02 -0.11439804777E+03  0.18352708158E+03  0.12509324258E+03 0.  0.
          5    1    3    3  502    0  0.29773652714E+01  0.58147726270E+02 -0.10890464209E+03  0.12356260051E+03  0.41800000000E+01 0.  1.
         -5    1    3    3    0  502  0.56109782191E+02 -0.19994534946E+02 -0.54934056765E+01  0.59964481080E+02  0.41800000000E+01 0.  1.
        -11    1    1    2    0    0 -0.62606043933E+01 -0.56282879929E+02 -0.10256381524E+03  0.11715926739E+03  0.00000000000E+00 0. -1.
         11    1    1    2    0    0 -0.52826543069E+02  0.18129688606E+02 -0.68331879846E+02  0.88252904002E+02  0.00000000000E+00 0.  1.
</event>
<event>
 7    1  0.2530765E-009  0.1216403E+03  0.7561462E-02  0.1240415E+00
          2   -1    0    0  501    0  0.00000000000E+00  0.00000000000E+00  0.31094096679E+03  0.31094096679E+03  0.00000000000E+00 0. -1.
         -2   -1    0    0    0  501 -0.00000000000E+00 -0.00000000000E+00 -0.61705773975E+02  0.61705773975E+02  0.00000000000E+00 0.  1.
         25    2    1    2    0    0 -0.66643872073E+02  0.50578142581E+02  0.15207373191E+03  0.21394999183E+03  0.12509446380E+03 0.  0.
          5    1    3    3  502    0  0.41172957863E+00 -0.27340093560E+02 -0.30290864584E+01  0.27826210699E+02  0.41800000000E+01 0. -1.
         -5    1    3    3    0  502 -0.67055601652E+02  0.77918236141E+02  0.15510281837E+03  0.18612378113E+03  0.41800000000E+01 0. -1.
        -11    1    1    2    0    0  0.83514298332E+02 -0.38345507994E+02  0.44585183403E+02  0.10214134613E+03  0.00000000000E+00 0.  1.
         11    1    1    2    0    0 -0.16870426259E+02 -0.12232634587E+02  0.52576277501E+02  0.56555402810E+02  0.00000000000E+00 0. -1.
</event>
<event>
 7    1  0.2530765E-009  0.8288972E+02  0.7561462E-02  0.1321045E+00
         -2   -1    0    0    0  501 -0.00000000000E+00  0.00000000000E+00  0.58334616318E+03  0.58334616318E+03  0.00000000000E+00 0.  1.
          2   -1    0    0  501    0  0.00000000000E+00 -0.00000000000E+00 -0.27087976073E+02  0.27087976073E+02  0.00000000000E+00 0. -1.
         25    2    1    2    0    0 -0.47843081047E+02 -0.58528276180E+01  0.40539352588E+03  0.42698069705E+03  0.12508152876E+03 0.  0.
          5    1    3    3  502    0 -0.49296596037E+02 -0.27400640345E+02  0.66172754275E+02  0.87047431211E+02  0.41800000000E+01 0.  1.
         -5    1    3    3    0  502  0.14535149895E+01  0.21547812727E+02  0.33922077160E+03  0.33993326584E+03  0.41800000000E+01 0.  1.
        -11    1    1    2    0    0  0.31866289901E+02 -0.32599949605E+02  0.27474157861E+02  0.53226370311E+02  0.00000000000E+00 0. -1.
         11    1    1    2    0    0  0.15976791146E+02  0.38452777223E+02  0.12339050337E+03  0.13022707189E+03  0.00000000000E+00 0.  1.
</event>
<event>
 7    1  0.2530765E-009  0.9404984E+02  0.7561462E-02  0.1293331E+00
         -1   -1    0    0    0  501 -0.00000000000E+00  0.00000000000E+00  0.25995216758E+02  0.25995216758E+02  0.00000000000E+00 0.  1.
          1   -1    0    0  501    0  0.00000000000E+00 -0.00000000000E+00 -0.40257911851E+03  0.40257911851E+03  0.00000000000E+00 0. -1.
         25    2    1    2    0    0 -0.33228799830E+02 -0.17147521404E+02 -0.23596617103E+03  0.26968564912E+03  0.12510845232E+03 0.  0.
          5    1    3    3  502    0 -0.55951082716E+02  0.31140478845E+02 -0.68452552532E+02  0.93826848119E+02  0.41800000000E+01 0. -1.
         -5    1    3    3    0  502  0.22722282886E+02 -0.48288000249E+02 -0.16751361850E+03  0.17585880100E+03  0.41800000000E+01 0. -1.
        -11    1    1    2    0    0 -0.88518030599E+01  0.25941462019E+02 -0.80068296030E+02  0.84630053163E+02  0.00000000000E+00 0.  1.
         11    1    1    2    0    0  0.42080602890E+02 -0.87939406150E+01 -0.60549434688E+02  0.74258632981E+02  0.00000000000E+00 0. -1.
</event>
<event>
 7    1  0.2530765E-009  0.1160179E+03  0.7561462E-02  0.1249815E+00
         -2   -1    0    0    0  501 -0.00000000000E+00  0.00000000000E+00  0.44617504212E+02  0.44617504212E+02  0.00000000000E+00 0.  1.
          2   -1    0    0  501    0  0.00000000000E+00 -0.00000000000E+00 -0.39107460379E+03  0.39107460379E+03  0.00000000000E+00 0. -1.
         25    2    1    2    0    0 -0.21001240134E+02  0.49217579178E+02 -0.10288213294E+03  0.17056128934E+03  0.12507197110E+03 0.  0.
          5    1    3    3  502    0  0.15997253659E+02  0.81414756660E+02 -0.83118272204E+02  0.11751763400E+03  0.41800000000E+01 0.  1.
         -5    1    3    3    0  502 -0.36998493794E+02 -0.32197177482E+02 -0.19763860737E+02  0.53043655342E+02  0.41800000000E+01 0.  1.
        -11    1    1    2    0    0 -0.32354790610E+02 -0.11273105639E+02 -0.12578201347E+03  0.13036498877E+03  0.00000000000E+00 0.  1.
         11    1    1    2    0    0  0.53356030744E+02 -0.37944473539E+02 -0.11779295317E+03  0.13476582989E+03  0.00000000000E+00 0. -1.
</event>
<event>
 7    1  0.2530765E-009  0.1012047E+03  0.7561462E-02  0.1277783E+00
          1   -1    0    0  501    0  0.00000000000E+00  0.00000000000E+00  0.13740375242E+03  0.13740375242E+03  0.00000000000E+00 0. -1.
         -1   -1    0    0    0  501 -0.00000000000E+00 -0.00000000000E+00 -0.12524522537E+03  0.12524522537E+03  0.00000000000E+00 0.  1.
         25    2    1    2    0    0 -0.42957004010E+02 -0.78888096921E+01 -0.38753782926E+02  0.13805042954E+03  0.12509407618E+03 0.  0.
          5    1    3    3  502    0 -0.69093405264E+02  0.22408818837E+02  0.11517998922E+02  0.73662680591E+02  0.41800000000E+01 0.  1.
         -5    1    3    3    0  502  0.26136401254E+02 -0.30297628529E+02 -0.50271781849E+02  0.64387748953E+02  0.41800000000E+01 0.  1.
        -11    1    1    2    0    0 -0.18780137258E+02 -0.14525205674E+02  0.53851451676E+02  0.58852816440E+02  0.00000000000E+00 0. -1.
         11    1    1    2    0    0  0.61737141268E+02  0.22414015366E+02 -0.29391416923E+01  0.65745731805E+02  0.00000000000E+00 0.  1.
</event>
<event>
 7    1  0.2530765E-009  0.1087832E+03  0.7561462E-02  0.1262840E+00
         -1   -1    0    0    0  501 -0.00000000000E+00  0.00000000000E+00  0.67574494613E+03  0.67574494613E+03  0.00000000000E+00 0.  1.
          1   -1    0    0  501    0  0.00000000000E+00 -0.00000000000E+00 -0.44529569447E+02  0.44529569447E+02  0.00000000000E+00 0. -1.
         25    2    1    2    0    0 -0.72539543486E+02  0.24375898968E+02  0.56447966009E+03  0.58321600539E+03  0.12508977761E+03 0.  0.
          5    1    3    3  502    0  0.19637161681E+02  0.16569782219E+02  0.33131558599E+03  0.33233667526E+03  0.41800000000E+01 0.  1.
         -5    1    3    3    0  502 -0.92176705168E+02  0.78061167492E+01  0.23316407410E+03  0.25087933013E+03  0.41800000000E+01 0.  1.
        -11    1    1    2    0    0 -0.49768788430E+01 -0.20743513433E+02  0.54464078722E+02  0.58492722142E+02  0.00000000000E+00 0.  1.
         11    1    1    2    0    0  0.77516422329E+02 -0.36323855352E+01  0.12271637868E+02  0.78565788047E+02  0.00000000000E+00 0. -1.
</event>
<event>
 7    1  0.2697902E-009  0.1130252E+03  0.7561462E-02  0.1255068E+00
         -2   -1    0    0    0  501 -0.00000000000E+00  0.00000000000E+00  0.30109820910E+02  0.30109820910E+02  0.00000000000E+00 0.  1.
          2   -1    0    0  501    0  0.00000000000E+00 -0.00000000000E+00 -0.58956416697E+03  0.58956416697E+03  0.00000000000E+00 0. -1.
         25    2    1    2    0    0  0.24863273459E+02 -0.69845895552E+02 -0.35743705444E+03  0.38588184248E+03  0.12508763720E+03 0.  0.
          5    1    3    3  502    0 -0.93591391449E+01  0.25273744458E+02 -0.20602158796E+02  0.34180067167E+02  0.41800000000E+01 0. -1.
         -5    1    3    3    0  502  0.34222412604E+02 -0.95119640010E+02 -0.33683489564E+03  0.35170177532E+03  0.41800000000E+01 0. -1.
        -11    1    1    2    0    0 -0.41434658251E+02  0.21885105489E+02 -0.32976505747E+02  0.57299552162E+02  0.00000000000E+00 0.  1.
         11    1    1    2    0    0  0.16571384792E+02  0.47960790063E+02 -0.16904078588E+03  0.17649259324E+03  0.00000000000E+00 0. -1.
</event>
<event>
 7    1  0.2530765E-009  0.8081613E+02  0.7561462E-02  0.1326751E+00
         -1   -1    0    0    0  501 -0.00000000000E+00  0.00000000000E+00  0.13119346907E+03  0.13119346907E+03  0.00000000000E+00 0.  1.
          1   -1    0    0  501    0  0.00000000000E+00 -0.00000000000E+00 -0.11044691996E+03  0.11044691996E+03  0.00000000000E+00 0. -1.
         25    2    1    2    0    0 -0.19602361952E+02  0.42396117179E+02  0.35018638036E+02  0.13804491432E+03  0.12509360501E+03 0.  0.
          5    1    3    3  502    0 -0.42633367772E+02  0.20472798018E+02 -0.36353842936E+02  0.59798108687E+02  0.41800000000E+01 0.  1.
         -5    1    3    3    0  502  0.23031005819E+02  0.21923319161E+02  0.71372480972E+02  0.78246805636E+02  0.41800000000E+01 0.  1.
        -11    1    1    2    0    0  0.29535909478E+02  0.80940884691E+01 -0.36410342534E+02  0.47577276722E+02  0.00000000000E+00 0. -1.
         11    1    1    2    0    0 -0.99335475259E+01 -0.50490205648E+02  0.22138253608E+02  0.56018197987E+02  0.00000000000E+00 0.  1.
</event>
<event>
 7    1  0.2530765E-009  0.8845762E+02  0.7561462E-02  0.1306630E+00
          2   -1    0    0  501    0  0.00000000000E+00  0.00000000000E+00  0.22121477109E+03  0.22121477109E+03  0.00000000000E+00 0.  1.
         -2   -1    0    0    0  501 -0.00000000000E+00 -0.00000000000E+00 -0.56059420714E+02  0.56059420714E+02  0.00000000000E+00 0. -1.
         25    2    1    2    0    0  0.19176395214E+02 -0.62842302810E+01  0.87719480155E+02  0.15410809536E+03  0.12508945669E+03 0.  0.
          5    1    3    3  502    0 -0.22575982962E+02  0.21153792414E+02 -0.18755630642E+02  0.36419830051E+02  0.41800000000E+01 0.  1.
         -5    1    3    3    0  502  0.41752378175E+02 -0.27438022695E+02  0.10647511080E+03  0.11768826531E+03  0.41800000000E+01 0.  1.
        -11    1    1    2    0    0  0.67568052132E+01 -0.41042183126E+02  0.29608591088E+02  0.51056673204E+02  0.00000000000E+00 0. -1.
         11    1    1    2    0    0 -0.25933200427E+02  0.47326413407E+02  0.47827279133E+02  0.72109423237E+02  0.00000000000E+00 0.  1.
</event>
<event>
 7    1  0.2530765E-009  0.9242778E+02  0.7561462E-02  0.1297077E+00
          1   -1    0    0  501    0  0.00000000000E+00  0.00000000000E+00  0.20003226927E+02  0.20003226927E+02  0.00000000000E+00 0. -1.
         -1   -1    0    0    0  501 -0.00000000000E+00 -0.00000000000E+00 -0.71681056779E+03  0.71681056779E+03  0.00000000000E+00 0.  1.
         25    2    1    2    0    0 -0.19512750448E+02 -0.42332868263E+02 -0.45799081463E+03  0.47704999727E+03  0.12509314308E+03 0.  0.
          5    1    3    3  502    0 -0.38744037504E+02 -0.48340230136E+02 -0.95094270668E+02  0.11357055519E+03  0.41800000000E+01 0.  1.
         -5    1    3    3    0  502  0.19231287056E+02  0.60073618728E+01 -0.36289654396E+03  0.36347944208E+03  0.41800000000E+01 0.  1.
        -11    1    1    2    0    0  0.95996354840E+01  0.71107719987E+02 -0.16917389079E+03  0.18376143820E+03  0.00000000000E+00 0.  1.
         11    1    1    2    0    0  0.99131149637E+01 -0.28774851724E+02 -0.69642635446E+02  0.76002359252E+02  0.00000000000E+00 0. -1.
</event>
<event>
 7    1  0.2530765E-009  0.1299626E+03  0.7561462E-02  0.1227511E+00
          2   -1    0    0  501    0  0.00000000000E+00  0.00000000000E+00  0.18312292859E+03  0.18312292859E+03  0.00000000000E+00 0. -1.
         -2   -1    0    0    0  501 -0.00000000000E+00 -0.00000000000E+00 -0.10093089748E+03  0.10093089748E+03  0.00000000000E+00 0.  1.
         25    2    1    2    0    0 -0.35218600423E+02  0.64887596401E+02  0.66854182442E+02  0.15989722021E+03  0.12508752671E+03 0.  0.
          5    1    3    3  502    0 -0.15050014999E+02 -0.33095064381E+02  0.43941333692E+02  0.57184783330E+02  0.41800000000E+01 0.  1.
         -5    1    3    3    0  502 -0.20168585424E+02  0.97982660783E+02  0.22912848750E+02  0.10271243688E+03  0.41800000000E+01 0.  1.
        -11    1    1    2    0    0 -0.29731500804E+02  0.22193355373E+01  0.35635520435E+01  0.30026429915E+02  0.00000000000E+00 0.  1.
         11    1    1    2    0    0  0.64950101227E+02 -0.67106931939E+02  0.11774296626E+02  0.94130175952E+02  0.00000000000E+00 0. -1.
</event>
<event>
 7    1  0.2530765E-009  0.2248005E+03  0.7561462E-02  0.1130354E+00
          1   -1    0    0  501    0  0.00000000000E+00  0.00000000000E+00  0.30250378486E+03  0.30250378486E+03  0.00000000000E+00 0. -1.
         -1   -1    0    0    0  501 -0.00000000000E+00 -0.00000000000E+00 -0.19018851292E+03  0.19018851292E+03  0.00000000000E+00 0.  1.
         25    2    1    2    0    0 -0.13429784683E+01  0.20915044620E+03  0.57089650084E+02  0.25030405688E+03  0.12508868857E+03 0.  0.
          5    1    3    3  502    0 -0.15824665058E+02 -0.38695651733E+01 -0.17336157057E+02  0.24153846491E+02  0.41800000000E+01 0. -1.
         -5    1    3    3    0  502  0.14481686590E+02  0.21302001137E+03  0.74425807141E+02  0.22615021039E+03  0.41800000000E+01 0. -1.
        -11    1    1    2    0    0  0.27633846126E+02 -0.43705089982E+02 -0.24083343059E+02  0.57041842142E+02  0.00000000000E+00 0.  1.
         11    1    1    2    0    0 -0.26290867658E+02 -0.16544535622E+03  0.79308964911E+02  0.18534639875E+03  0.00000000000E+00 0. -1.
</event>
<event>
 7    1  0.2530765E-009  0.8193232E+02  0.7561462E-02  0.1323656E+00
          1   -1    0    0  501    0  0.00000000000E+00  0.00000000000E+00  0.47341113395E+03  0.47341113395E+03  0.00000000000E+00 0. -1.
         -1   -1    0    0    0  501 -0.00000000000E+00 -0.00000000000E+00 -0.32403861598E+02  0.32403861598E+02  0.00000000000E+00 0.  1.
         25    2    1    2    0    0  0.30346054813E+01  0.12362863519E+02  0.36690269675E+03  0.38784931923E+03  0.12508979304E+03 0.  0.
          5    1    3    3  502    0  0.77572588497E+01  0.47908962453E+02  0.53422318930E+02  0.72297028348E+02  0.41800000000E+01 0. -1.
         -5    1    3    3    0  502 -0.47226533684E+01 -0.35546098934E+02  0.31348037782E+03  0.31555229089E+03  0.41800000000E+01 0. -1.
        -11    1    1    2    0    0  0.37483663953E+02 -0.76854156507E+01  0.62135416724E+01  0.38764658868E+02  0.00000000000E+00 0.  1.
         11    1    1    2    0    0 -0.40518269434E+02 -0.46774478680E+01  0.67891033925E+02  0.79201017442E+02  0.00000000000E+00 0. -1.
</event>
<event>
 7    1  0.2530765E-009  0.1223465E+03  0.7561462E-02  0.1239275E+00
         -1   -1    0    0    0  501 -0.00000000000E+00  0.00000000000E+00  0.32267939252E+03  0.32267939252E+03  0.00000000000E+00 0.  1.
          1   -1    0    0  501    0  0.00000000000E+00 -0.00000000000E+00 -0.63186051356E+02  0.63186051356E+02  0.00000000000E+00 0. -1.
         25    2    1    2    0    0 -0.26723415882E+02  0.79631730394E+02  0.19281380427E+03  0.24470380508E+03  0.12508971045E+03 0.  0.
          5    1    3    3  502    0  0.39852168645E+02  0.38315445430E+01  0.99021897604E+02  0.10689099440E+03  0.41800000000E+01 0.  1.
         -5    1    3    3    0  502 -0.66575584527E+02  0.75800185851E+02  0.93791906666E+02  0.13781281067E+03  0.41800000000E+01 0.  1.
        -11    1    1    2    0    0  0.20636428246E+01 -0.78764981767E+02  0.10101363439E+02  0.79436883862E+02  0.00000000000E+00 0. -1.
         11    1    1    2    0    0  0.24659773057E+02 -0.86674862655E+00  0.56578173459E+02  0.61724754940E+02  0.00000000000E+00 0.  1.
</event>
<event>
 7    1  0.2530765E-009  0.1344496E+03  0.7561462E-02  0.1220999E+00
         -1   -1    0    0    0  501 -0.00000000000E+00  0.00000000000E+00  0.43153519754E+02  0.43153519754E+02  0.00000000000E+00 0.  1.
          1   -1    0    0  501    0  0.00000000000E+00 -0.00000000000E+00 -0.50961827660E+03  0.50961827660E+03  0.00000000000E+00 0. -1.
         25    2    1    2    0    0  0.45872665723E+02  0.90047743204E+02 -0.26163271187E+03  0.30710387944E+03  0.12509284285E+03 0.  0.
          5    1    3    3  502    0 -0.27991496881E+02  0.57202431684E+02 -0.18476037869E+03  0.19547253522E+03  0.41800000000E+01 0. -1.
         -5    1    3    3    0  502  0.73864162604E+02  0.32845311520E+02 -0.76872333171E+02  0.11163134422E+03  0.41800000000E+01 0. -1.
        -11    1    1    2    0    0 -0.42708554355E+01  0.12637709373E+02 -0.64053863322E+00  0.13355230963E+02  0.00000000000E+00 0.  1.
         11    1    1    2    0    0 -0.41601810288E+02 -0.10268545258E+03 -0.20419150635E+03  0.23231268595E+03  0.00000000000E+00 0. -1.
</event>
<event>
 7    1  0.2530765E-009  0.1073943E+03  0.7561462E-02  0.1265473E+00
         -2   -1    0    0    0  501 -0.00000000000E+00  0.00000000000E+00  0.42470438331E+03  0.42470438331E+03  0.00000000000E+00 0.  1.
          2   -1    0    0  501    0  0.00000000000E+00 -0.00000000000E+00 -0.32127634953E+02  0.32127634953E+02  0.00000000000E+00 0. -1.
         25    2    1    2    0    0 -0.30197932364E+02 -0.25186972509E+02  0.24286231555E+03  0.27599894318E+03  0.12508802348E+03 0.  0.
          5    1    3    3  502    0 -0.35074725756E+01  0.49981454895E+02  0.11053808812E+03  0.12143553649E+03  0.41800000000E+01 0. -1.
         -5    1    3    3    0  502 -0.26690459788E+02 -0.75168427405E+02  0.13232422743E+03  0.15456340669E+03  0.41800000000E+01 0. -1.
        -11    1    1    2    0    0 -0.95446187348E+01 -0.21379997155E+02  0.97802336064E+02  0.10056590359E+03  0.00000000000E+00 0.  1.
         11    1    1    2    0    0  0.39742551099E+02  0.46566969664E+02  0.51912096744E+02  0.80267171495E+02  0.00000000000E+00 0. -1.
</event>
<event>
 7    1  0.2530765E-009  0.8602500E+02  0.7561462E-02  0.1312774E+00
         -2   -1    0    0    0  501 -0.00000000000E+00  0.00000000000E+00  0.11289902130E+02  0.11289902130E+02  0.00000000000E+00 0.  1.
          2   -1    0    0  501    0  0.00000000000E+00 -0.00000000000E+00 -0.84822443855E+03  0.84822443855E+03  0.00000000000E+00 0. -1.
         25    2    1    2    0    0 -0.25650878477E+02 -0.30222135094E+01 -0.63984111408E+03  0.65246505020E+03  0.12508752587E+03 0.  0.
          5    1    3    3  502    0 -0.52226604384E+02 -0.37855993822E+02 -0.53312229841E+03  0.53702658402E+03  0.41800000000E+01 0.  1.
         -5    1    3    3    0  502  0.26575725907E+02  0.34833780313E+02 -0.10671881566E+03  0.11543846618E+03  0.41800000000E+01 0.  1.
        -11    1    1    2    0    0 -0.18803306331E+02 -0.45101280033E+00 -0.55445250070E+02  0.58548642143E+02  0.00000000000E+00 0.  1.
         11    1    1    2    0    0  0.44454184808E+02  0.34732263098E+01 -0.14164817227E+03  0.14850064834E+03  0.00000000000E+00 0. -1.
</event>
<event>
 7    1  0.2530765E-009  0.1687553E+03  0.7561462E-02  0.1179152E+00
          2   -1    0    0  501    0  0.00000000000E+00  0.00000000000E+00  0.43448989218E+03  0.43448989218E+03  0.00000000000E+00 0. -1.
         -2   -1    0    0    0  501 -0.00000000000E+00 -0.00000000000E+00 -0.78693746796E+02  0.78693746796E+02  0.00000000000E+00 0.  1.
         25    2    1    2    0    0 -0.13558895760E+03 -0.13993473584E+02  0.27430512156E+03  0.33086572561E+03  0.12509454800E+03 0.  0.
          5    1    3    3  502    0 -0.71969728442E+02 -0.66738454635E+02  0.11419334219E+03  0.15063616743E+03  0.41800000000E+01 0.  1.
         -5    1    3    3    0  502 -0.63619229162E+02  0.52744981051E+02  0.16011177937E+03  0.18022955817E+03  0.41800000000E+01 0.  1.
        -11    1    1    2    0    0  0.23629697482E+02  0.35375545591E+02  0.59496459445E+00  0.42545808393E+02  0.00000000000E+00 0.  1.
         11    1    1    2    0    0  0.11195926012E+03 -0.21382072007E+02  0.80896059223E+02  0.13977210497E+03  0.00000000000E+00 0. -1.
</event>
<event>
 7    1  0.2831000E-009  0.1734053E+03  0.7561462E-02  0.1174342E+00
          2   -1    0    0  501    0  0.00000000000E+00  0.00000000000E+00  0.52181742066E+03  0.52181742066E+03  0.00000000000E+00 0. -1.
         -2   -1    0    0    0  501 -0.00000000000E+00 -0.00000000000E+00 -0.94705630191E+02  0.94705630191E+02  0.00000000000E+00 0.  1.
         25    2    1    2    0    0  0.13882445140E+03 -0.87739713379E+02  0.36455056228E+03  0.41894610652E+03  0.12509293386E+03 0.  0.
          5    1    3    3  502    0  0.49820396429E+02  0.16647274344E+01  0.22621032428E+03  0.23167526072E+03  0.41800000000E+01 0.  1.
         -5    1    3    3    0  502  0.89004054969E+02 -0.89404440813E+02  0.13834023799E+03  0.18727084580E+03  0.41800000000E+01 0.  1.
        -11    1    1    2    0    0 -0.80451511791E+02  0.23606376386E+02  0.71773592375E+02  0.11036827134E+03  0.00000000000E+00 0.  1.
         11    1    1    2    0    0 -0.58372939607E+02  0.64133336993E+02 -0.92123641788E+01  0.87208672998E+02  0.00000000000E+00 0. -1.
</event>
<event>
 7    1  0.2530765E-009  0.2193742E+03  0.7561462E-02  0.1134350E+00
         -2   -1    0    0    0  501 -0.00000000000E+00  0.00000000000E+00  0.79934452952E+03  0.79934452952E+03  0.00000000000E+00 0.  1.
          2   -1    0    0  501    0  0.00000000000E+00 -0.00000000000E+00 -0.74242072686E+02  0.74242072686E+02  0.00000000000E+00 0. -1.
         25    2    1    2    0    0 -0.58536174646E+02 -0.21055972651E+03  0.37342017060E+03  0.45039159588E+03  0.12509230054E+03 0.  0.
          5    1    3    3  502    0 -0.11198967935E+02 -0.31319519898E+02  0.65228540921E-01  0.33523213811E+02  0.41800000000E+01 0. -1.
         -5    1    3    3    0  502 -0.47337206711E+02 -0.17924020661E+03  0.37335494206E+03  0.41686838207E+03  0.41800000000E+01 0. -1.
        -11    1    1    2    0    0  0.48234716829E+02  0.19667513112E+03  0.25825671122E+03  0.32818321712E+03  0.00000000000E+00 0. -1.
         11    1    1    2    0    0  0.10301457817E+02  0.13884595389E+02  0.93425575018E+02  0.95011789214E+02  0.00000000000E+00 0.  1.
</event>
<event>
 7    1  0.2530765E-009  0.1103538E+03  0.7561462E-02  0.1259916E+00
         -4   -1    0    0    0  501 -0.00000000000E+00  0.00000000000E+00  0.44173995764E+03  0.44173995764E+03  0.00000000000E+00 0.  1.
          4   -1    0    0  501    0  0.00000000000E+00 -0.00000000000E+00 -0.29453045882E+02  0.29453045882E+02  0.00000000000E+00 0. -1.
         25    2    1    2    0    0  0.59493170127E+01 -0.33779855287E+02  0.23644641850E+03  0.26968662651E+03  0.12508994644E+03 0.  0.
          5    1    3    3  502    0  0.50194360561E+02 -0.59799106619E+02  0.14001396303E+03  0.16036455103E+03  0.41800000000E+01 0. -1.
         -5    1    3    3    0  502 -0.44245043548E+02  0.26019251332E+02  0.96432455468E+02  0.10932207547E+03  0.41800000000E+01 0. -1.
        -11    1    1    2    0    0 -0.45130057064E+02  0.21299016868E+02  0.13332536568E+03  0.14235878373E+03  0.00000000000E+00 0.  1.
         11    1    1    2    0    0  0.39180740051E+02  0.12480838419E+02  0.42515127573E+02  0.59147593283E+02  0.00000000000E+00 0. -1.
</event>
<event>
 7    1  0.2530765E-009  0.1358422E+03  0.7561462E-02  0.1219036E+00
          2   -1    0    0  501    0  0.00000000000E+00  0.00000000000E+00  0.25585365630E+03  0.25585365630E+03  0.00000000000E+00 0. -1.
         -2   -1    0    0    0  501 -0.00000000000E+00 -0.00000000000E+00 -0.12277087346E+03  0.12277087346E+03  0.00000000000E+00 0.  1.
         25    2    1    2    0    0  0.19068786755E+02 -0.11024011270E+03 -0.13659412430E+02  0.16837675469E+03  0.12509057077E+03 0.  0.
          5    1    3    3  502    0 -0.25062588575E+02  0.85347026166E+01 -0.30365682818E+02  0.40503352798E+02  0.41800000000E+01 0.  1.
         -5    1    3    3    0  502  0.44131375330E+02 -0.11877481531E+03  0.16706270388E+02  0.12787340189E+03  0.41800000000E+01 0.  1.
        -11    1    1    2    0    0  0.30768836909E+01  0.82729110249E+02  0.15339572697E+03  0.17430955783E+03  0.00000000000E+00 0. -1.
         11    1    1    2    0    0 -0.22145670445E+02  0.27511002448E+02 -0.66535317022E+01  0.35938217252E+02  0.00000000000E+00 0.  1.
</event>
<event>
 7    1  0.2660217E-009  0.1255915E+03  0.7561462E-02  0.1234148E+00
          1   -1    0    0  501    0  0.00000000000E+00  0.00000000000E+00  0.32587243274E+03  0.32587243274E+03  0.00000000000E+00 0. -1.
         -1   -1    0    0    0  501 -0.00000000000E+00 -0.00000000000E+00 -0.64359977391E+02  0.64359977391E+02  0.00000000000E+00 0.  1.
         25    2    1    2    0    0 -0.69058020171E+02 -0.47958160872E+02  0.20306495923E+03  0.25288686517E+03  0.12508954219E+03 0.  0.
          5    1    3    3  502    0 -0.82851131246E+02 -0.55094771706E+01  0.58836421858E+02  0.10185215375E+03  0.41800000000E+01 0.  1.
         -5    1    3    3    0  502  0.13793111075E+02 -0.42448683701E+02  0.14422853737E+03  0.15103471142E+03  0.41800000000E+01 0.  1.
        -11    1    1    2    0    0  0.49102113741E+02 -0.19526072811E+02  0.34054189691E+02  0.62864719269E+02  0.00000000000E+00 0. -1.
         11    1    1    2    0    0  0.19955906430E+02  0.67484233683E+02  0.24393306432E+02  0.74480825693E+02  0.00000000000E+00 0.  1.
</event>
<event>
 7    1  0.2530765E-009  0.7766115E+02  0.7561462E-02  0.1335823E+00
         -1   -1    0    0    0  501 -0.00000000000E+00  0.00000000000E+00  0.21990556253E+03  0.21990556253E+03  0.00000000000E+00 0.  1.
          1   -1    0    0  501    0  0.00000000000E+00 -0.00000000000E+00 -0.71284084693E+02  0.71284084693E+02  0.00000000000E+00 0. -1.
         25    2    1    2    0    0 -0.15322710810E+02 -0.26704284747E+02  0.14482606432E+03  0.19382982909E+03  0.12509000539E+03 0.  0.
          5    1    3    3  502    0  0.13853173896E+02 -0.48759473672E+02  0.14837183681E+03  0.15684728578E+03  0.41800000000E+01 0.  1.
         -5    1    3    3    0  502 -0.29175884706E+02  0.22055188925E+02 -0.35457724895E+01  0.36982543307E+02  0.41800000000E+01 0.  1.
        -11    1    1    2    0    0 -0.19135856764E+02  0.27115525948E+02 -0.33100850209E+02  0.46873223125E+02  0.00000000000E+00 0. -1.
         11    1    1    2    0    0  0.34458567574E+02 -0.41124120127E+00  0.36896263730E+02  0.50486595011E+02  0.00000000000E+00 0.  1.
</event>
<event>
 7    1  0.2530765E-009  0.9710942E+02  0.7561462E-02  0.1286495E+00
          3   -1    0    0  501    0  0.00000000000E+00  0.00000000000E+00  0.25622474097E+03  0.25622474097E+03  0.00000000000E+00 0. -1.
         -3   -1    0    0    0  501 -0.00000000000E+00 -0.00000000000E+00 -0.63485459207E+02  0.63485459207E+02  0.00000000000E+00 0.  1.
         25    2    1    2    0    0 -0.44721498105E+01  0.30158692085E+02  0.17919906005E+03  0.22065658048E+03  0.12508987390E+03 0.  0.
          5    1    3    3  502    0 -0.27147271502E+02 -0.39823103483E+02  0.38481716952E+02  0.61815603699E+02  0.41800000000E+01 0. -1.
         -5    1    3    3    0  502  0.22675121692E+02  0.69981795568E+02  0.14071734310E+03  0.15884097678E+03  0.41800000000E+01 0. -1.
        -11    1    1    2    0    0  0.17396256358E+02 -0.47469325803E+02  0.40306241450E+02  0.64657248064E+02  0.00000000000E+00 0. -1.
         11    1    1    2    0    0 -0.12924106547E+02  0.17310633717E+02 -0.26766019733E+02  0.34396371641E+02  0.00000000000E+00 0.  1.
</event>
<event>
 7    1  0.2530765E-009  0.1142387E+03  0.7561462E-02  0.1252916E+00
         -1   -1    0    0    0  501 -0.00000000000E+00  0.00000000000E+00  0.26484904089E+02  0.26484904089E+02  0.00000000000E+00 0.  1.
          1   -1    0    0  501    0  0.00000000000E+00 -0.00000000000E+00 -0.73851244951E+03  0.73851244951E+03  0.00000000000E+00 0. -1.
         25    2    1    2    0    0  0.42253454259E+02  0.93236125418E+01 -0.18927641514E+03  0.23096636562E+03  0.12509043357E+03 0.  0.
          5    1    3    3  502    0  0.67762998885E+02 -0.28864114425E+02 -0.64686176978E+02  0.98115926390E+02  0.41800000000E+01 0. -1.
         -5    1    3    3    0  502 -0.25509544626E+02  0.38187726967E+02 -0.12459023816E+03  0.13285043923E+03  0.41800000000E+01 0. -1.
        -11    1    1    2    0    0 -0.70219610000E+02 -0.27305820701E+02 -0.33602493335E+03  0.34436776462E+03  0.00000000000E+00 0. -1.
         11    1    1    2    0    0  0.27966155741E+02  0.17982208159E+02 -0.18672619692E+03  0.18966322336E+03  0.00000000000E+00 0.  1.
</event>
<event>
 7    1  0.2530765E-009  0.6994026E+02  0.7561462E-02  0.1360296E+00
         -1   -1    0    0    0  501 -0.00000000000E+00  0.00000000000E+00  0.57490684166E+02  0.57490684166E+02  0.00000000000E+00 0.  1.
          1   -1    0    0  501    0  0.00000000000E+00 -0.00000000000E+00 -0.22266053350E+03  0.22266053350E+03  0.00000000000E+00 0. -1.
         25    2    1    2    0    0 -0.16451605350E+02  0.26685407450E+02 -0.99058513472E+02  0.16261124093E+03  0.12508821006E+03 0.  0.
          5    1    3    3  502    0 -0.19384833818E+02 -0.79191039860E+01  0.25485370568E+02  0.33248466176E+02  0.41800000000E+01 0.  1.
         -5    1    3    3    0  502  0.29332284688E+01  0.34604511436E+02 -0.12454388404E+03  0.12936277476E+03  0.41800000000E+01 0.  1.
        -11    1    1    2    0    0 -0.22629587249E+02  0.14416913932E+02  0.42496598980E+01  0.27166251778E+02  0.00000000000E+00 0.  1.
         11    1    1    2    0    0  0.39081192599E+02 -0.41102321382E+02 -0.70360995757E+02  0.90373724953E+02  0.00000000000E+00 0. -1.
</event>
<event>
 7    1  0.2530765E-009  0.1142873E+03  0.7561462E-02  0.1252830E+00
         -2   -1    0    0    0  501 -0.00000000000E+00  0.00000000000E+00  0.30384028853E+03  0.30384028853E+03  0.00000000000E+00 0.  1.
          2   -1    0    0  501    0  0.00000000000E+00 -0.00000000000E+00 -0.12460797984E+03  0.12460797984E+03  0.00000000000E+00 0. -1.
         25    2    1    2    0    0  0.33151084752E+02  0.10753735067E+03 -0.33227067668E+02  0.17149692981E+03  0.12507550799E+03 0.  0.
          5    1    3    3  502    0 -0.26017105374E+01  0.15544924376E+02  0.43473980379E+02  0.46431378846E+02  0.41800000000E+01 0. -1.
         -5    1    3    3    0  502  0.35752795289E+02  0.91992426296E+02 -0.76701048047E+02  0.12506555097E+03  0.41800000000E+01 0. -1.
        -11    1    1    2    0    0 -0.18340053565E+02 -0.81415390700E+02  0.21097992043E+03  0.22688620547E+03  0.00000000000E+00 0.  1.
         11    1    1    2    0    0 -0.14811031187E+02 -0.26121959972E+02  0.14794559311E+01  0.30065133085E+02  0.00000000000E+00 0. -1.
</event>
<event>
 7    1  0.2530765E-009  0.1027666E+03  0.7561462E-02  0.1274583E+00
          1   -1    0    0  501    0  0.00000000000E+00  0.00000000000E+00  0.22672969949E+03  0.22672969949E+03  0.00000000000E+00 0. -1.
         -1   -1    0    0    0  501 -0.00000000000E+00 -0.00000000000E+00 -0.70130614964E+02  0.70130614964E+02  0.00000000000E+00 0.  1.
         25    2    1    2    0    0 -0.11358641923E+02  0.58313734379E+02  0.59562698540E+02  0.15074574196E+03  0.12508818208E+03 0.  0.
          5    1    3    3  502    0 -0.49036489389E+02  0.37865445244E+02  0.81458760342E+02  0.10242739512E+03  0.41800000000E+01 0. -1.
         -5    1    3    3    0  502  0.37677847466E+02  0.20448289136E+02 -0.21896061802E+02  0.48318346833E+02  0.41800000000E+01 0. -1.
        -11    1    1    2    0    0 -0.34076489217E+02 -0.36602379579E+02  0.77220788364E+02  0.91999953607E+02  0.00000000000E+00 0. -1.
         11    1    1    2    0    0  0.45435131140E+02 -0.21711354800E+02  0.19815597624E+02  0.54114618895E+02  0.00000000000E+00 0.  1.
</event>
<event>
 7    1  0.2530765E-009  0.1169363E+03  0.7561462E-02  0.1248239E+00
         -2   -1    0    0    0  501 -0.00000000000E+00  0.00000000000E+00  0.85334919693E+02  0.85334919693E+02  0.00000000000E+00 0.  1.
          2   -1    0    0  501    0  0.00000000000E+00 -0.00000000000E+00 -0.18507461535E+03  0.18507461535E+03  0.00000000000E+00 0. -1.
         25    2    1    2    0    0  0.44158682211E+02  0.42901423196E+02 -0.73485692242E+02  0.15759922142E+03  0.12508735468E+03 0.  0.
          5    1    3    3  502    0  0.74978620259E+02 -0.66796843684E+01 -0.19262606199E+02  0.77813444062E+02  0.41800000000E+01 0.  1.
         -5    1    3    3    0  502 -0.30819938049E+02  0.49581107564E+02 -0.54223086043E+02  0.79785777358E+02  0.41800000000E+01 0.  1.
        -11    1    1    2    0    0 -0.33269914709E+02 -0.66280388843E+02  0.24753095890E+01  0.74203128825E+02  0.00000000000E+00 0.  1.
         11    1    1    2    0    0 -0.10888767502E+02  0.23378965647E+02 -0.28729313008E+02  0.38607184802E+02  0.00000000000E+00 0. -1.
</event>
<event>
 7    1  0.2530765E-009  0.1272816E+03  0.7561462E-02  0.1231546E+00
          1   -1    0    0  501    0  0.00000000000E+00  0.00000000000E+00  0.10517599379E+03  0.10517599379E+03  0.00000000000E+00 0. -1.
         -1   -1    0    0    0  501 -0.00000000000E+00 -0.00000000000E+00 -0.23946215127E+03  0.23946215127E+03  0.00000000000E+00 0.  1.
         25    2    1    2    0    0  0.45953705231E+02  0.70184465917E+02  0.14308059271E+02  0.15129409136E+03  0.12509028436E+03 0.  0.
          5    1    3    3  502    0 -0.21478151307E+02 -0.18690382669E+02 -0.19366574178E+02  0.34686856059E+02  0.41800000000E+01 0. -1.
         -5    1    3    3    0  502  0.67431856538E+02  0.88874848585E+02  0.33674633448E+02  0.11660723530E+03  0.41800000000E+01 0. -1.
        -11    1    1    2    0    0 -0.11419305359E+02 -0.77923900975E+02 -0.13321936201E+03  0.15475765988E+03  0.00000000000E+00 0.  1.
         11    1    1    2    0    0 -0.34534399872E+02  0.77394350585E+01 -0.15374854736E+02  0.38586393815E+02  0.00000000000E+00 0. -1.
</event>
<event>
 7    1  0.2530765E-009  0.9074318E+02  0.7561462E-02  0.1301062E+00
         -1   -1    0    0    0  501 -0.00000000000E+00  0.00000000000E+00  0.48107856203E+02  0.48107856203E+02  0.00000000000E+00 0.  1.
          1   -1    0    0  501    0  0.00000000000E+00 -0.00000000000E+00 -0.34858564243E+03  0.34858564243E+03  0.00000000000E+00 0. -1.
         25    2    1    2    0    0  0.64946265382E+02 -0.26490656843E+02 -0.18983086671E+03  0.23791252879E+03  0.12508733394E+03 0.  0.
          5    1    3    3  502    0  0.48849103632E+02 -0.31866296514E+02 -0.12592194302E+02  0.59814141609E+02  0.41800000000E+01 0. -1.
         -5    1    3    3    0  502  0.16097161750E+02  0.53756396702E+01 -0.17723867241E+03  0.17809838718E+03  0.41800000000E+01 0. -1.
        -11    1    1    2    0    0 -0.63646996298E+02  0.50649508365E+02 -0.10685498739E+03  0.13429185070E+03  0.00000000000E+00 0. -1.
         11    1    1    2    0    0 -0.12992690838E+01 -0.24158851522E+02 -0.37919321243E+01  0.24489119140E+02  0.00000000000E+00 0.  1.
</event>
<event>
 7    1  0.2530765E-009  0.1059614E+03  0.7561462E-02  0.1268237E+00
         -2   -1    0    0    0  501 -0.00000000000E+00  0.00000000000E+00  0.14263340298E+03  0.14263340298E+03  0.00000000000E+00 0.  1.
          2   -1    0    0  501    0  0.00000000000E+00 -0.00000000000E+00 -0.13602039155E+03  0.13602039155E+03  0.00000000000E+00 0. -1.
         25    2    1    2    0    0 -0.82254700701E+02  0.23106591795E+02  0.59354350168E+01  0.15160233489E+03  0.12509311806E+03 0.  0.
          5    1    3    3  502    0  0.16536185137E+02 -0.12260597334E+02  0.36602824620E+02  0.42201976684E+02  0.41800000000E+01 0. -1.
         -5    1    3    3    0  502 -0.98790885838E+02  0.35367189129E+02 -0.30667389603E+02  0.10940035821E+03  0.41800000000E+01 0. -1.
        -11    1    1    2    0    0  0.28064367129E+02 -0.12320380772E+02  0.46212626627E+02  0.55452748755E+02  0.00000000000E+00 0.  1.
         11    1    1    2    0    0  0.54190333572E+02 -0.10786211023E+02 -0.45535050212E+02  0.71598710873E+02  0.00000000000E+00 0. -1.
</event>
<event>
 7    1  0.2530765E-009  0.1109477E+03  0.7561462E-02  0.1258825E+00
         -2   -1    0    0    0  501 -0.00000000000E+00  0.00000000000E+00  0.20349342872E+03  0.20349342872E+03  0.00000000000E+00 0.  1.
          2   -1    0    0  501    0  0.00000000000E+00 -0.00000000000E+00 -0.10268774505E+03  0.10268774505E+03  0.00000000000E+00 0. -1.
         25    2    1    2    0    0  0.14830235820E+02 -0.73990495000E+02  0.12521855778E+03  0.19241062482E+03  0.12509049559E+03 0.  0.
          5    1    3    3  502    0 -0.50722480737E+02 -0.56981642119E+02  0.51048434731E+02  0.91886303001E+02  0.41800000000E+01 0.  1.
         -5    1    3    3    0  502  0.65552716557E+02 -0.17008852880E+02  0.74170123051E+02  0.10052432182E+03  0.41800000000E+01 0.  1.
        -11    1    1    2    0    0 -0.14016002141E+02  0.25129017539E+02  0.29360543931E+02  0.41109091189E+02  0.00000000000E+00 0.  1.
         11    1    1    2    0    0 -0.81423367919E+00  0.48861477461E+02 -0.53773418045E+02  0.72661457764E+02  0.00000000000E+00 0. -1.
</event>
<event>
 7    1  0.2530765E-009  0.1604924E+03  0.7561462E-02  0.1188142E+00
         -1   -1    0    0    0  501 -0.00000000000E+00  0.00000000000E+00  0.75719422961E+02  0.75719422961E+02  0.00000000000E+00 0.  1.
          1   -1    0    0  501    0  0.00000000000E+00 -0.00000000000E+00 -0.35011594944E+03  0.35011594944E+03  0.00000000000E+00 0. -1.
         25    2    1    2    0    0  0.83532921553E+01  0.12022651246E+03 -0.16717421194E+03  0.24107694652E+03  0.12508671079E+03 0.  0.
          5    1    3    3  502    0  0.63871364879E+02  0.52006886148E+02 -0.10386238953E+03  0.13262403936E+03  0.41800000000E+01 0.  1.
         -5    1    3    3    0  502 -0.55518072723E+02  0.68219626315E+02 -0.63311822408E+02  0.10845290715E+03  0.41800000000E+01 0.  1.
        -11    1    1    2    0    0  0.38748930236E+02 -0.31239902222E+02 -0.36205071005E+02  0.61548503246E+02  0.00000000000E+00 0. -1.
         11    1    1    2    0    0 -0.47102222392E+02 -0.88986610241E+02 -0.71017243532E+02  0.12320992263E+03  0.00000000000E+00 0.  1.
</event>
<event>
 7    1  0.2530765E-009  0.1107720E+03  0.7561462E-02  0.1259147E+00
          2   -1    0    0  501    0  0.00000000000E+00  0.00000000000E+00  0.36252789994E+03  0.36252789994E+03  0.00000000000E+00 0. -1.
         -2   -1    0    0    0  501 -0.00000000000E+00 -0.00000000000E+00 -0.38367853422E+02  0.38367853422E+02  0.00000000000E+00 0.  1.
         25    2    1    2    0    0 -0.30927429717E+02  0.16866161382E+02  0.23676850747E+03  0.27009163114E+03  0.12509672168E+03 0.  0.
          5    1    3    3  502    0 -0.46421705193E+02  0.61950626854E+02  0.17905714892E+03  0.19511993712E+03  0.41800000000E+01 0.  1.
         -5    1    3    3    0  502  0.15494275476E+02 -0.45084465472E+02  0.57711358549E+02  0.74971694025E+02  0.41800000000E+01 0.  1.
        -11    1    1    2    0    0 -0.17453301447E+01 -0.49765132334E+02  0.35137481977E+02  0.60944706195E+02  0.00000000000E+00 0.  1.
         11    1    1    2    0    0  0.32672759862E+02  0.32898970952E+02  0.52254057065E+02  0.69859416019E+02  0.00000000000E+00 0. -1.
</event>
<event>
 7    1  0.2530765E-009  0.1668760E+03  0.7561462E-02  0.1181145E+00
          1   -1    0    0  501    0  0.00000000000E+00  0.00000000000E+00  0.68209879945E+03  0.68209879945E+03  0.00000000000E+00 0. -1.
         -1   -1    0    0    0  501 -0.00000000000E+00 -0.00000000000E+00 -0.53106549883E+02  0.53106549883E+02  0.00000000000E+00 0.  1.
         25    2    1    2    0    0  0.11608108794E+03 -0.10316074893E+03  0.34888085870E+03  0.40184782242E+03  0.12508740833E+03 0.  0.
          5    1    3    3  502    0  0.10727737591E+03 -0.46293039183E+02  0.12714126028E+03  0.17272479070E+03  0.41800000000E+01 0.  1.
         -5    1    3    3    0  502  0.88037120378E+01 -0.56867709745E+02  0.22173959842E+03  0.22912303172E+03  0.41800000000E+01 0.  1.
        -11    1    1    2    0    0 -0.13110120231E+02  0.30254919756E+02  0.14415766284E+03  0.14788058418E+03  0.00000000000E+00 0.  1.
         11    1    1    2    0    0 -0.10297096771E+03  0.72905829171E+02  0.13595372802E+03  0.18547694273E+03  0.00000000000E+00 0. -1.
</event>
<event>
 7    1  0.2530765E-009  0.1154448E+03  0.7561462E-02  0.1250807E+00
         -2   -1    0    0    0  501 -0.00000000000E+00  0.00000000000E+00  0.11002490222E+03  0.11002490222E+03  0.00000000000E+00 0.  1.
          2   -1    0    0  501    0  0.00000000000E+00 -0.00000000000E+00 -0.23835720055E+03  0.23835720055E+03  0.00000000000E+00 0. -1.
         25    2    1    2    0    0 -0.34629767215E+02  0.40830747064E+02  0.46777514464E+02  0.14387892564E+03  0.12508652485E+03 0.  0.
          5    1    3    3  502    0 -0.70575500712E+02  0.61002794838E+02  0.41238013078E+02  0.10207981388E+03  0.41800000000E+01 0. -1.
         -5    1    3    3    0  502  0.35945733497E+02 -0.20172047774E+02  0.55395013860E+01  0.41799111757E+02  0.41800000000E+01 0. -1.
        -11    1    1    2    0    0  0.51488921671E+02  0.44810586788E+00 -0.50358859171E+02  0.72023083457E+02  0.00000000000E+00 0.  1.
         11    1    1    2    0    0 -0.16859154456E+02 -0.41278852932E+02 -0.12475095363E+03  0.13248009367E+03  0.00000000000E+00 0. -1.
</event>
<event>
 7    1  0.2530765E-009  0.6246046E+02  0.7561462E-02  0.1387787E+00
          2   -1    0    0  501    0  0.00000000000E+00  0.00000000000E+00  0.37090386294E+02  0.37090386294E+02  0.00000000000E+00 0. -1.
         -2   -1    0    0    0  501 -0.00000000000E+00 -0.00000000000E+00 -0.35743960236E+03  0.35743960236E+03  0.00000000000E+00 0.  1.
         25    2    1    2    0    0 -0.18077891935E+02 -0.23958787647E+02 -0.14581990499E+03  0.19445141217E+03  0.12508826212E+03 0.  0.
          5    1    3    3  502    0 -0.47447545586E+01 -0.25471546516E+02  0.16841682446E+02  0.31183762527E+02  0.41800000000E+01 0. -1.
         -5    1    3    3    0  502 -0.13333137377E+02  0.15127588687E+01 -0.16266158744E+03  0.16326764964E+03  0.41800000000E+01 0. -1.
        -11    1    1    2    0    0  0.48708818151E+02  0.23272490610E+02 -0.15402711638E+03  0.16321308271E+03  0.00000000000E+00 0.  1.
         11    1    1    2    0    0 -0.30630926216E+02  0.68629703713E+00 -0.20502194693E+02  0.36865493781E+02  0.00000000000E+00 0. -1.
</event>
<event>
 7    1  0.2530765E-009  0.1540926E+03  0.7561462E-02  0.1195532E+00
          1   -1    0    0  501    0  0.00000000000E+00  0.00000000000E+00  0.52692390266E+03  0.52692390266E+03  0.00000000000E+00 0. -1.
         -1   -1    0    0    0  501 -0.00000000000E+00 -0.00000000000E+00 -0.60388397205E+02  0.60388397205E+02  0.00000000000E+00 0.  1.
         25    2    1    2    0    0  0.51605569719E+02 -0.11593940719E+03  0.14308745663E+03  0.22852973393E+03  0.12508692210E+03 0.  0.
          5    1    3    3  502    0 -0.25102339288E+02 -0.64429594766E+02  0.15571931628E+02  0.71001813879E+02  0.41800000000E+01 0. -1.
         -5    1    3    3    0  502  0.76707909008E+02 -0.51509812422E+02  0.12751552500E+03  0.15752792005E+03  0.41800000000E+01 0. -1.
        -11    1    1    2    0    0 -0.46508524050E+02  0.12645357455E+03  0.31898806202E+03  0.34627580487E+03  0.00000000000E+00 0. -1.
         11    1    1    2    0    0 -0.50970456693E+01 -0.10514167366E+02  0.44599868057E+01  0.12506761062E+02  0.00000000000E+00 0.  1.
</event>
<event>
 7    1  0.2530765E-009  0.9652525E+02  0.7561462E-02  0.1287777E+00
          1   -1    0    0  501    0  0.00000000000E+00  0.00000000000E+00  0.10666977942E+03  0.10666977942E+03  0.00000000000E+00 0. -1.
         -1   -1    0    0    0  501 -0.00000000000E+00 -0.00000000000E+00 -0.13322346378E+03  0.13322346378E+03  0.00000000000E+00 0.  1.
         25    2    1    2    0    0 -0.34798242196E+01  0.18261992254E+01 -0.65549567208E+02  0.14127949942E+03  0.12509079509E+03 0.  0.
          5    1    3    3  502    0 -0.30442626909E+02 -0.54495359381E+02 -0.31962124576E+02  0.70253452119E+02  0.41800000000E+01 0. -1.
         -5    1    3    3    0  502  0.26962802689E+02  0.56321558607E+02 -0.33587442632E+02  0.71026047302E+02  0.41800000000E+01 0. -1.
        -11    1    1    2    0    0 -0.24350961522E+02 -0.22564580727E+02 -0.13370461133E+02  0.35789647405E+02  0.00000000000E+00 0.  1.
         11    1    1    2    0    0  0.27830785741E+02  0.20738381502E+02  0.52366343982E+02  0.62824096367E+02  0.00000000000E+00 0. -1.
</event>
<event>
 7    1  0.2530765E-009  0.1105110E+03  0.7561462E-02  0.1259627E+00
         -1   -1    0    0    0  501 -0.00000000000E+00  0.00000000000E+00  0.14882338700E+03  0.14882338700E+03  0.00000000000E+00 0.  1.
          1   -1    0    0  501    0  0.00000000000E+00 -0.00000000000E+00 -0.17125272287E+03  0.17125272287E+03  0.00000000000E+00 0. -1.
         25    2    1    2    0    0 -0.45850265095E+02  0.49802950286E+02 -0.10738017559E+03  0.17821700387E+03  0.12509283630E+03 0.  0.
          5    1    3    3  502    0  0.21185875172E+02  0.47256924504E+02 -0.97228342855E+02  0.11024010738E+03  0.41800000000E+01 0. -1.
         -5    1    3    3    0  502 -0.67036140267E+02  0.25460257814E+01 -0.10151832736E+02  0.67976896495E+02  0.41800000000E+01 0. -1.
        -11    1    1    2    0    0  0.90202762152E+01 -0.62306318504E+02  0.19826149575E+02  0.66003931061E+02  0.00000000000E+00 0. -1.
         11    1    1    2    0    0  0.36829988880E+02  0.12503368218E+02  0.65124690146E+02  0.75855174935E+02  0.00000000000E+00 0.  1.
</event>
<event>
 7    1  0.2530765E-009  0.4614066E+03  0.7561462E-02  0.1024374E+00
         -2   -1    0    0    0  501 -0.00000000000E+00  0.00000000000E+00  0.23785303672E+03  0.23785303672E+03  0.00000000000E+00 0.  1.
          2   -1    0    0  501    0  0.00000000000E+00 -0.00000000000E+00 -0.10745739642E+04  0.10745739642E+04  0.00000000000E+00 0. -1.
         25    2    1    2    0    0 -0.41633985088E+03  0.17193942249E+03 -0.15957531082E+03  0.49397739825E+03  0.12508938293E+03 0.  0.
          5    1    3    3  502    0 -0.10038416188E+03 -0.12663908265E+02 -0.27714711216E+02  0.10499015261E+03  0.41800000000E+01 0.  1.
         -5    1    3    3    0  502 -0.31595568900E+03  0.18460333075E+03 -0.13186059960E+03  0.38898724563E+03  0.41800000000E+01 0.  1.
        -11    1    1    2    0    0  0.13701457340E+03 -0.92055343044E+02 -0.29958849595E+03  0.34205328008E+03  0.00000000000E+00 0. -1.
         11    1    1    2    0    0  0.27932527748E+03 -0.79884079441E+02 -0.37755712070E+03  0.47639632259E+03  0.00000000000E+00 0.  1.
</event>
<event>
 7    1  0.2530765E-009  0.1454166E+03  0.7561462E-02  0.1206221E+00
          1   -1    0    0  501    0  0.00000000000E+00  0.00000000000E+00  0.79114858554E+03  0.79114858554E+03  0.00000000000E+00 0.  1.
         -1   -1    0    0    0  501 -0.00000000000E+00 -0.00000000000E+00 -0.52469304215E+02  0.52469304215E+02  0.00000000000E+00 0. -1.
         25    2    1    2    0    0 -0.11333311995E+03 -0.83102749947E+02  0.59141172442E+03  0.62061406066E+03  0.12507406358E+03 0.  0.
          5    1    3    3  502    0 -0.30396678850E+02 -0.37518193369E+02  0.43543475200E+03  0.43812380506E+03  0.41800000000E+01 0. -1.
         -5    1    3    3    0  502 -0.82936441097E+02 -0.45584556577E+02  0.15597697243E+03  0.18249025560E+03  0.41800000000E+01 0. -1.
        -11    1    1    2    0    0  0.23948438349E+02 -0.22384850626E+01  0.77372011843E+02  0.81024482296E+02  0.00000000000E+00 0.  1.
         11    1    1    2    0    0  0.89384681598E+02  0.85341235009E+02  0.69895545053E+02  0.14197934679E+03  0.00000000000E+00 0. -1.
</event>
<event>
 7    1  0.2530765E-009  0.1032276E+03  0.7561462E-02  0.1273651E+00
          1   -1    0    0  501    0  0.00000000000E+00  0.00000000000E+00  0.60951841567E+03  0.60951841567E+03  0.00000000000E+00 0. -1.
         -1   -1    0    0    0  501 -0.00000000000E+00 -0.00000000000E+00 -0.51157348105E+02  0.51157348105E+02  0.00000000000E+00 0.  1.
         25    2    1    2    0    0 -0.30159205941E+02 -0.41635832917E+02  0.53953620623E+03  0.55622985462E+03  0.12509681470E+03 0.  0.
          5    1    3    3  502    0 -0.68822200132E+02 -0.13185047268E+02  0.44090132173E+03  0.44645468819E+03  0.41800000000E+01 0. -1.
         -5    1    3    3    0  502  0.38662994191E+02 -0.28450785649E+02  0.98634884503E+02  0.10977516643E+03  0.41800000000E+01 0. -1.
        -11    1    1    2    0    0  0.53238139828E+02  0.21399767131E+02 -0.14456588015E+02  0.59171297963E+02  0.00000000000E+00 0.  1.
         11    1    1    2    0    0 -0.23078933887E+02  0.20236065786E+02  0.33281449342E+02  0.45274611187E+02  0.00000000000E+00 0. -1.
</event>
<event>
 7    1  0.2530765E-009  0.8731188E+02  0.7561462E-02  0.1309495E+00
         -1   -1    0    0    0  501 -0.00000000000E+00  0.00000000000E+00  0.13172998625E+03  0.13172998625E+03  0.00000000000E+00 0.  1.
          1   -1    0    0  501    0  0.00000000000E+00 -0.00000000000E+00 -0.95155327520E+02  0.95155327520E+02  0.00000000000E+00 0. -1.
         25    2    1    2    0    0  0.33022090928E+02  0.12883042837E+02  0.31507928774E+02  0.13377136391E+03  0.12508236065E+03 0.  0.
          5    1    3    3  502    0  0.55451770765E+02 -0.38479144402E+02 -0.32288031434E+01  0.67701115239E+02  0.41800000000E+01 0. -1.
         -5    1    3    3    0  502 -0.22429679838E+02  0.51362187238E+02  0.34736731918E+02  0.66070248674E+02  0.41800000000E+01 0. -1.
        -11    1    1    2    0    0 -0.23589982852E+02 -0.25699508440E+02  0.40989337074E+02  0.53824509090E+02  0.00000000000E+00 0.  1.
         11    1    1    2    0    0 -0.94321080754E+01  0.12816465603E+02 -0.35922607120E+02  0.39289440765E+02  0.00000000000E+00 0. -1.
</event>
<event>
 7    1  0.2530765E-009  0.9181844E+02  0.7561462E-02  0.1298507E+00
          3   -1    0    0  501    0  0.00000000000E+00  0.00000000000E+00  0.23725851657E+03  0.23725851657E+03  0.00000000000E+00 0. -1.
         -3   -1    0    0    0  501 -0.00000000000E+00 -0.00000000000E+00 -0.53106426882E+02  0.53106426882E+02  0.00000000000E+00 0.  1.
         25    2    1    2    0    0 -0.10541446700E+02 -0.27832675643E+02  0.12250008534E+03  0.17759957181E+03  0.12509818971E+03 0.  0.
          5    1    3    3  502    0 -0.81950696945E+01  0.30281038793E+02 -0.97081664988E+01  0.33103192814E+02  0.41800000000E+01 0.  1.
         -5    1    3    3    0  502 -0.23463770053E+01 -0.58113714436E+02  0.13220825184E+03  0.14449637900E+03  0.41800000000E+01 0.  1.
        -11    1    1    2    0    0 -0.24294853388E+02  0.47731858457E+02  0.28199277349E+02  0.60529079424E+02  0.00000000000E+00 0. -1.
         11    1    1    2    0    0  0.34836300088E+02 -0.19899182815E+02  0.33452727004E+02  0.52236292217E+02  0.00000000000E+00 0.  1.
</event>
<event>
 7    1  0.2530765E-009  0.2515779E+03  0.7561462E-02  0.1112312E+00
          1   -1    0    0  501    0  0.00000000000E+00  0.00000000000E+00  0.27864783620E+03  0.27864783620E+03  0.00000000000E+00 0. -1.
         -1   -1    0    0    0  501 -0.00000000000E+00 -0.00000000000E+00 -0.23635876806E+03  0.23635876806E+03  0.00000000000E+00 0.  1.
         25    2    1    2    0    0 -0.16114188954E+03  0.15965473206E+03  0.71345898815E+02  0.26869320096E+03  0.12509778948E+03 0.  0.
          5    1    3    3  502    0 -0.11326638937E+03  0.25642790639E+02  0.40138116392E+02  0.12294457475E+03  0.41800000000E+01 0.  1.
         -5    1    3    3    0  502 -0.47875500167E+02  0.13401194142E+03  0.31207782423E+02  0.14574862621E+03  0.41800000000E+01 0.  1.
        -11    1    1    2    0    0 -0.90025704764E+01 -0.28103249808E+02 -0.43641860561E+01  0.29830941066E+02  0.00000000000E+00 0.  1.
         11    1    1    2    0    0  0.17014446002E+03 -0.13155148225E+03 -0.24692644623E+02  0.21648246223E+03  0.00000000000E+00 0. -1.
</event>
<event>
 7    1  0.2530765E-009  0.1269990E+03  0.7561462E-02  0.1231978E+00
          2   -1    0    0  501    0  0.00000000000E+00  0.00000000000E+00  0.38021713060E+02  0.38021713060E+02  0.00000000000E+00 0. -1.
         -2   -1    0    0    0  501 -0.00000000000E+00 -0.00000000000E+00 -0.46242019866E+03  0.46242019866E+03  0.00000000000E+00 0.  1.
         25    2    1    2    0    0 -0.75053205827E+02 -0.12626321743E+02 -0.22477822923E+03  0.26826238679E+03  0.12508816142E+03 0.  0.
          5    1    3    3  502    0  0.27061036099E+02  0.25426101037E+02 -0.57915800846E+02  0.68923861444E+02  0.41800000000E+01 0. -1.
         -5    1    3    3    0  502 -0.10211424193E+03 -0.38052422780E+02 -0.16686242838E+03  0.19933852535E+03  0.41800000000E+01 0. -1.
        -11    1    1    2    0    0  0.45744942071E+02 -0.30828134614E+02 -0.15071439690E+03  0.16049237690E+03  0.00000000000E+00 0.  1.
         11    1    1    2    0    0  0.29308263756E+02  0.43454456357E+02 -0.48905859470E+02  0.71687148027E+02  0.00000000000E+00 0. -1.
</event>
<event>
 7    1  0.2530765E-009  0.1304520E+03  0.7561462E-02  0.1226787E+00
          1   -1    0    0  501    0  0.00000000000E+00  0.00000000000E+00  0.71922242213E+02  0.71922242213E+02  0.00000000000E+00 0. -1.
         -1   -1    0    0    0  501 -0.00000000000E+00 -0.00000000000E+00 -0.27204863960E+03  0.27204863960E+03  0.00000000000E+00 0.  1.
         25    2    1    2    0    0 -0.54019597941E+02  0.60381338210E+02 -0.15129918996E+03  0.21237697521E+03  0.12509401166E+03 0.  0.
          5    1    3    3  502    0 -0.84879488143E+02  0.46113614087E+01 -0.89295879471E+02  0.12335728050E+03  0.41800000000E+01 0.  1.
         -5    1    3    3    0  502  0.30859890202E+02  0.55769976801E+02 -0.62003310484E+02  0.89019694712E+02  0.41800000000E+01 0.  1.
        -11    1    1    2    0    0 -0.15338403136E+01 -0.56188711570E+02  0.19087827074E+01  0.56242043218E+02  0.00000000000E+00 0. -1.
         11    1    1    2    0    0  0.55553438255E+02 -0.41926266406E+01 -0.50735990140E+02  0.75351863385E+02  0.00000000000E+00 0.  1.
</event>
<event>
 7    1  0.2530765E-009  0.8864898E+02  0.7561462E-02  0.1306157E+00
          1   -1    0    0  501    0  0.00000000000E+00  0.00000000000E+00  0.86764675219E+02  0.86764675219E+02  0.00000000000E+00 0. -1.
         -1   -1    0    0    0  501 -0.00000000000E+00 -0.00000000000E+00 -0.16172974894E+03  0.16172974894E+03  0.00000000000E+00 0.  1.
         25    2    1    2    0    0 -0.13259549929E+02 -0.21207344965E+02 -0.85259441453E+02  0.15344071731E+03  0.12509721910E+03 0.  0.
          5    1    3    3  502    0 -0.47538902703E+02 -0.50151080739E+02 -0.83338092696E+02  0.10834107376E+03  0.41800000000E+01 0. -1.
         -5    1    3    3    0  502  0.34279352774E+02  0.28943735774E+02 -0.19213487566E+01  0.45099643548E+02  0.41800000000E+01 0. -1.
        -11    1    1    2    0    0 -0.23033874784E+02  0.77414785935E+01 -0.30379814447E+02  0.38902737747E+02  0.00000000000E+00 0.  1.
         11    1    1    2    0    0  0.36293424713E+02  0.13465866372E+02  0.40674182182E+02  0.56150969099E+02  0.00000000000E+00 0. -1.
</event>
<event>
 7    1  0.2530765E-009  0.1111863E+03  0.7561462E-02  0.1258389E+00
         -1   -1    0    0    0  501 -0.00000000000E+00  0.00000000000E+00  0.23227048402E+02  0.23227048402E+02  0.00000000000E+00 0.  1.
          1   -1    0    0  501    0  0.00000000000E+00 -0.00000000000E+00 -0.78684511335E+03  0.78684511335E+03  0.00000000000E+00 0. -1.
         25    2    1    2    0    0  0.39487130291E+02  0.11686122544E+02 -0.62712476744E+03  0.64080230481E+03  0.12508525488E+03 0.  0.
          5    1    3    3  502    0  0.28384616010E+01 -0.52660359307E+02 -0.18169845460E+03  0.18924315341E+03  0.41800000000E+01 0.  1.
         -5    1    3    3    0  502  0.36648668690E+02  0.64346481851E+02 -0.44542631284E+03  0.45155915140E+03  0.41800000000E+01 0.  1.
        -11    1    1    2    0    0 -0.29352147092E+02 -0.48734770209E+02 -0.10570917517E+03  0.12004605816E+03  0.00000000000E+00 0.  1.
         11    1    1    2    0    0 -0.10134983198E+02  0.37048647665E+02 -0.30784122339E+02  0.49223798781E+02  0.00000000000E+00 0. -1.
</event>
<event>
 7    1  0.2530765E-009  0.1096515E+03  0.7561462E-02  0.1261217E+00
         -1   -1    0    0    0  501 -0.00000000000E+00  0.00000000000E+00  0.28998238801E+02  0.28998238801E+02  0.00000000000E+00 0.  1.
          1   -1    0    0  501    0  0.00000000000E+00 -0.00000000000E+00 -0.51535489383E+03  0.51535489383E+03  0.00000000000E+00 0. -1.
         25    2    1    2    0    0  0.15241262331E+02  0.78475708167E+01 -0.39140084761E+03  0.41126024146E+03  0.12508589948E+03 0.  0.
          5    1    3    3  502    0 -0.54061944593E+02 -0.82824315056E+01 -0.16120439352E+03  0.17028100721E+03  0.41800000000E+01 0.  1.
         -5    1    3    3    0  502  0.69303206925E+02  0.16130002322E+02 -0.23019645409E+03  0.24097923425E+03  0.41800000000E+01 0.  1.
        -11    1    1    2    0    0  0.22960697166E+02 -0.38072217253E+02 -0.42464891873E+02  0.61481333612E+02  0.00000000000E+00 0.  1.
         11    1    1    2    0    0 -0.38201959497E+02  0.30224646436E+02 -0.52490915548E+02  0.71611557563E+02  0.00000000000E+00 0. -1.
</event>
<event>
 7    1  0.2530765E-009  0.2171795E+03  0.7561462E-02  0.1136004E+00
          1   -1    0    0  501    0  0.00000000000E+00  0.00000000000E+00  0.70422481545E+03  0.70422481545E+03  0.00000000000E+00 0. -1.
         -1   -1    0    0    0  501 -0.00000000000E+00 -0.00000000000E+00 -0.83651779226E+02  0.83651779226E+02  0.00000000000E+00 0.  1.
         25    2    1    2    0    0  0.19421888434E+03  0.16623334881E+02  0.47251454977E+03  0.52622804135E+03  0.12509453011E+03 0.  0.
          5    1    3    3  502    0  0.10521672210E+03 -0.52563639319E+02  0.21540240223E+03  0.24545704731E+03  0.41800000000E+01 0.  1.
         -5    1    3    3    0  502  0.89002162245E+02  0.69186974199E+02  0.25711214754E+03  0.28077099404E+03  0.41800000000E+01 0.  1.
        -11    1    1    2    0    0 -0.14925607400E+02 -0.19484765675E+02  0.53650320093E+02  0.58998192309E+02  0.00000000000E+00 0. -1.
         11    1    1    2    0    0 -0.17929327694E+03  0.28614307945E+01  0.94408166362E+02  0.20265036101E+03  0.00000000000E+00 0.  1.
</event>
<event>
 7    1  0.2530765E-009  0.9827680E+02  0.7561462E-02  0.1283962E+00
          2   -1    0    0  501    0  0.00000000000E+00  0.00000000000E+00  0.74057587927E+02  0.74057587927E+02  0.00000000000E+00 0. -1.
         -2   -1    0    0    0  501 -0.00000000000E+00 -0.00000000000E+00 -0.26102982108E+03  0.26102982108E+03  0.00000000000E+00 0.  1.
         25    2    1    2    0    0  0.25415607693E+02  0.32732649272E+02 -0.11956047832E+02  0.13231718843E+03  0.12509001491E+03 0.  0.
          5    1    3    3  502    0  0.43818708261E+02  0.53662164000E+02  0.34863808878E+02  0.77670229871E+02  0.41800000000E+01 0. -1.
         -5    1    3    3    0  502 -0.18403100568E+02 -0.20929514727E+02 -0.46819856709E+02  0.54646958557E+02  0.41800000000E+01 0. -1.
        -11    1    1    2    0    0  0.22987055746E+02  0.17739382962E+02 -0.77588205144E+02  0.82843346246E+02  0.00000000000E+00 0.  1.
         11    1    1    2    0    0 -0.48402663439E+02 -0.50472032234E+02 -0.97427980177E+02  0.11992687433E+03  0.00000000000E+00 0. -1.
</event>
<event>
 7    1  0.2530765E-009  0.1379981E+03  0.7561462E-02  0.1216048E+00
          1   -1    0    0  501    0  0.00000000000E+00  0.00000000000E+00  0.13109485807E+04  0.13109485807E+04  0.00000000000E+00 0. -1.
         -1   -1    0    0    0  501 -0.00000000000E+00 -0.00000000000E+00 -0.17195375223E+02  0.17195375223E+02  0.00000000000E+00 0.  1.
         25    2    1    2    0    0  0.14948579493E+02  0.97019374660E+02  0.83049975095E+03  0.84558437584E+03  0.12508749438E+03 0.  0.
          5    1    3    3  502    0  0.37619087172E+02  0.10886980895E+03  0.46151909534E+03  0.47569441744E+03  0.41800000000E+01 0.  1.
         -5    1    3    3    0  502 -0.22670507680E+02 -0.11850434290E+02  0.36898065561E+03  0.36988995840E+03  0.41800000000E+01 0.  1.
        -11    1    1    2    0    0  0.36073705985E+02 -0.65683263721E+02  0.24100831157E+03  0.25238979702E+03  0.00000000000E+00 0.  1.
         11    1    1    2    0    0 -0.51022285478E+02 -0.31336110940E+02  0.22224514297E+03  0.23016978306E+03  0.00000000000E+00 0. -1.
</event>
<event>
 7    1  0.2530765E-009  0.8590740E+02  0.7561462E-02  0.1313076E+00
         -2   -1    0    0    0  501 -0.00000000000E+00  0.00000000000E+00  0.65687813793E+02  0.65687813793E+02  0.00000000000E+00 0.  1.
          2   -1    0    0  501    0  0.00000000000E+00 -0.00000000000E+00 -0.44282428464E+03  0.44282428464E+03  0.00000000000E+00 0. -1.
         25    2    1    2    0    0  0.29433824184E+02  0.69030182648E+02 -0.35965574949E+03  0.38811243858E+03  0.12508993052E+03 0.  0.
          5    1    3    3  502    0 -0.12766848197E+02  0.47076725908E+02 -0.35535662199E+02  0.60493522157E+02  0.41800000000E+01 0. -1.
         -5    1    3    3    0  502  0.42200672381E+02  0.21953456740E+02 -0.32412008729E+03  0.32761891642E+03  0.41800000000E+01 0. -1.
        -11    1    1    2    0    0 -0.78967962350E+01 -0.15236346872E+02  0.37049520457E+02  0.40831025249E+02  0.00000000000E+00 0.  1.
         11    1    1    2    0    0 -0.21537027949E+02 -0.53793835775E+02 -0.54530241815E+02  0.79568634604E+02  0.00000000000E+00 0. -1.
</event>
<event>
 7    1  0.2530765E-009  0.1451875E+03  0.7561462E-02  0.1206514E+00
          2   -1    0    0  501    0  0.00000000000E+00  0.00000000000E+00  0.49200076073E+03  0.49200076073E+03  0.00000000000E+00 0. -1.
         -2   -1    0    0    0  501 -0.00000000000E+00 -0.00000000000E+00 -0.65904831998E+02  0.65904831998E+02  0.00000000000E+00 0.  1.
         25    2    1    2    0    0 -0.38108971863E+02 -0.12521039007E+03  0.32049386447E+03  0.36809534926E+03  0.12509170023E+03 0.  0.
          5    1    3    3  502    0 -0.61814247980E+02 -0.80225686156E+02  0.10229135708E+03  0.14400748628E+03  0.41800000000E+01 0. -1.
         -5    1    3    3    0  502  0.23705276116E+02 -0.44984703918E+02  0.21820250739E+03  0.22408786298E+03  0.41800000000E+01 0. -1.
        -11    1    1    2    0    0 -0.28863056914E+01  0.65492204671E+02  0.96704795595E+02  0.11683054876E+03  0.00000000000E+00 0. -1.
         11    1    1    2    0    0  0.40995277555E+02  0.59718185403E+02  0.88972686691E+01  0.72979694706E+02  0.00000000000E+00 0.  1.
</event>
<event>
 7    1  0.2530765E-009  0.2947493E+03  0.7561462E-02  0.1087895E+00
         -1   -1    0    0    0  501 -0.00000000000E+00  0.00000000000E+00  0.31890344897E+02  0.31890344897E+02  0.00000000000E+00 0.  1.
          1   -1    0    0  501    0  0.00000000000E+00 -0.00000000000E+00 -0.33277121730E+04  0.33277121730E+04  0.00000000000E+00 0. -1.
         25    2    1    2    0    0 -0.28747605087E+03 -0.36152522492E+02 -0.21968317502E+04  0.22193841782E+04  0.12508759859E+03 0.  0.
          5    1    3    3  502    0 -0.18815168613E+03 -0.58848058274E+02 -0.10755890439E+04  0.10935142499E+04  0.41800000000E+01 0. -1.
         -5    1    3    3    0  502 -0.99324364735E+02  0.22695535782E+02 -0.11212427063E+04  0.11258699284E+04  0.41800000000E+01 0. -1.
        -11    1    1    2    0    0  0.11994835749E+03  0.24399046523E+02 -0.63692921370E+03  0.64858441640E+03  0.00000000000E+00 0.  1.
         11    1    1    2    0    0  0.16752769338E+03  0.11753475969E+02 -0.46206086419E+03  0.49163392322E+03  0.00000000000E+00 0. -1.
</event>
<event>
 7    1  0.2530765E-009  0.1515413E+03  0.7561462E-02  0.1198592E+00
          1   -1    0    0  501    0  0.00000000000E+00  0.00000000000E+00  0.37670825913E+03  0.37670825913E+03  0.00000000000E+00 0. -1.
         -1   -1    0    0    0  501 -0.00000000000E+00 -0.00000000000E+00 -0.68040922192E+02  0.68040922192E+02  0.00000000000E+00 0.  1.
         25    2    1    2    0    0  0.11250981387E+03  0.21212866200E+02  0.20511797859E+03  0.26613790025E+03  0.12509017907E+03 0.  0.
          5    1    3    3  502    0  0.21269753516E+01  0.51168690282E+02  0.91059766839E+02  0.10455674261E+03  0.41800000000E+01 0. -1.
         -5    1    3    3    0  502  0.11038283852E+03 -0.29955824081E+02  0.11405821175E+03  0.16158115764E+03  0.41800000000E+01 0. -1.
        -11    1    1    2    0    0 -0.97114472115E+02 -0.46476515665E+02  0.10303509991E+03  0.14902187429E+03  0.00000000000E+00 0.  1.
         11    1    1    2    0    0 -0.15395341754E+02  0.25263649465E+02  0.51425843791E+00  0.29589406783E+02  0.00000000000E+00 0. -1.
</event>
<event>
 7    1  0.2530765E-009  0.1192383E+03  0.7561462E-02  0.1244359E+00
         -2   -1    0    0    0  501 -0.00000000000E+00  0.00000000000E+00  0.19001307196E+02  0.19001307196E+02  0.00000000000E+00 0. -1.
          2   -1    0    0  501    0  0.00000000000E+00 -0.00000000000E+00 -0.12682849327E+04  0.12682849327E+04  0.00000000000E+00 0.  1.
         25    2    1    2    0    0 -0.56104017513E+02 -0.14767056927E+02 -0.10707276457E+04  0.10795695116E+04  0.12508761852E+03 0.  0.
          5    1    3    3  502    0 -0.90351370510E+02  0.89122500566E+01 -0.85530165353E+03  0.86011696256E+03  0.41800000000E+01 0. -1.
         -5    1    3    3    0  502  0.34247352997E+02 -0.23679306984E+02 -0.21542599216E+03  0.21945254901E+03  0.41800000000E+01 0. -1.
        -11    1    1    2    0    0  0.51718643252E+02 -0.30648634892E+02 -0.11020387899E+03  0.12553506214E+03  0.00000000000E+00 0.  1.
         11    1    1    2    0    0  0.43853742613E+01  0.45415691819E+02 -0.68352100795E+02  0.82181666167E+02  0.00000000000E+00 0. -1.
</event>
<event>
 7    1  0.2530765E-009  0.1360401E+03  0.7561462E-02  0.1218759E+00
         -1   -1    0    0    0  501 -0.00000000000E+00  0.00000000000E+00  0.10176870544E+04  0.10176870544E+04  0.00000000000E+00 0.  1.
          1   -1    0    0  501    0  0.00000000000E+00 -0.00000000000E+00 -0.19813418280E+02  0.19813418280E+02  0.00000000000E+00 0. -1.
         25    2    1    2    0    0 -0.92122459199E+02  0.20476874892E+01  0.54124096575E+03  0.56309930232E+03  0.12509316832E+03 0.  0.
          5    1    3    3  502    0 -0.82543859709E+02 -0.50027240825E+02  0.27144835460E+03  0.28812826175E+03  0.41800000000E+01 0.  1.
         -5    1    3    3    0  502 -0.95785994901E+01  0.52074928314E+02  0.26979261114E+03  0.27497104057E+03  0.41800000000E+01 0.  1.
        -11    1    1    2    0    0 -0.47893770759E+01 -0.22757509182E+02  0.41184538162E+02  0.47297024648E+02  0.00000000000E+00 0. -1.
         11    1    1    2    0    0  0.96911836275E+02  0.20709821693E+02  0.41544813217E+03  0.42710414567E+03  0.00000000000E+00 0.  1.
</event>
<event>
 7    1  0.3959756E-009  0.1124748E+03  0.7561462E-02  0.1256054E+00
          1   -1    0    0  501    0  0.00000000000E+00  0.00000000000E+00  0.49773307661E+03  0.49773307661E+03  0.00000000000E+00 0. -1.
         -1   -1    0    0    0  501 -0.00000000000E+00 -0.00000000000E+00 -0.41218697875E+02  0.41218697875E+02  0.00000000000E+00 0.  1.
         25    2    1    2    0    0  0.49316871482E+02 -0.68612932190E+02  0.32329094864E+03  0.35680237191E+03  0.12510398416E+03 0.  0.
          5    1    3    3  502    0  0.22880081100E+02 -0.84523072238E+02  0.10720576389E+03  0.13848536407E+03  0.41800000000E+01 0.  1.
         -5    1    3    3    0  502  0.26436790382E+02  0.15910140047E+02  0.21608518475E+03  0.21831700784E+03  0.41800000000E+01 0.  1.
        -11    1    1    2    0    0 -0.62436959970E+02  0.38632987659E+02  0.40568137729E+02  0.83884775165E+02  0.00000000000E+00 0.  1.
         11    1    1    2    0    0  0.13120088488E+02  0.29979944531E+02  0.92655292368E+02  0.98264627409E+02  0.00000000000E+00 0. -1.
</event>
<event>
 7    1  0.2530765E-009  0.1934980E+03  0.7561462E-02  0.1155344E+00
          2   -1    0    0  501    0  0.00000000000E+00  0.00000000000E+00  0.10920318008E+04  0.10920318008E+04  0.00000000000E+00 0. -1.
         -2   -1    0    0    0  501 -0.00000000000E+00 -0.00000000000E+00 -0.56042993174E+02  0.56042993174E+02  0.00000000000E+00 0.  1.
         25    2    1    2    0    0  0.15715733187E+03 -0.68536410195E+02  0.86176399011E+03  0.88751392248E+03  0.12509245165E+03 0.  0.
          5    1    3    3  502    0  0.37461576460E+02 -0.65232011647E+02  0.17731000986E+03  0.19265226978E+03  0.41800000000E+01 0.  1.
         -5    1    3    3    0  502  0.11969575541E+03 -0.33043985482E+01  0.68445398024E+03  0.69486165269E+03  0.41800000000E+01 0.  1.
        -11    1    1    2    0    0 -0.12554036328E+03  0.89260531231E+02  0.12428234912E+03  0.19792404491E+03  0.00000000000E+00 0.  1.
         11    1    1    2    0    0 -0.31616968588E+02 -0.20724121035E+02  0.49942468372E+02  0.62636826568E+02  0.00000000000E+00 0. -1.
</event>
<event>
 7    1  0.2530765E-009  0.1091279E+03  0.7561462E-02  0.1262194E+00
         -1   -1    0    0    0  501 -0.00000000000E+00  0.00000000000E+00  0.17915591060E+03  0.17915591060E+03  0.00000000000E+00 0.  1.
          1   -1    0    0  501    0  0.00000000000E+00 -0.00000000000E+00 -0.14071477824E+03  0.14071477824E+03  0.00000000000E+00 0. -1.
         25    2    1    2    0    0  0.60154334315E+02 -0.26929172654E+02  0.11723182530E+03  0.18366772509E+03  0.12508720198E+03 0.  0.
          5    1    3    3  502    0  0.37686224504E+02 -0.64529286382E+02  0.20815013508E+02  0.77685375108E+02  0.41800000000E+01 0.  1.
         -5    1    3    3    0  502  0.22468109811E+02  0.37600113728E+02  0.96416811796E+02  0.10598234998E+03  0.41800000000E+01 0.  1.
        -11    1    1    2    0    0  0.12326614008E+02  0.23869812861E+02 -0.52620321254E+02  0.59081397984E+02  0.00000000000E+00 0. -1.
         11    1    1    2    0    0 -0.72480948323E+02  0.30593597931E+01 -0.26170371690E+02  0.77121565768E+02  0.00000000000E+00 0.  1.
</event>
<event>
 7    1  0.2530765E-009  0.1259876E+03  0.7561462E-02  0.1233534E+00
          1   -1    0    0  501    0  0.00000000000E+00  0.00000000000E+00  0.72735557263E+03  0.72735557263E+03  0.00000000000E+00 0. -1.
         -1   -1    0    0    0  501 -0.00000000000E+00 -0.00000000000E+00 -0.31601311855E+02  0.31601311855E+02  0.00000000000E+00 0.  1.
         25    2    1    2    0    0  0.22309920514E+02 -0.87552979016E+02  0.51212417594E+03  0.53486597933E+03  0.12508871882E+03 0.  0.
          5    1    3    3  502    0  0.15468282869E+02  0.28286553267E+02  0.18285332584E+03  0.18572077978E+03  0.41800000000E+01 0.  1.
         -5    1    3    3    0  502  0.68416376446E+01 -0.11583953228E+03  0.32927085010E+03  0.34914519955E+03  0.41800000000E+01 0.  1.
        -11    1    1    2    0    0 -0.37073315860E+02  0.76148746335E+02  0.72741388045E+02  0.11164395126E+03  0.00000000000E+00 0.  1.
         11    1    1    2    0    0  0.14763395346E+02  0.11404232682E+02  0.11088869680E+03  0.11244695391E+03  0.00000000000E+00 0. -1.
</event>
<event>
 7    1  0.2530765E-009  0.2741190E+03  0.7561462E-02  0.1098945E+00
          2   -1    0    0  501    0  0.00000000000E+00  0.00000000000E+00  0.56278142835E+03  0.56278142835E+03  0.00000000000E+00 0.  1.
         -2   -1    0    0    0  501 -0.00000000000E+00 -0.00000000000E+00 -0.15720904273E+03  0.15720904273E+03  0.00000000000E+00 0. -1.
         25    2    1    2    0    0 -0.27198179052E+03  0.31037983025E+02  0.24646885764E+03  0.38901374740E+03  0.12508935649E+03 0.  0.
          5    1    3    3  502    0 -0.28162903916E+02  0.57415242995E+01  0.98420245760E+02  0.10261642867E+03  0.41800000000E+01 0. -1.
         -5    1    3    3    0  502 -0.24381888661E+03  0.25296458726E+02  0.14804861188E+03  0.28639731872E+03  0.41800000000E+01 0. -1.
        -11    1    1    2    0    0  0.12891323494E+03 -0.84556683777E+01  0.12993318406E+03  0.18322868987E+03  0.00000000000E+00 0.  1.
         11    1    1    2    0    0  0.14306855558E+03 -0.22582314648E+02  0.29170343912E+02  0.14774803381E+03  0.00000000000E+00 0. -1.
</event>
<event>
 7    1  0.2530765E-009  0.1198589E+03  0.7561462E-02  0.1243330E+00
          1   -1    0    0  501    0  0.00000000000E+00  0.00000000000E+00  0.40816822497E+03  0.40816822497E+03  0.00000000000E+00 0. -1.
         -1   -1    0    0    0  501 -0.00000000000E+00 -0.00000000000E+00 -0.58822368355E+02  0.58822368355E+02  0.00000000000E+00 0.  1.
         25    2    1    2    0    0  0.25095645499E+01 -0.10806016425E+03  0.22112738925E+03  0.27609341276E+03  0.12508778230E+03 0.  0.
          5    1    3    3  502    0 -0.81585513068E+01 -0.69650061597E+02  0.22510655586E+03  0.23581375476E+03  0.41800000000E+01 0.  1.
         -5    1    3    3    0  502  0.10668115857E+02 -0.38410102651E+02 -0.39791666155E+01  0.40279658000E+02  0.41800000000E+01 0.  1.
        -11    1    1    2    0    0  0.33135116332E+02  0.35616368733E+02  0.13263667342E+02  0.50422083728E+02  0.00000000000E+00 0.  1.
         11    1    1    2    0    0 -0.35644680882E+02  0.72443795515E+02  0.11495480003E+03  0.14047509684E+03  0.00000000000E+00 0. -1.
</event>
<event>
 7    1  0.3187447E-009  0.7450754E+02  0.7561462E-02  0.1345403E+00
          1   -1    0    0  501    0  0.00000000000E+00  0.00000000000E+00  0.95539125401E+02  0.95539125401E+02  0.00000000000E+00 0. -1.
         -1   -1    0    0    0  501 -0.00000000000E+00 -0.00000000000E+00 -0.19150456340E+03  0.19150456340E+03  0.00000000000E+00 0.  1.
         25    2    1    2    0    0 -0.41773561368E+02 -0.57798760041E+02 -0.13480599875E+02  0.14461062456E+03  0.12507909126E+03 0.  0.
          5    1    3    3  502    0 -0.18770123974E+02 -0.48287350652E+02 -0.67378082212E+02  0.85095617687E+02  0.41800000000E+01 0. -1.
         -5    1    3    3    0  502 -0.23003437394E+02 -0.95114093894E+01  0.53897482338E+02  0.59515006871E+02  0.41800000000E+01 0. -1.
        -11    1    1    2    0    0  0.17577819460E+02  0.17563510549E+02 -0.91336128727E+02  0.94655929823E+02  0.00000000000E+00 0.  1.
         11    1    1    2    0    0  0.24195741908E+02  0.40235249493E+02  0.88512906013E+01  0.47777134421E+02  0.00000000000E+00 0. -1.
</event>
<event>
 7    1  0.2530765E-009  0.1052864E+03  0.7561462E-02  0.1269556E+00
          1   -1    0    0  501    0  0.00000000000E+00  0.00000000000E+00  0.44126872595E+03  0.44126872595E+03  0.00000000000E+00 0. -1.
         -1   -1    0    0    0  501 -0.00000000000E+00 -0.00000000000E+00 -0.29731340637E+02  0.29731340637E+02  0.00000000000E+00 0.  1.
         25    2    1    2    0    0  0.41841894528E+02 -0.32131620638E+01  0.21468217231E+03  0.25198621382E+03  0.12509016069E+03 0.  0.
          5    1    3    3  502    0  0.83165088563E+02  0.13313243368E+02  0.11375467840E+03  0.14160251997E+03  0.41800000000E+01 0.  1.
         -5    1    3    3    0  502 -0.41323194035E+02 -0.16526405432E+02  0.10092749390E+03  0.11038369385E+03  0.41800000000E+01 0.  1.
        -11    1    1    2    0    0  0.15638265709E+02 -0.14571997795E+02  0.11785546036E+02  0.24408964941E+02  0.00000000000E+00 0.  1.
         11    1    1    2    0    0 -0.57480160237E+02  0.17785159859E+02  0.18506966697E+03  0.19460488782E+03  0.00000000000E+00 0. -1.
</event>
<event>
 7    1  0.2530765E-009  0.1941615E+03  0.7561462E-02  0.1154761E+00
          1   -1    0    0  501    0  0.00000000000E+00  0.00000000000E+00  0.62916020283E+03  0.62916020283E+03  0.00000000000E+00 0. -1.
         -1   -1    0    0    0  501 -0.00000000000E+00 -0.00000000000E+00 -0.72005873788E+02  0.72005873788E+02  0.00000000000E+00 0.  1.
         25    2    1    2    0    0  0.13859389444E+03  0.11603919922E+03  0.28859753139E+03  0.36277970379E+03  0.12508882853E+03 0.  0.
          5    1    3    3  502    0 -0.19731653128E+01  0.74221027061E+01 -0.11242441786E+02  0.14242397524E+02  0.41800000000E+01 0. -1.
         -5    1    3    3    0  502  0.14056705975E+03  0.10861709651E+03  0.29983997318E+03  0.34853730626E+03  0.41800000000E+01 0. -1.
        -11    1    1    2    0    0 -0.51718413204E+02 -0.10134460547E+03  0.18355662207E+03  0.21595961851E+03  0.00000000000E+00 0. -1.
         11    1    1    2    0    0 -0.86875481233E+02 -0.14694593752E+02  0.85000175576E+02  0.12242675432E+03  0.00000000000E+00 0.  1.
</event>
<event>
 7    1  0.2890272E-009  0.1837354E+03  0.7561462E-02  0.1164236E+00
          1   -1    0    0  501    0  0.00000000000E+00  0.00000000000E+00  0.31058145835E+03  0.31058145835E+03  0.00000000000E+00 0. -1.
         -1   -1    0    0    0  501 -0.00000000000E+00 -0.00000000000E+00 -0.13892272877E+03  0.13892272877E+03  0.00000000000E+00 0.  1.
         25    2    1    2    0    0 -0.17251731003E+03  0.21594926162E+02  0.12304459273E+03  0.24701577450E+03  0.12509299723E+03 0.  0.
          5    1    3    3  502    0 -0.99265791559E+02 -0.15557155854E+01 -0.29258341630E+01  0.99409006284E+02  0.41800000000E+01 0. -1.
         -5    1    3    3    0  502 -0.73251518476E+02  0.23150641748E+02  0.12597042689E+03  0.14760676822E+03  0.41800000000E+01 0. -1.
        -11    1    1    2    0    0  0.90056980465E+02  0.28773617798E+02  0.49488483717E+00  0.94543247896E+02  0.00000000000E+00 0.  1.
         11    1    1    2    0    0  0.82460329569E+02 -0.50368543961E+02  0.48119252008E+02  0.10794516472E+03  0.00000000000E+00 0. -1.
</event>
<event>
 7    1  0.2530765E-009  0.1157202E+03  0.7561462E-02  0.1250329E+00
         -2   -1    0    0    0  501 -0.00000000000E+00  0.00000000000E+00  0.15893408963E+03  0.15893408963E+03  0.00000000000E+00 0.  1.
          2   -1    0    0  501    0  0.00000000000E+00 -0.00000000000E+00 -0.95003177321E+02  0.95003177321E+02  0.00000000000E+00 0. -1.
         25    2    1    2    0    0  0.51972459524E+02 -0.15533227018E+02  0.15159326780E+02  0.13718417558E+03  0.12508906887E+03 0.  0.
          5    1    3    3  502    0 -0.31931263559E+02  0.15936977503E+02 -0.19656026089E+02  0.40956374425E+02  0.41800000000E+01 0.  1.
         -5    1    3    3    0  502  0.83903723083E+02 -0.31470204521E+02  0.34815352869E+02  0.96227801156E+02  0.41800000000E+01 0.  1.
        -11    1    1    2    0    0 -0.46835271600E+02  0.51417063276E+02  0.28009087256E+02  0.74978437105E+02  0.00000000000E+00 0. -1.
         11    1    1    2    0    0 -0.51371879243E+01 -0.35883836258E+02  0.20762498273E+02  0.41774654264E+02  0.00000000000E+00 0.  1.
</event>
<event>
 7    1  0.2530765E-009  0.1553746E+03  0.7561462E-02  0.1194020E+00
          2   -1    0    0  501    0  0.00000000000E+00  0.00000000000E+00  0.11501712862E+03  0.11501712862E+03  0.00000000000E+00 0. -1.
         -2   -1    0    0    0  501 -0.00000000000E+00 -0.00000000000E+00 -0.35257774501E+03  0.35257774501E+03  0.00000000000E+00 0.  1.
         25    2    1    2    0    0 -0.11277147256E+03 -0.29500212318E+02 -0.27179615001E+03  0.32110519194E+03  0.12509088528E+03 0.  0.
          5    1    3    3  502    0 -0.55000966786E+02 -0.77424465787E+02 -0.13679104622E+03  0.16658006176E+03  0.41800000000E+01 0.  1.
         -5    1    3    3    0  502 -0.57770505774E+02  0.47924253469E+02 -0.13500510378E+03  0.15452513017E+03  0.41800000000E+01 0.  1.
        -11    1    1    2    0    0  0.16533533734E+02 -0.24952492270E+02 -0.23353034685E+01  0.30023961273E+02  0.00000000000E+00 0.  1.
         11    1    1    2    0    0  0.96237938826E+02  0.54452704588E+02  0.36570837085E+02  0.11646572041E+03  0.00000000000E+00 0. -1.
</event>
<event>
 7    1  0.2530765E-009  0.1091648E+03  0.7561462E-02  0.1262124E+00
         -2   -1    0    0    0  501 -0.00000000000E+00  0.00000000000E+00  0.72799081944E+02  0.72799081944E+02  0.00000000000E+00 0. -1.
          2   -1    0    0  501    0  0.00000000000E+00 -0.00000000000E+00 -0.32069420164E+03  0.32069420164E+03  0.00000000000E+00 0.  1.
         25    2    1    2    0    0 -0.92234298148E+02 -0.29253031301E+02 -0.70198744365E+02  0.17303044967E+03  0.12509503271E+03 0.  0.
          5    1    3    3  502    0 -0.10128455822E+02 -0.35048834942E+02  0.27010853579E+02  0.45585798876E+02  0.41800000000E+01 0. -1.
         -5    1    3    3    0  502 -0.82105842326E+02  0.57958036409E+01 -0.97209597943E+02  0.12744465079E+03  0.41800000000E+01 0. -1.
        -11    1    1    2    0    0  0.22453567602E+02  0.17411459968E+02 -0.13466533969E+03  0.13763021235E+03  0.00000000000E+00 0.  1.
         11    1    1    2    0    0  0.69780730546E+02  0.11841571333E+02 -0.43031035636E+02  0.82832621564E+02  0.00000000000E+00 0. -1.
</event>
<event>
 7    1  0.2530765E-009  0.2199026E+03  0.7561462E-02  0.1133956E+00
          2   -1    0    0  501    0  0.00000000000E+00  0.00000000000E+00  0.37508486862E+03  0.37508486862E+03  0.00000000000E+00 0. -1.
         -2   -1    0    0    0  501 -0.00000000000E+00 -0.00000000000E+00 -0.13970930857E+03  0.13970930857E+03  0.00000000000E+00 0.  1.
         25    2    1    2    0    0  0.93842467094E+02 -0.17223210469E+03  0.17333656018E+03  0.29010986496E+03  0.12509142311E+03 0.  0.
          5    1    3    3  502    0  0.12403257575E+03 -0.12405673525E+03  0.12628068875E+03  0.21619074485E+03  0.41800000000E+01 0. -1.
         -5    1    3    3    0  502 -0.30190108659E+02 -0.48175369443E+02  0.47055871428E+02  0.73919120109E+02  0.41800000000E+01 0. -1.
        -11    1    1    2    0    0 -0.63267654274E+02  0.16381904059E+03  0.27424726436E+02  0.17774023111E+03  0.00000000000E+00 0. -1.
         11    1    1    2    0    0 -0.30574812820E+02  0.84130641061E+01  0.34614273438E+02  0.46944081121E+02  0.00000000000E+00 0.  1.
</event>
<event>
 7    1  0.2530765E-009  0.9937893E+02  0.7561462E-02  0.1281607E+00
          1   -1    0    0  501    0  0.00000000000E+00  0.00000000000E+00  0.67985609164E+03  0.67985609164E+03  0.00000000000E+00 0. -1.
         -1   -1    0    0    0  501 -0.00000000000E+00 -0.00000000000E+00 -0.46334842466E+02  0.46334842466E+02  0.00000000000E+00 0.  1.
         25    2    1    2    0    0  0.27176347576E+02 -0.66055382448E+02  0.92126913975E+02  0.17098514392E+03  0.12508670491E+03 0.  0.
          5    1    3    3  502    0 -0.13834067748E+01 -0.41846284725E+02 -0.24317261731E+02  0.48598631439E+02  0.41800000000E+01 0.  1.
         -5    1    3    3    0  502  0.28559754351E+02 -0.24209097723E+02  0.11644417571E+03  0.12238651248E+03  0.41800000000E+01 0.  1.
        -11    1    1    2    0    0 -0.63053033060E+02  0.40042341393E+02  0.40383606988E+03  0.41068557976E+03  0.00000000000E+00 0.  1.
         11    1    1    2    0    0  0.35876685484E+02  0.26013041055E+02  0.13755826532E+03  0.14452021044E+03  0.00000000000E+00 0. -1.
</event>
<event>
 7    1  0.2530765E-009  0.1266399E+03  0.7561462E-02  0.1232528E+00
          2   -1    0    0  501    0  0.00000000000E+00  0.00000000000E+00  0.73303785826E+02  0.73303785826E+02  0.00000000000E+00 0.  1.
         -2   -1    0    0    0  501 -0.00000000000E+00 -0.00000000000E+00 -0.30722433751E+03  0.30722433751E+03  0.00000000000E+00 0. -1.
         25    2    1    2    0    0 -0.74000956729E+02 -0.38981353209E+02 -0.50142296323E+02  0.15860940145E+03  0.12508798845E+03 0.  0.
          5    1    3    3  502    0  0.21912402204E+02  0.96308385079E+01 -0.44681292134E+02  0.50860561219E+02  0.41800000000E+01 0.  1.
         -5    1    3    3    0  502 -0.95913358932E+02 -0.48612191717E+02 -0.54610041882E+01  0.10774884023E+03  0.41800000000E+01 0.  1.
        -11    1    1    2    0    0  0.26294629937E+02 -0.28469833728E+02 -0.37531881886E+02  0.53949802168E+02  0.00000000000E+00 0.  1.
         11    1    1    2    0    0  0.47706326792E+02  0.67451186937E+02 -0.14624637348E+03  0.16796891972E+03  0.00000000000E+00 0. -1.
</event>
<event>
 7    1  0.2530765E-009  0.1155830E+03  0.7561462E-02  0.1250567E+00
          1   -1    0    0  501    0  0.00000000000E+00  0.00000000000E+00  0.58174026844E+02  0.58174026844E+02  0.00000000000E+00 0. -1.
         -1   -1    0    0    0  501 -0.00000000000E+00 -0.00000000000E+00 -0.23492116010E+03  0.23492116010E+03  0.00000000000E+00 0.  1.
         25    2    1    2    0    0  0.42873162922E+02  0.14233353147E+02 -0.10951004921E+03  0.17227949125E+03  0.12508827198E+03 0.  0.
          5    1    3    3  502    0 -0.44332131041E+02  0.74476519188E+01 -0.32037671829E+02  0.55359643947E+02  0.41800000000E+01 0.  1.
         -5    1    3    3    0  502  0.87205293963E+02  0.67857012282E+01 -0.77472377382E+02  0.11691984730E+03  0.41800000000E+01 0.  1.
        -11    1    1    2    0    0  0.26152872883E+02  0.53608722038E+01 -0.29345382880E+02  0.39671944837E+02  0.00000000000E+00 0.  1.
         11    1    1    2    0    0 -0.69026035805E+02 -0.19594225351E+02 -0.37891701166E+02  0.81143750858E+02  0.00000000000E+00 0. -1.
</event>
<event>
 7    1  0.2530765E-009  0.1746266E+03  0.7561462E-02  0.1173107E+00
         -2   -1    0    0    0  501 -0.00000000000E+00  0.00000000000E+00  0.92447474957E+02  0.92447474957E+02  0.00000000000E+00 0.  1.
          2   -1    0    0  501    0  0.00000000000E+00 -0.00000000000E+00 -0.44905666399E+03  0.44905666399E+03  0.00000000000E+00 0. -1.
         25    2    1    2    0    0  0.32306994162E+02 -0.13609534977E+03 -0.27870200189E+03  0.33598370974E+03  0.12507822054E+03 0.  0.
          5    1    3    3  502    0  0.22843091232E+02 -0.14420785816E+03 -0.28585881886E+03  0.32101471912E+03  0.41800000000E+01 0. -1.
         -5    1    3    3    0  502  0.94639029305E+01  0.81125083867E+01  0.71568169733E+01  0.14968990620E+02  0.41800000000E+01 0. -1.
        -11    1    1    2    0    0  0.49808829435E+02  0.61120612693E+02 -0.28426424185E+02  0.83813545311E+02  0.00000000000E+00 0. -1.
         11    1    1    2    0    0 -0.82115823597E+02  0.74974737079E+02 -0.49480762967E+02  0.12170688390E+03  0.00000000000E+00 0.  1.
</event>
<event>
 7    1  0.2530765E-009  0.1403313E+03  0.7561462E-02  0.1212884E+00
          2   -1    0    0  501    0  0.00000000000E+00  0.00000000000E+00  0.20808975994E+03  0.20808975994E+03  0.00000000000E+00 0. -1.
         -2   -1    0    0    0  501 -0.00000000000E+00 -0.00000000000E+00 -0.13043810917E+03  0.13043810917E+03  0.00000000000E+00 0.  1.
         25    2    1    2    0    0 -0.11489951536E+03  0.24352345214E+02  0.80709436209E+02  0.18962070750E+03  0.12508822596E+03 0.  0.
          5    1    3    3  502    0 -0.12041406656E+03  0.19321140467E+01  0.10204668826E+03  0.15790591970E+03  0.41800000000E+01 0.  1.
         -5    1    3    3    0  502  0.55145511990E+01  0.22420231168E+02 -0.21337252055E+02  0.31714787810E+02  0.41800000000E+01 0.  1.
        -11    1    1    2    0    0  0.76011024266E+02  0.19109638473E+02 -0.30942707880E+02  0.84263309118E+02  0.00000000000E+00 0. -1.
         11    1    1    2    0    0  0.38888491090E+02 -0.43461983687E+02  0.27884922437E+02  0.64643852489E+02  0.00000000000E+00 0.  1.
</event>
<event>
 7    1  0.2530765E-009  0.1192706E+03  0.7561462E-02  0.1244305E+00
         -2   -1    0    0    0  501 -0.00000000000E+00  0.00000000000E+00  0.11906590910E+03  0.11906590910E+03  0.00000000000E+00 0.  1.
          2   -1    0    0  501    0  0.00000000000E+00 -0.00000000000E+00 -0.22454353549E+03  0.22454353549E+03  0.00000000000E+00 0. -1.
         25    2    1    2    0    0  0.39133617855E+01  0.95660421715E+02 -0.13590929867E+03  0.20805126959E+03  0.12509101739E+03 0.  0.
          5    1    3    3  502    0  0.27777855129E+02  0.35357924635E+02 -0.13574946072E+03  0.14306355426E+03  0.41800000000E+01 0. -1.
         -5    1    3    3    0  502 -0.23864493343E+02  0.60302497079E+02 -0.15983794871E+00  0.64987715337E+02  0.41800000000E+01 0. -1.
        -11    1    1    2    0    0 -0.36811354799E+02 -0.12354754584E+02  0.24248242031E+02  0.45778740094E+02  0.00000000000E+00 0. -1.
         11    1    1    2    0    0  0.32897993014E+02 -0.83305667131E+02  0.61834302489E+01  0.89779434895E+02  0.00000000000E+00 0.  1.
</event>
<event>
 7    1  0.2798395E-009  0.8323648E+02  0.7561462E-02  0.1320110E+00
          2   -1    0    0  501    0  0.00000000000E+00  0.00000000000E+00  0.15033126678E+04  0.15033126678E+04  0.00000000000E+00 0. -1.
         -2   -1    0    0    0  501 -0.00000000000E+00 -0.00000000000E+00 -0.11238301858E+02  0.11238301858E+02  0.00000000000E+00 0.  1.
         25    2    1    2    0    0 -0.23735507209E+02 -0.38444863832E+02  0.11464207443E+04  0.11541094810E+04  0.12508712741E+03 0.  0.
          5    1    3    3  502    0  0.25595868086E+02 -0.24391167971E+02  0.96155583517E+03  0.96221472348E+03  0.41800000000E+01 0. -1.
         -5    1    3    3    0  502 -0.49331375295E+02 -0.14053695860E+02  0.18486490911E+03  0.19189475755E+03  0.41800000000E+01 0. -1.
        -11    1    1    2    0    0 -0.11039692742E+02 -0.13160221174E+02  0.11805226068E+02  0.20842974829E+02  0.00000000000E+00 0.  1.
         11    1    1    2    0    0  0.34775199951E+02  0.51605085006E+02  0.33384839557E+03  0.33959851377E+03  0.00000000000E+00 0. -1.
</event>
<event>
 7    1  0.2530765E-009  0.8419821E+02  0.7561462E-02  0.1317543E+00
          2   -1    0    0  501    0  0.00000000000E+00  0.00000000000E+00  0.42804320746E+02  0.42804320746E+02  0.00000000000E+00 0. -1.
         -2   -1    0    0    0  501 -0.00000000000E+00 -0.00000000000E+00 -0.45485007796E+03  0.45485007796E+03  0.00000000000E+00 0.  1.
         25    2    1    2    0    0 -0.13295383145E+02  0.22521931019E+02 -0.37506399193E+03  0.39623910813E+03  0.12509367761E+03 0.  0.
          5    1    3    3  502    0  0.47347449128E+02  0.21042808202E+02 -0.83160956635E+02  0.98070371797E+02  0.41800000000E+01 0. -1.
         -5    1    3    3    0  502 -0.60642832273E+02  0.14791228170E+01 -0.29190303530E+03  0.29816873633E+03  0.41800000000E+01 0. -1.
        -11    1    1    2    0    0 -0.17283001211E+02  0.56991613872E+00  0.23887327894E+02  0.29489512867E+02  0.00000000000E+00 0. -1.
         11    1    1    2    0    0  0.30578384356E+02 -0.23091847158E+02 -0.60869093173E+02  0.71925777706E+02  0.00000000000E+00 0.  1.
</event>
<event>
 7    1  0.2530765E-009  0.1768246E+03  0.7561462E-02  0.1170912E+00
          1   -1    0    0  501    0  0.00000000000E+00  0.00000000000E+00  0.21985900159E+03  0.21985900159E+03  0.00000000000E+00 0. -1.
         -1   -1    0    0    0  501 -0.00000000000E+00 -0.00000000000E+00 -0.15269488899E+03  0.15269488899E+03  0.00000000000E+00 0.  1.
         25    2    1    2    0    0  0.13805892737E+03  0.47706054714E+02  0.47880672332E+02  0.19818196879E+03  0.12508956347E+03 0.  0.
          5    1    3    3  502    0  0.10637950133E+03  0.81619822365E+02  0.64319352663E+02  0.14877111693E+03  0.41800000000E+01 0. -1.
         -5    1    3    3    0  502  0.31679426042E+02 -0.33913767651E+02 -0.16438680331E+02  0.49410851861E+02  0.41800000000E+01 0. -1.
        -11    1    1    2    0    0 -0.79011154619E+02 -0.74012525380E+02  0.17777903145E+02  0.10971176012E+03  0.00000000000E+00 0.  1.
         11    1    1    2    0    0 -0.59047772749E+02  0.26306470666E+02  0.15055371153E+01  0.64660161673E+02  0.00000000000E+00 0. -1.
</event>
<event>
 7    1  0.2530765E-009  0.9957359E+02  0.7561462E-02  0.1281195E+00
         -1   -1    0    0    0  501 -0.00000000000E+00  0.00000000000E+00  0.24502049181E+02  0.24502049181E+02  0.00000000000E+00 0.  1.
          1   -1    0    0  501    0  0.00000000000E+00 -0.00000000000E+00 -0.56295721632E+03  0.56295721632E+03  0.00000000000E+00 0. -1.
         25    2    1    2    0    0  0.35210942682E+02  0.19412517180E+02 -0.29513696124E+03  0.32306241194E+03  0.12508732875E+03 0.  0.
          5    1    3    3  502    0 -0.25038958504E+02  0.55059684786E+02 -0.12118568240E+03  0.13550631111E+03  0.41800000000E+01 0.  1.
         -5    1    3    3    0  502  0.60249901186E+02 -0.35647167606E+02 -0.17395127883E+03  0.18755610083E+03  0.41800000000E+01 0.  1.
        -11    1    1    2    0    0 -0.43421886452E+02  0.39716939774E+01 -0.23382703233E+03  0.23785776343E+03  0.00000000000E+00 0. -1.
         11    1    1    2    0    0  0.82109437697E+01 -0.23384211158E+02 -0.94911735753E+01  0.26539090129E+02  0.00000000000E+00 0.  1.
</event>
<event>
 7    1  0.2530765E-009  0.1735027E+03  0.7561462E-02  0.1174244E+00
          4   -1    0    0  501    0  0.00000000000E+00  0.00000000000E+00  0.20087375565E+03  0.20087375565E+03  0.00000000000E+00 0. -1.
         -4   -1    0    0    0  501 -0.00000000000E+00 -0.00000000000E+00 -0.20041376118E+03  0.20041376118E+03  0.00000000000E+00 0.  1.
         25    2    1    2    0    0  0.13327865667E+03 -0.71309880060E+02 -0.74184832072E+02  0.20976007638E+03  0.12509037139E+03 0.  0.
          5    1    3    3  502    0  0.21655713696E+01  0.13579436373E+02 -0.49533735727E+02  0.51576682392E+02  0.41800000000E+01 0. -1.
         -5    1    3    3    0  502  0.13111308530E+03 -0.84889316433E+02 -0.24651096345E+02  0.15818339398E+03  0.41800000000E+01 0. -1.
        -11    1    1    2    0    0 -0.62302081798E+00  0.40099783599E+02  0.16760359402E+02  0.43465968837E+02  0.00000000000E+00 0. -1.
         11    1    1    2    0    0 -0.13265563585E+03  0.31210096461E+02  0.57884467139E+02  0.14806147163E+03  0.00000000000E+00 0.  1.
</event>
<event>
 7    1  0.2530765E-009  0.1849625E+03  0.7561462E-02  0.1163085E+00
          2   -1    0    0  501    0  0.00000000000E+00  0.00000000000E+00  0.10070161700E+04  0.10070161700E+04  0.00000000000E+00 0. -1.
         -2   -1    0    0    0  501 -0.00000000000E+00 -0.00000000000E+00 -0.41144813452E+02  0.41144813452E+02  0.00000000000E+00 0.  1.
         25    2    1    2    0    0 -0.12363060127E+03 -0.89563685299E+02  0.69449297386E+03  0.72199264002E+03  0.12508677871E+03 0.  0.
          5    1    3    3  502    0 -0.14053739507E+03 -0.48352552884E+02  0.46543181936E+03  0.48860309010E+03  0.41800000000E+01 0.  1.
         -5    1    3    3    0  502  0.16906793797E+02 -0.41211132415E+02  0.22906115450E+03  0.23338954992E+03  0.41800000000E+01 0.  1.
        -11    1    1    2    0    0  0.95047160758E+01  0.57050131274E+02  0.57384318522E+02  0.81474027262E+02  0.00000000000E+00 0.  1.
         11    1    1    2    0    0  0.11412588519E+03  0.32513554025E+02  0.21399406415E+03  0.24469431616E+03  0.00000000000E+00 0. -1.
</event>
<event>
 7    1  0.2530765E-009  0.1286643E+03  0.7561462E-02  0.1229451E+00
         -2   -1    0    0    0  501 -0.00000000000E+00  0.00000000000E+00  0.13180839382E+03  0.13180839382E+03  0.00000000000E+00 0.  1.
          2   -1    0    0  501    0  0.00000000000E+00 -0.00000000000E+00 -0.17260386806E+03  0.17260386806E+03  0.00000000000E+00 0. -1.
         25    2    1    2    0    0 -0.81703807163E+02 -0.11513067807E+02 -0.81582120924E+02  0.17061631059E+03  0.12508485180E+03 0.  0.
          5    1    3    3  502    0 -0.96637354752E+02  0.31936657051E+02 -0.43370251289E+02  0.11071214700E+03  0.41800000000E+01 0. -1.
         -5    1    3    3    0  502  0.14933547589E+02 -0.43449724857E+02 -0.38211869635E+02  0.59904163585E+02  0.41800000000E+01 0. -1.
        -11    1    1    2    0    0  0.83933397403E+02 -0.12810364481E+02  0.58944697090E+02  0.10336052415E+03  0.00000000000E+00 0.  1.
         11    1    1    2    0    0 -0.22295902401E+01  0.24323432288E+02 -0.18158050410E+02  0.30435427147E+02  0.00000000000E+00 0. -1.
</event>
<event>
 7    1  0.2530765E-009  0.8014501E+02  0.7561462E-02  0.1328640E+00
          1   -1    0    0  501    0  0.00000000000E+00  0.00000000000E+00  0.23218001586E+03  0.23218001586E+03  0.00000000000E+00 0. -1.
         -1   -1    0    0    0  501 -0.00000000000E+00 -0.00000000000E+00 -0.73773717819E+02  0.73773717819E+02  0.00000000000E+00 0.  1.
         25    2    1    2    0    0 -0.56981216913E+02  0.42384224358E+02  0.11081575559E+03  0.18157428879E+03  0.12508320873E+03 0.  0.
          5    1    3    3  502    0 -0.65272164485E+02  0.34029193632E+02  0.37941232678E+01  0.73826209758E+02  0.41800000000E+01 0.  1.
         -5    1    3    3    0  502  0.82909475725E+01  0.83550307261E+01  0.10702163232E+03  0.10774807903E+03  0.41800000000E+01 0.  1.
        -11    1    1    2    0    0  0.37232849621E+01 -0.12411299523E+02  0.60538727109E+02  0.61909940128E+02  0.00000000000E+00 0. -1.
         11    1    1    2    0    0  0.53257931951E+02 -0.29972924836E+02 -0.12948184659E+02  0.62469504759E+02  0.00000000000E+00 0.  1.
</event>
<event>
 7    1  0.2530765E-009  0.3480273E+03  0.7561462E-02  0.1063428E+00
         -1   -1    0    0    0  501 -0.00000000000E+00  0.00000000000E+00  0.47429479770E+02  0.47429479770E+02  0.00000000000E+00 0.  1.
          1   -1    0    0  501    0  0.00000000000E+00 -0.00000000000E+00 -0.29062453293E+04  0.29062453293E+04  0.00000000000E+00 0. -1.
         25    2    1    2    0    0 -0.42076239828E+02  0.33380746486E+03 -0.18944804528E+04  0.19281863090E+04  0.12509365492E+03 0.  0.
          5    1    3    3  502    0 -0.67579702721E+02  0.18148579681E+03 -0.12803610216E+04  0.12949308586E+04  0.41800000000E+01 0.  1.
         -5    1    3    3    0  502  0.25503462892E+02  0.15232166805E+03 -0.61411943125E+03  0.63325545036E+03  0.41800000000E+01 0.  1.
        -11    1    1    2    0    0 -0.24416971396E+02 -0.42163543667E+02 -0.11026941208E+03  0.12055412124E+03  0.00000000000E+00 0.  1.
         11    1    1    2    0    0  0.66493211225E+02 -0.29164392119E+03 -0.85406598456E+03  0.90493437878E+03  0.00000000000E+00 0. -1.
</event>
<event>
 7    1  0.2530765E-009  0.1140120E+03  0.7561462E-02  0.1253316E+00
         -2   -1    0    0    0  501 -0.00000000000E+00  0.00000000000E+00  0.47913423546E+02  0.47913423546E+02  0.00000000000E+00 0.  1.
          2   -1    0    0  501    0  0.00000000000E+00 -0.00000000000E+00 -0.38583526429E+03  0.38583526429E+03  0.00000000000E+00 0. -1.
         25    2    1    2    0    0 -0.58634112318E+02 -0.49979703747E+02 -0.22473343466E+03  0.26849315195E+03  0.12509007185E+03 0.  0.
          5    1    3    3  502    0 -0.64728049019E+02 -0.78999205964E+02 -0.11104643325E+03  0.15092838570E+03  0.41800000000E+01 0.  1.
         -5    1    3    3    0  502  0.60939367001E+01  0.29019502217E+02 -0.11368700141E+03  0.11756476625E+03  0.41800000000E+01 0.  1.
        -11    1    1    2    0    0  0.32016060663E+02 -0.71779063117E+01  0.31171215892E+01  0.32958563780E+02  0.00000000000E+00 0.  1.
         11    1    1    2    0    0  0.26618051655E+02  0.57157610058E+02 -0.11630552768E+03  0.13229697211E+03  0.00000000000E+00 0. -1.
</event>
<event>
 7    1  0.2530765E-009  0.9900124E+02  0.7561462E-02  0.1282410E+00
         -1   -1    0    0    0  501 -0.00000000000E+00  0.00000000000E+00  0.33282933969E+03  0.33282933969E+03  0.00000000000E+00 0.  1.
          1   -1    0    0  501    0  0.00000000000E+00 -0.00000000000E+00 -0.40761840748E+02  0.40761840748E+02  0.00000000000E+00 0. -1.
         25    2    1    2    0    0  0.23418967266E+02  0.24466325993E+00  0.21932967701E+03  0.25358153769E+03  0.12509828597E+03 0.  0.
          5    1    3    3  502    0 -0.35308918894E+02 -0.28100408083E+02  0.32816784017E+02  0.55953251927E+02  0.41800000000E+01 0.  1.
         -5    1    3    3    0  502  0.58727886160E+02  0.28345071343E+02  0.18651289299E+03  0.19762828576E+03  0.41800000000E+01 0.  1.
        -11    1    1    2    0    0  0.21248125138E+02 -0.27698254047E+02  0.54061439664E+02  0.64353052435E+02  0.00000000000E+00 0.  1.
         11    1    1    2    0    0 -0.44667092404E+02  0.27453590787E+02  0.18676382278E+02  0.55656590319E+02  0.00000000000E+00 0. -1.
</event>
<event>
 7    1  0.2530765E-009  0.2542337E+03  0.7561462E-02  0.1110658E+00
          1   -1    0    0  501    0  0.00000000000E+00  0.00000000000E+00  0.54173831979E+03  0.54173831979E+03  0.00000000000E+00 0. -1.
         -1   -1    0    0    0  501 -0.00000000000E+00 -0.00000000000E+00 -0.13424575584E+03  0.13424575584E+03  0.00000000000E+00 0.  1.
         25    2    1    2    0    0 -0.86936770359E+02 -0.23008559366E+03  0.22740894997E+03  0.35757565150E+03  0.12509250004E+03 0.  0.
          5    1    3    3  502    0  0.12725858177E+02 -0.44788112368E+02  0.10299729917E+03  0.11310985152E+03  0.41800000000E+01 0. -1.
         -5    1    3    3    0  502 -0.99662628536E+02 -0.18529748129E+03  0.12441165080E+03  0.24446579997E+03  0.41800000000E+01 0. -1.
        -11    1    1    2    0    0  0.93927538922E+02  0.21659697085E+03  0.13752885920E+03  0.27322301781E+03  0.00000000000E+00 0.  1.
         11    1    1    2    0    0 -0.69907685632E+01  0.13488622814E+02  0.42554754772E+02  0.45185406319E+02  0.00000000000E+00 0. -1.
</event>
<event>
 7    1  0.2530765E-009  0.1564243E+03  0.7561462E-02  0.1192794E+00
          2   -1    0    0  501    0  0.00000000000E+00  0.00000000000E+00  0.30358643364E+03  0.30358643364E+03  0.00000000000E+00 0. -1.
         -2   -1    0    0    0  501 -0.00000000000E+00 -0.00000000000E+00 -0.10235861374E+03  0.10235861374E+03  0.00000000000E+00 0.  1.
         25    2    1    2    0    0  0.27056285562E+02  0.11133918529E+03  0.17091254388E+02  0.17049222939E+03  0.12508809910E+03 0.  0.
          5    1    3    3  502    0 -0.20634779574E+02  0.11750268458E+03  0.23907012687E+02  0.12174437427E+03  0.41800000000E+01 0. -1.
         -5    1    3    3    0  502  0.47691065136E+02 -0.61634992919E+01 -0.68157582989E+01  0.48747855117E+02  0.41800000000E+01 0. -1.
        -11    1    1    2    0    0 -0.51415035460E+02 -0.28345097931E+02  0.58160345391E+02  0.82641250136E+02  0.00000000000E+00 0.  1.
         11    1    1    2    0    0  0.24358749898E+02 -0.82994087355E+02  0.12597622012E+03  0.15281156785E+03  0.00000000000E+00 0. -1.
</event>
<event>
 7    1  0.2756322E-009  0.1145759E+03  0.7561462E-02  0.1252323E+00
         -1   -1    0    0    0  501 -0.00000000000E+00  0.00000000000E+00  0.96307241154E+02  0.96307241154E+02  0.00000000000E+00 0.  1.
          1   -1    0    0  501    0  0.00000000000E+00 -0.00000000000E+00 -0.22674327881E+03  0.22674327881E+03  0.00000000000E+00 0. -1.
         25    2    1    2    0    0  0.22318029741E+02  0.96785895066E+02 -0.62831614413E+02  0.17164449664E+03  0.12509363502E+03 0.  0.
          5    1    3    3  502    0 -0.20529998295E+02 -0.13746291141E+01  0.25300440045E+02  0.32877881648E+02  0.41800000000E+01 0. -1.
         -5    1    3    3    0  502  0.42848028035E+02  0.98160524180E+02 -0.88132054458E+02  0.13876661499E+03  0.41800000000E+01 0. -1.
        -11    1    1    2    0    0  0.24879932486E+01 -0.22805635785E+02  0.22554126020E+02  0.32171038753E+02  0.00000000000E+00 0.  1.
         11    1    1    2    0    0 -0.24806022989E+02 -0.73980259281E+02 -0.90158549260E+02  0.11923498457E+03  0.00000000000E+00 0. -1.
</event>
<event>
 7    1  0.2530765E-009  0.1037331E+03  0.7561462E-02  0.1272636E+00
         -2   -1    0    0    0  501 -0.00000000000E+00  0.00000000000E+00  0.10535164938E+03  0.10535164938E+03  0.00000000000E+00 0.  1.
          2   -1    0    0  501    0  0.00000000000E+00 -0.00000000000E+00 -0.18309976958E+03  0.18309976958E+03  0.00000000000E+00 0. -1.
         25    2    1    2    0    0  0.75281477205E+02 -0.34000409125E+02 -0.14948366829E+02  0.15064201136E+03  0.12508490430E+03 0.  0.
          5    1    3    3  502    0  0.30240341342E+01 -0.50377796543E+02 -0.47662370436E+02  0.69543088245E+02  0.41800000000E+01 0.  1.
         -5    1    3    3    0  502  0.72257443070E+02  0.16377387418E+02  0.32714003607E+02  0.81098923111E+02  0.41800000000E+01 0.  1.
        -11    1    1    2    0    0 -0.11508601796E+02  0.57923158387E+01  0.23534652008E+02  0.26830555030E+02  0.00000000000E+00 0.  1.
         11    1    1    2    0    0 -0.63772875408E+02  0.28208093287E+02 -0.86334405379E+02  0.11097885257E+03  0.00000000000E+00 0. -1.
</event>
<event>
 7    1  0.2530765E-009  0.2889456E+03  0.7561462E-02  0.1090901E+00
         -2   -1    0    0    0  501 -0.00000000000E+00  0.00000000000E+00  0.45182117262E+03  0.45182117262E+03  0.00000000000E+00 0.  1.
          2   -1    0    0  501    0  0.00000000000E+00 -0.00000000000E+00 -0.20405788114E+03  0.20405788114E+03  0.00000000000E+00 0. -1.
         25    2    1    2    0    0  0.14168699390E+02  0.26971046417E+03  0.21906132589E+03  0.36956865452E+03  0.12509452176E+03 0.  0.
          5    1    3    3  502    0  0.64221477820E+02  0.19903877961E+03  0.13605383475E+03  0.24953747684E+03  0.41800000000E+01 0.  1.
         -5    1    3    3    0  502 -0.50052778430E+02  0.70671684567E+02  0.83007491143E+02  0.12003117767E+03  0.41800000000E+01 0.  1.
        -11    1    1    2    0    0  0.33256248759E+02 -0.14000757060E+03 -0.56030314441E+01  0.14401212403E+03  0.00000000000E+00 0. -1.
         11    1    1    2    0    0 -0.47424948149E+02 -0.12970289357E+03  0.34304997036E+02  0.14229827522E+03  0.00000000000E+00 0.  1.
</event>
<event>
 7    1  0.2530765E-009  0.8557477E+02  0.7561462E-02  0.1313936E+00
          1   -1    0    0  501    0  0.00000000000E+00  0.00000000000E+00  0.66734942781E+03  0.66734942781E+03  0.00000000000E+00 0. -1.
         -1   -1    0    0    0  501 -0.00000000000E+00 -0.00000000000E+00 -0.15685965508E+02  0.15685965508E+02  0.00000000000E+00 0.  1.
         25    2    1    2    0    0 -0.55847996481E+01 -0.51027345850E+02  0.40703756134E+03  0.42890760897E+03  0.12508869124E+03 0.  0.
          5    1    3    3  502    0 -0.39378267745E+02  0.26701011886E+01  0.39804774951E+02  0.56210941283E+02  0.41800000000E+01 0.  1.
         -5    1    3    3    0  502  0.33793468097E+02 -0.53697447039E+02  0.36723278639E+03  0.37269666769E+03  0.41800000000E+01 0.  1.
        -11    1    1    2    0    0  0.17276590350E+02  0.19043603718E+01  0.45718617971E+02  0.48911135662E+02  0.00000000000E+00 0. -1.
         11    1    1    2    0    0 -0.11691790702E+02  0.49122985479E+02  0.19890728299E+03  0.20521664869E+03  0.00000000000E+00 0.  1.
</event>
<event>
 7    1  0.2530765E-009  0.1833885E+03  0.7561462E-02  0.1164563E+00
          1   -1    0    0  501    0  0.00000000000E+00  0.00000000000E+00  0.25036173601E+03  0.25036173601E+03  0.00000000000E+00 0. -1.
         -1   -1    0    0    0  501 -0.00000000000E+00 -0.00000000000E+00 -0.21619770581E+03  0.21619770581E+03  0.00000000000E+00 0.  1.
         25    2    1    2    0    0 -0.11140201628E+03  0.11004650878E+03  0.15077603529E+03  0.25079715162E+03  0.12508059449E+03 0.  0.
          5    1    3    3  502    0 -0.12612011902E+03  0.66669762855E+02  0.72671950950E+02  0.16015563230E+03  0.41800000000E+01 0.  1.
         -5    1    3    3    0  502  0.14718102740E+02  0.43376745923E+02  0.78104084340E+02  0.90641519325E+02  0.41800000000E+01 0.  1.
        -11    1    1    2    0    0  0.86028483306E+02 -0.25407693036E+02 -0.37728563765E+02  0.97313387204E+02  0.00000000000E+00 0. -1.
         11    1    1    2    0    0  0.25373532978E+02 -0.84638815741E+02 -0.78883441318E+02  0.11844890299E+03  0.00000000000E+00 0.  1.
</event>
<event>
 7    1  0.2530765E-009  0.1930948E+03  0.7561462E-02  0.1155699E+00
         -2   -1    0    0    0  501 -0.00000000000E+00  0.00000000000E+00  0.25706688540E+02  0.25706688540E+02  0.00000000000E+00 0.  1.
          2   -1    0    0  501    0  0.00000000000E+00 -0.00000000000E+00 -0.17971794312E+04  0.17971794312E+04  0.00000000000E+00 0. -1.
         25    2    1    2    0    0  0.16215198030E+03  0.82838194559E+02 -0.78240493293E+03  0.81299567656E+03  0.12509620235E+03 0.  0.
          5    1    3    3  502    0  0.13145527665E+03  0.66453225454E+02 -0.75289595303E+03  0.76718075407E+03  0.41800000000E+01 0.  1.
         -5    1    3    3    0  502  0.30696703655E+02  0.16384969104E+02 -0.29508979898E+02  0.45814922487E+02  0.41800000000E+01 0.  1.
        -11    1    1    2    0    0 -0.49128830153E+02 -0.76077391103E+02 -0.41574911041E+03  0.42549821879E+03  0.00000000000E+00 0. -1.
         11    1    1    2    0    0 -0.11302315015E+03 -0.67608034554E+01 -0.57331869934E+03  0.58439222440E+03  0.00000000000E+00 0.  1.
</event>
<event>
 7    1  0.2530765E-009  0.1280998E+03  0.7561462E-02  0.1230303E+00
         -2   -1    0    0    0  501 -0.00000000000E+00  0.00000000000E+00  0.75996642254E+02  0.75996642254E+02  0.00000000000E+00 0.  1.
          2   -1    0    0  501    0  0.00000000000E+00 -0.00000000000E+00 -0.27118695036E+03  0.27118695036E+03  0.00000000000E+00 0. -1.
         25    2    1    2    0    0 -0.26553592763E+02  0.87784940504E+02 -0.13281758058E+03  0.20420376061E+03  0.12508947625E+03 0.  0.
          5    1    3    3  502    0  0.39099260486E+02 -0.67219770539E+01 -0.31579413429E+02  0.50878963223E+02  0.41800000000E+01 0.  1.
         -5    1    3    3    0  502 -0.65652853249E+02  0.94506917558E+02 -0.10123816715E+03  0.15332479739E+03  0.41800000000E+01 0.  1.
        -11    1    1    2    0    0  0.13974330363E+02 -0.16065091938E+01  0.19099914016E+02  0.23720655477E+02  0.00000000000E+00 0.  1.
         11    1    1    2    0    0  0.12579262401E+02 -0.86178431310E+02 -0.81472641539E+02  0.11925917652E+03  0.00000000000E+00 0. -1.
</event>
<event>
 7    1  0.2530765E-009  0.1780565E+03  0.7561462E-02  0.1169697E+00
         -1   -1    0    0    0  501 -0.00000000000E+00  0.00000000000E+00  0.70498691595E+03  0.70498691595E+03  0.00000000000E+00 0.  1.
          1   -1    0    0  501    0  0.00000000000E+00 -0.00000000000E+00 -0.10142220865E+03  0.10142220865E+03  0.00000000000E+00 0. -1.
         25    2    1    2    0    0  0.44375321432E+02 -0.14782791780E+03  0.59497080439E+03  0.62726469607E+03  0.12509387844E+03 0.  0.
          5    1    3    3  502    0  0.72283529605E+02 -0.53507589608E+02  0.18645313214E+03  0.20705123444E+03  0.41800000000E+01 0. -1.
         -5    1    3    3    0  502 -0.27908208173E+02 -0.94320328196E+02  0.40851767226E+03  0.42021346163E+03  0.41800000000E+01 0. -1.
        -11    1    1    2    0    0 -0.42615233198E+02  0.35989365850E+02 -0.26721610300E+02  0.61849308904E+02  0.00000000000E+00 0.  1.
         11    1    1    2    0    0 -0.17600882340E+01  0.11183855195E+03  0.35315513209E+02  0.11729511962E+03  0.00000000000E+00 0. -1.
</event>
<event>
 7    1  0.2530765E-009  0.1072757E+03  0.7561462E-02  0.1265700E+00
         -2   -1    0    0    0  501 -0.00000000000E+00  0.00000000000E+00  0.41208892946E+02  0.41208892946E+02  0.00000000000E+00 0.  1.
          2   -1    0    0  501    0  0.00000000000E+00 -0.00000000000E+00 -0.40739159084E+03  0.40739159084E+03  0.00000000000E+00 0. -1.
         25    2    1    2    0    0 -0.22020210029E+02 -0.74550894966E+01 -0.88302364707E+02  0.15486754480E+03  0.12508469455E+03 0.  0.
          5    1    3    3  502    0  0.41378076026E+02 -0.31468471932E+02 -0.64384940936E+02  0.82857123536E+02  0.41800000000E+01 0. -1.
         -5    1    3    3    0  502 -0.63398286055E+02  0.24013382435E+02 -0.23917423771E+02  0.72010421263E+02  0.41800000000E+01 0. -1.
        -11    1    1    2    0    0  0.46750038700E+02 -0.25517282582E+02 -0.17422041566E+03  0.18217972187E+03  0.00000000000E+00 0. -1.
         11    1    1    2    0    0 -0.24729828671E+02  0.32972372079E+02 -0.10365991753E+03  0.11155321711E+03  0.00000000000E+00 0.  1.
</event>
<event>
 7    1  0.2530765E-009  0.9312291E+02  0.7561462E-02  0.1295461E+00
         -2   -1    0    0    0  501 -0.00000000000E+00  0.00000000000E+00  0.34738769364E+03  0.34738769364E+03  0.00000000000E+00 0.  1.
          2   -1    0    0  501    0  0.00000000000E+00 -0.00000000000E+00 -0.36338099084E+02  0.36338099084E+02  0.00000000000E+00 0. -1.
         25    2    1    2    0    0  0.97274207169E+01 -0.15202890329E+02  0.13911519776E+03  0.18795302488E+03  0.12509017038E+03 0.  0.
          5    1    3    3  502    0 -0.34859679441E+02 -0.37234618139E+02  0.13710323559E+02  0.52981689391E+02  0.41800000000E+01 0. -1.
         -5    1    3    3    0  502  0.44587100158E+02  0.22031727810E+02  0.12540487420E+03  0.13497133549E+03  0.41800000000E+01 0. -1.
        -11    1    1    2    0    0  0.31886890088E+02 -0.13479277526E+02  0.11274829984E+03  0.11794339235E+03  0.00000000000E+00 0.  1.
         11    1    1    2    0    0 -0.41614310805E+02  0.28682167855E+02  0.59186096960E+02  0.77829375495E+02  0.00000000000E+00 0. -1.
</event>
<event>
 7    1  0.2530765E-009  0.1201655E+03  0.7561462E-02  0.1242824E+00
          2   -1    0    0  501    0  0.00000000000E+00  0.00000000000E+00  0.16838297454E+03  0.16838297454E+03  0.00000000000E+00 0.  1.
         -2   -1    0    0    0  501 -0.00000000000E+00 -0.00000000000E+00 -0.11336415593E+03  0.11336415593E+03  0.00000000000E+00 0. -1.
         25    2    1    2    0    0 -0.47043590018E+02 -0.68629770426E+02  0.51466024528E+02  0.15880522981E+03  0.12508878681E+03 0.  0.
          5    1    3    3  502    0 -0.40868328461E+02 -0.94613333586E+02  0.71201124528E+02  0.12533545268E+03  0.41800000000E+01 0.  1.
         -5    1    3    3    0  502 -0.61752615575E+01  0.25983563160E+02 -0.19735099999E+02  0.33469777139E+02  0.41800000000E+01 0.  1.
        -11    1    1    2    0    0 -0.27398754282E+01 -0.13682958453E+02  0.20962652445E+02  0.25182594524E+02  0.00000000000E+00 0.  1.
         11    1    1    2    0    0  0.49783465446E+02  0.82312728880E+02 -0.17409858368E+02  0.97759306134E+02  0.00000000000E+00 0. -1.
</event>
<event>
 7    1  0.2530765E-009  0.8269995E+02  0.7561462E-02  0.1321559E+00
         -2   -1    0    0    0  501 -0.00000000000E+00  0.00000000000E+00  0.11027360073E+02  0.11027360073E+02  0.00000000000E+00 0.  1.
          2   -1    0    0  501    0  0.00000000000E+00 -0.00000000000E+00 -0.11797789376E+04  0.11797789376E+04  0.00000000000E+00 0. -1.
         25    2    1    2    0    0  0.23076480764E+02 -0.26900797189E+02 -0.78764115625E+03  0.79829854625E+03  0.12508317661E+03 0.  0.
          5    1    3    3  502    0 -0.20574433014E+02 -0.19815664041E+02 -0.69458219008E+03  0.69518188916E+03  0.41800000000E+01 0.  1.
         -5    1    3    3    0  502  0.43650913778E+02 -0.70851331473E+01 -0.93058966168E+02  0.10311665709E+03  0.41800000000E+01 0.  1.
        -11    1    1    2    0    0 -0.18314922885E+02  0.57910730205E+02 -0.28522120160E+03  0.29161656831E+03  0.00000000000E+00 0.  1.
         11    1    1    2    0    0 -0.47615578788E+01 -0.31009933017E+02 -0.95889219711E+02  0.10089118314E+03  0.00000000000E+00 0. -1.
</event>
<event>
 7    1  0.2530765E-009  0.1372587E+03  0.7561462E-02  0.1217066E+00
          2   -1    0    0  501    0  0.00000000000E+00  0.00000000000E+00  0.47907269742E+03  0.47907269742E+03  0.00000000000E+00 0. -1.
         -2   -1    0    0    0  501 -0.00000000000E+00 -0.00000000000E+00 -0.10605690793E+03  0.10605690793E+03  0.00000000000E+00 0.  1.
         25    2    1    2    0    0  0.55636686795E+02 -0.78471958757E+02  0.41294922348E+03  0.44207224465E+03  0.12509004392E+03 0.  0.
          5    1    3    3  502    0  0.77310288204E+01 -0.10266390727E+03  0.29325590909E+03  0.31083138078E+03  0.41800000000E+01 0.  1.
         -5    1    3    3    0  502  0.47905657975E+02  0.24191948512E+02  0.11969331439E+03  0.13124086387E+03  0.41800000000E+01 0.  1.
        -11    1    1    2    0    0 -0.55775734096E+02  0.20116938579E+02 -0.57010674038E+02  0.82254730478E+02  0.00000000000E+00 0. -1.
         11    1    1    2    0    0  0.13904730071E+00  0.58355020178E+02  0.17077240047E+02  0.60802630221E+02  0.00000000000E+00 0.  1.
</event>
<event>
 7    1  0.2530765E-009  0.1732168E+03  0.7561462E-02  0.1174534E+00
         -2   -1    0    0    0  501 -0.00000000000E+00  0.00000000000E+00  0.49603826826E+02  0.49603826826E+02  0.00000000000E+00 0.  1.
          2   -1    0    0  501    0  0.00000000000E+00 -0.00000000000E+00 -0.87521284018E+03  0.87521284018E+03  0.00000000000E+00 0. -1.
         25    2    1    2    0    0  0.15802362442E+03 -0.33489845156E+02 -0.59337124229E+03  0.62755844473E+03  0.12508850778E+03 0.  0.
          5    1    3    3  502    0  0.43558458295E+02 -0.88549332062E+01 -0.34184810185E+02  0.56230087840E+02  0.41800000000E+01 0. -1.
         -5    1    3    3    0  502  0.11446516612E+03 -0.24634911950E+02 -0.55918643210E+03  0.57132835689E+03  0.41800000000E+01 0. -1.
        -11    1    1    2    0    0 -0.40825139033E+02  0.51856650139E+02 -0.69165689415E+02  0.95601761140E+02  0.00000000000E+00 0.  1.
         11    1    1    2    0    0 -0.11719848539E+03 -0.18366804983E+02 -0.16307208165E+03  0.20165646113E+03  0.00000000000E+00 0. -1.
</event>
<event>
 7    1  0.2530765E-009  0.1203923E+03  0.7561462E-02  0.1242451E+00
          2   -1    0    0  501    0  0.00000000000E+00  0.00000000000E+00  0.72718374887E+03  0.72718374887E+03  0.00000000000E+00 0. -1.
         -2   -1    0    0    0  501 -0.00000000000E+00 -0.00000000000E+00 -0.22638781295E+02  0.22638781295E+02  0.00000000000E+00 0.  1.
         25    2    1    2    0    0 -0.38428246100E+02  0.54471008723E+02  0.44566333580E+03  0.46766168400E+03  0.12509125036E+03 0.  0.
          5    1    3    3  502    0 -0.58386671624E+02 -0.21585565246E+02  0.21881371940E+03  0.22753429686E+03  0.41800000000E+01 0.  1.
         -5    1    3    3    0  502  0.19958425524E+02  0.76056573970E+02  0.22684961640E+03  0.24012738714E+03  0.41800000000E+01 0.  1.
        -11    1    1    2    0    0 -0.20570076049E+02 -0.28605284852E+02  0.16220606790E+03  0.16598855025E+03  0.00000000000E+00 0.  1.
         11    1    1    2    0    0  0.58998322149E+02 -0.25865723871E+02  0.96675563872E+02  0.11617229591E+03  0.00000000000E+00 0. -1.
</event>
<event>
 7    1  0.2530765E-009  0.1119284E+03  0.7561462E-02  0.1257040E+00
         -2   -1    0    0    0  501 -0.00000000000E+00  0.00000000000E+00  0.12463673362E+02  0.12463673362E+02  0.00000000000E+00 0.  1.
          2   -1    0    0  501    0  0.00000000000E+00 -0.00000000000E+00 -0.11299253017E+04  0.11299253017E+04  0.00000000000E+00 0. -1.
         25    2    1    2    0    0  0.30917772526E+02  0.27179636240E+02 -0.75304054795E+03  0.76446911295E+03  0.12509323130E+03 0.  0.
          5    1    3    3  502    0  0.27674544266E+02  0.73706479220E+02 -0.35300810590E+03  0.36170529539E+03  0.41800000000E+01 0.  1.
         -5    1    3    3    0  502  0.32432282594E+01 -0.46526842980E+02 -0.40003244205E+03  0.40276381757E+03  0.41800000000E+01 0.  1.
        -11    1    1    2    0    0 -0.23889692832E+02 -0.60022565871E+02 -0.27255866586E+03  0.28011007153E+03  0.00000000000E+00 0. -1.
         11    1    1    2    0    0 -0.70280796935E+01  0.32842929631E+02 -0.91862414561E+02  0.97809790614E+02  0.00000000000E+00 0.  1.
</event>
<event>
 7    1  0.2530765E-009  0.1200981E+03  0.7561462E-02  0.1242935E+00
          2   -1    0    0  501    0  0.00000000000E+00  0.00000000000E+00  0.28340411238E+02  0.28340411238E+02  0.00000000000E+00 0.  1.
         -2   -1    0    0    0  501 -0.00000000000E+00 -0.00000000000E+00 -0.69074335418E+03  0.69074335418E+03  0.00000000000E+00 0. -1.
         25    2    1    2    0    0 -0.81495161460E+02 -0.28327685971E+02 -0.40048213833E+03  0.42834289379E+03  0.12509105648E+03 0.  0.
          5    1    3    3  502    0 -0.58449134999E+02  0.43728802663E+02 -0.23968356139E+03  0.25058769236E+03  0.41800000000E+01 0. -1.
         -5    1    3    3    0  502 -0.23046026461E+02 -0.72056488633E+02 -0.16079857694E+03  0.17775520143E+03  0.41800000000E+01 0. -1.
        -11    1    1    2    0    0  0.66619282538E+02  0.94628351244E+01 -0.25771072424E+03  0.26635031714E+03  0.00000000000E+00 0. -1.
         11    1    1    2    0    0  0.14875878923E+02  0.18864850846E+02 -0.42100803757E+01  0.24390554482E+02  0.00000000000E+00 0.  1.
</event>
<event>
 7    1  0.2530765E-009  0.1984275E+03  0.7561462E-02  0.1151073E+00
         -1   -1    0    0    0  501 -0.00000000000E+00  0.00000000000E+00  0.25192663904E+02  0.25192663904E+02  0.00000000000E+00 0.  1.
          1   -1    0    0  501    0  0.00000000000E+00 -0.00000000000E+00 -0.22503266075E+04  0.22503266075E+04  0.00000000000E+00 0. -1.
         25    2    1    2    0    0  0.15581606742E+03 -0.10759064079E+03 -0.16058794955E+04  0.16218359993E+04  0.12509461138E+03 0.  0.
          5    1    3    3  502    0  0.15699679527E+03 -0.11265908069E+03 -0.11663826694E+04  0.11822884868E+04  0.41800000000E+01 0. -1.
         -5    1    3    3    0  502 -0.11807278503E+01  0.50684399053E+01 -0.43949682606E+03  0.43954751247E+03  0.41800000000E+01 0. -1.
        -11    1    1    2    0    0 -0.54392536575E+02  0.84051140567E+01 -0.28987105737E+03  0.29504986676E+03  0.00000000000E+00 0.  1.
         11    1    1    2    0    0 -0.10142353085E+03  0.99185526732E+02 -0.32938339081E+03  0.35863340539E+03  0.00000000000E+00 0. -1.
</event>
<event>
 7    1  0.3047323E-009  0.9271945E+02  0.7561462E-02  0.1296397E+00
          2   -1    0    0  501    0  0.00000000000E+00  0.00000000000E+00  0.10406007110E+04  0.10406007110E+04  0.00000000000E+00 0. -1.
         -2   -1    0    0    0  501 -0.00000000000E+00 -0.00000000000E+00 -0.17456580956E+02  0.17456580956E+02  0.00000000000E+00 0.  1.
         25    2    1    2    0    0  0.15035644696E+02 -0.28449125685E+02  0.85143792628E+03  0.86117903259E+03  0.12508940999E+03 0.  0.
          5    1    3    3  502    0 -0.49573083975E+02  0.39038535975E+01  0.49215467627E+03  0.49467810595E+03  0.41800000000E+01 0.  1.
         -5    1    3    3    0  502  0.64608728671E+02 -0.32352979282E+02  0.35928325001E+03  0.36650092664E+03  0.41800000000E+01 0.  1.
        -11    1    1    2    0    0  0.18298866295E+02  0.22986146585E+02  0.90370465880E+01  0.30738894800E+02  0.00000000000E+00 0.  1.
         11    1    1    2    0    0 -0.33334510991E+02  0.54629791004E+01  0.16266915715E+03  0.16613936454E+03  0.00000000000E+00 0. -1.
</event>
<event>
 7    1  0.3336732E-009  0.1212267E+03  0.7561462E-02  0.1241087E+00
         -1   -1    0    0    0  501 -0.00000000000E+00  0.00000000000E+00  0.57137476871E+02  0.57137476871E+02  0.00000000000E+00 0.  1.
          1   -1    0    0  501    0  0.00000000000E+00 -0.00000000000E+00 -0.32014132740E+03  0.32014132740E+03  0.00000000000E+00 0. -1.
         25    2    1    2    0    0 -0.52113754239E+02  0.59732967525E+02 -0.12156061830E+03  0.19159324401E+03  0.12508843447E+03 0.  0.
          5    1    3    3  502    0 -0.76200088072E+02 -0.13616871014E+00 -0.94563551439E+02  0.12151629366E+03  0.41800000000E+01 0. -1.
         -5    1    3    3    0  502  0.24086333833E+02  0.59869136235E+02 -0.26997066858E+02  0.70076950347E+02  0.41800000000E+01 0. -1.
        -11    1    1    2    0    0 -0.14153814537E+02 -0.18974483683E+02  0.65813817817E+00  0.23681103075E+02  0.00000000000E+00 0.  1.
         11    1    1    2    0    0  0.66267568776E+02 -0.40758483842E+02 -0.14210137041E+03  0.16200445719E+03  0.00000000000E+00 0. -1.
</event>
<event>
 7    1  0.3851484E-009  0.1036641E+03  0.7561462E-02  0.1272774E+00
         -1   -1    0    0    0  501 -0.00000000000E+00  0.00000000000E+00  0.16151044706E+02  0.16151044706E+02  0.00000000000E+00 0.  1.
          1   -1    0    0  501    0  0.00000000000E+00 -0.00000000000E+00 -0.98108300213E+03  0.98108300213E+03  0.00000000000E+00 0. -1.
         25    2    1    2    0    0  0.41792607172E+02  0.22902865505E+02 -0.70183221680E+03  0.71448292760E+03  0.12508489133E+03 0.  0.
          5    1    3    3  502    0  0.25631217992E+02 -0.35005137892E+02 -0.54062167150E+03  0.54237586885E+03  0.41800000000E+01 0.  1.
         -5    1    3    3    0  502  0.16161389180E+02  0.57908003398E+02 -0.16121054530E+03  0.17210705876E+03  0.41800000000E+01 0.  1.
        -11    1    1    2    0    0 -0.29657984225E+02  0.34101384006E+02 -0.10895691427E+03  0.11795808402E+03  0.00000000000E+00 0.  1.
         11    1    1    2    0    0 -0.12134622947E+02 -0.57004249512E+02 -0.15414282635E+03  0.16479303521E+03  0.00000000000E+00 0. -1.
</event>
<event>
 7    1  0.2530765E-009  0.1309846E+03  0.7561462E-02  0.1226002E+00
         -1   -1    0    0    0  501 -0.00000000000E+00  0.00000000000E+00  0.29792431944E+02  0.29792431944E+02  0.00000000000E+00 0.  1.
          1   -1    0    0  501    0  0.00000000000E+00 -0.00000000000E+00 -0.64087732873E+03  0.64087732873E+03  0.00000000000E+00 0. -1.
         25    2    1    2    0    0  0.33140684965E+02 -0.72032971978E+02 -0.25832578574E+03  0.29776856027E+03  0.12508736889E+03 0.  0.
          5    1    3    3  502    0 -0.21379516887E+02 -0.82677342461E+02 -0.10995399699E+03  0.13928381296E+03  0.41800000000E+01 0. -1.
         -5    1    3    3    0  502  0.54520201852E+02  0.10644370483E+02 -0.14837178876E+03  0.15848474732E+03  0.41800000000E+01 0. -1.
        -11    1    1    2    0    0  0.20028530283E+02 -0.10479153612E+02 -0.59410124603E+02  0.63565065807E+02  0.00000000000E+00 0.  1.
         11    1    1    2    0    0 -0.53169215249E+02  0.82512125590E+02 -0.29334898644E+03  0.30933613459E+03  0.00000000000E+00 0. -1.
</event>
<event>
 7    1  0.2530765E-009  0.1213256E+03  0.7561462E-02  0.1240926E+00
         -2   -1    0    0    0  501 -0.00000000000E+00  0.00000000000E+00  0.23397653000E+02  0.23397653000E+02  0.00000000000E+00 0.  1.
          2   -1    0    0  501    0  0.00000000000E+00 -0.00000000000E+00 -0.82982273629E+03  0.82982273629E+03  0.00000000000E+00 0. -1.
         25    2    1    2    0    0 -0.56630598207E+02 -0.76351216327E+02 -0.38741223118E+03  0.41805804297E+03  0.12509099703E+03 0.  0.
          5    1    3    3  502    0  0.20803863960E+01  0.15468245883E+02 -0.20421183234E+03  0.20485004150E+03  0.41800000000E+01 0. -1.
         -5    1    3    3    0  502 -0.58710984603E+02 -0.91819462210E+02 -0.18320039884E+03  0.21320800146E+03  0.41800000000E+01 0. -1.
        -11    1    1    2    0    0  0.67950318201E+02  0.38885963720E+02 -0.27538561463E+03  0.28629809756E+03  0.00000000000E+00 0.  1.
         11    1    1    2    0    0 -0.11319719994E+02  0.37465252607E+02 -0.14362723748E+03  0.14886424876E+03  0.00000000000E+00 0. -1.
</event>
<event>
 7    1  0.2530765E-009  0.1192486E+03  0.7561462E-02  0.1244342E+00
          1   -1    0    0  501    0  0.00000000000E+00  0.00000000000E+00  0.13652115978E+03  0.13652115978E+03  0.00000000000E+00 0. -1.
         -1   -1    0    0    0  501 -0.00000000000E+00 -0.00000000000E+00 -0.11518402713E+03  0.11518402713E+03  0.00000000000E+00 0.  1.
         25    2    1    2    0    0 -0.60352081534E+02  0.13449738813E+02  0.58360222911E+01  0.13966258427E+03  0.12509320153E+03 0.  0.
          5    1    3    3  502    0  0.22643102866E+02  0.38459578437E+02 -0.20045084784E+02  0.49103229068E+02  0.41800000000E+01 0.  1.
         -5    1    3    3    0  502 -0.82995184400E+02 -0.25009839624E+02  0.25881107075E+02  0.90559355205E+02  0.41800000000E+01 0.  1.
        -11    1    1    2    0    0  0.84259861304E+01 -0.45231229465E+02 -0.81578488635E+01  0.46726992833E+02  0.00000000000E+00 0.  1.
         11    1    1    2    0    0  0.51926095404E+02  0.31781490652E+02  0.23658959221E+02  0.65315609798E+02  0.00000000000E+00 0. -1.
</event>
<event>
 7    1  0.2530765E-009  0.8957663E+02  0.7561462E-02  0.1303880E+00
          2   -1    0    0  501    0  0.00000000000E+00  0.00000000000E+00  0.55125629762E+03  0.55125629762E+03  0.00000000000E+00 0. -1.
         -2   -1    0    0    0  501 -0.00000000000E+00 -0.00000000000E+00 -0.21461129511E+02  0.21461129511E+02  0.00000000000E+00 0.  1.
         25    2    1    2    0    0  0.38493916451E+01 -0.55623745520E+01  0.33135800102E+03  0.35424802586E+03  0.12509109145E+03 0.  0.
          5    1    3    3  502    0  0.51199053452E+02  0.25797447936E+02  0.23841289968E+03  0.24524484608E+03  0.41800000000E+01 0.  1.
         -5    1    3    3    0  502 -0.47349661807E+02 -0.31359822488E+02  0.92945101341E+02  0.10900317978E+03  0.41800000000E+01 0.  1.
        -11    1    1    2    0    0  0.19727436596E+02  0.26605689090E+02  0.17749332392E+03  0.18055723326E+03  0.00000000000E+00 0. -1.
         11    1    1    2    0    0 -0.23576828241E+02 -0.21043314538E+02  0.20943843175E+02  0.37912168014E+02  0.00000000000E+00 0.  1.
</event>
<event>
 7    1  0.2530765E-009  0.1919029E+03  0.7561462E-02  0.1156756E+00
         -2   -1    0    0    0  501 -0.00000000000E+00  0.00000000000E+00  0.14146768234E+03  0.14146768234E+03  0.00000000000E+00 0. -1.
          2   -1    0    0  501    0  0.00000000000E+00 -0.00000000000E+00 -0.35466076033E+03  0.35466076033E+03  0.00000000000E+00 0.  1.
         25    2    1    2    0    0  0.87825615954E+02  0.15963960850E+03 -0.18827591891E+03  0.29033432641E+03  0.12509219013E+03 0.  0.
          5    1    3    3  502    0  0.44107226412E+02  0.13881812099E+03 -0.68383835670E+02  0.16096502576E+03  0.41800000000E+01 0.  1.
         -5    1    3    3    0  502  0.43718389542E+02  0.20821487504E+02 -0.11989208324E+03  0.12936930065E+03  0.41800000000E+01 0.  1.
        -11    1    1    2    0    0 -0.32210314126E+02 -0.17073709607E+02  0.25707313155E+02  0.44608091704E+02  0.00000000000E+00 0. -1.
         11    1    1    2    0    0 -0.55615301828E+02 -0.14256589889E+03 -0.50624472236E+02  0.16118602456E+03  0.00000000000E+00 0.  1.
</event>
<event>
 7    1  0.2530765E-009  0.1066481E+03  0.7561462E-02  0.1266906E+00
         -2   -1    0    0    0  501 -0.00000000000E+00  0.00000000000E+00  0.30489428985E+02  0.30489428985E+02  0.00000000000E+00 0.  1.
          2   -1    0    0  501    0  0.00000000000E+00 -0.00000000000E+00 -0.59913966910E+03  0.59913966910E+03  0.00000000000E+00 0. -1.
         25    2    1    2    0    0 -0.67804282864E+02  0.41292261368E+02 -0.36153127696E+03  0.39071030546E+03  0.12508879625E+03 0.  0.
          5    1    3    3  502    0  0.28442010569E+01  0.35140614614E+02 -0.17799633833E+02  0.39714627528E+02  0.41800000000E+01 0.  1.
         -5    1    3    3    0  502 -0.70648483921E+02  0.61516467542E+01 -0.34373164313E+03  0.35099567793E+03  0.41800000000E+01 0.  1.
        -11    1    1    2    0    0  0.15692841355E+02 -0.51338980563E+02 -0.15699235112E+03  0.16591731225E+03  0.00000000000E+00 0. -1.
         11    1    1    2    0    0  0.52111441510E+02  0.10046719195E+02 -0.50126612036E+02  0.73001480376E+02  0.00000000000E+00 0.  1.
</event>
<event>
 7    1  0.2530765E-009  0.6833108E+02  0.7561462E-02  0.1365862E+00
         -4   -1    0    0    0  501 -0.00000000000E+00  0.00000000000E+00  0.20323599809E+02  0.20323599809E+02  0.00000000000E+00 0.  1.
          4   -1    0    0  501    0  0.00000000000E+00 -0.00000000000E+00 -0.64434381000E+03  0.64434381000E+03  0.00000000000E+00 0. -1.
         25    2    1    2    0    0 -0.11989430550E+01  0.34474394307E+01 -0.52158636769E+03  0.53638955232E+03  0.12509232821E+03 0.  0.
          5    1    3    3  502    0  0.67751753676E+01 -0.27302939836E+02 -0.22468915375E+02  0.36244697310E+02  0.41800000000E+01 0.  1.
         -5    1    3    3    0  502 -0.79741184226E+01  0.30750379267E+02 -0.49911745232E+03  0.50014485501E+03  0.41800000000E+01 0.  1.
        -11    1    1    2    0    0  0.26424589262E+00  0.36360814159E+02 -0.59416831503E+02  0.69660164356E+02  0.00000000000E+00 0. -1.
         11    1    1    2    0    0  0.93469716240E+00 -0.39808253590E+02 -0.43017010994E+02  0.58617693127E+02  0.00000000000E+00 0.  1.
</event>
<event>
 7    1  0.2530765E-009  0.1431902E+03  0.7561462E-02  0.1209100E+00
          2   -1    0    0  501    0  0.00000000000E+00  0.00000000000E+00  0.36180515345E+02  0.36180515345E+02  0.00000000000E+00 0. -1.
         -2   -1    0    0    0  501 -0.00000000000E+00 -0.00000000000E+00 -0.74084739798E+03  0.74084739798E+03  0.00000000000E+00 0.  1.
         25    2    1    2    0    0  0.45536728977E+02  0.11090868399E+03 -0.31020703216E+03  0.35531488366E+03  0.12508370750E+03 0.  0.
          5    1    3    3  502    0  0.80638960568E+02  0.60496913611E+02 -0.12799138889E+03  0.16297787135E+03  0.41800000000E+01 0. -1.
         -5    1    3    3    0  502 -0.35102231591E+02  0.50411770377E+02 -0.18221564327E+03  0.19233701232E+03  0.41800000000E+01 0. -1.
        -11    1    1    2    0    0 -0.16377312151E+02 -0.79034339190E+02 -0.35201770595E+03  0.36115247255E+03  0.00000000000E+00 0.  1.
         11    1    1    2    0    0 -0.29159416826E+02 -0.31874344799E+02 -0.42442144520E+02  0.60560557110E+02  0.00000000000E+00 0. -1.
</event>
<event>
 7    1  0.2530765E-009  0.2107136E+03  0.7561462E-02  0.1141002E+00
          2   -1    0    0  501    0  0.00000000000E+00  0.00000000000E+00  0.53450515419E+03  0.53450515419E+03  0.00000000000E+00 0.  1.
         -2   -1    0    0    0  501 -0.00000000000E+00 -0.00000000000E+00 -0.19570986027E+03  0.19570986027E+03  0.00000000000E+00 0. -1.
         25    2    1    2    0    0 -0.19501488445E+03 -0.46203328120E+02  0.43321472186E+03  0.49344621104E+03  0.12509442541E+03 0.  0.
          5    1    3    3  502    0 -0.18197027747E+03 -0.31875819290E+02  0.25930994178E+03  0.31841540171E+03  0.41800000000E+01 0. -1.
         -5    1    3    3    0  502 -0.13044606971E+02 -0.14327508830E+02  0.17390478009E+03  0.17503080934E+03  0.41800000000E+01 0. -1.
        -11    1    1    2    0    0  0.15527352538E+03  0.70186385829E+02 -0.79327467625E+02  0.18795968600E+03  0.00000000000E+00 0. -1.
         11    1    1    2    0    0  0.39741359065E+02 -0.23983057709E+02 -0.15091960316E+02  0.48809117423E+02  0.00000000000E+00 0.  1.
</event>
<event>
 7    1  0.2530765E-009  0.5193084E+03  0.7561462E-02  0.1008858E+00
          1   -1    0    0  501    0  0.00000000000E+00  0.00000000000E+00  0.27507629939E+03  0.27507629939E+03  0.00000000000E+00 0. -1.
         -1   -1    0    0    0  501 -0.00000000000E+00 -0.00000000000E+00 -0.18209882520E+04  0.18209882520E+04  0.00000000000E+00 0.  1.
         25    2    1    2    0    0  0.15451388387E+03  0.49178630544E+03 -0.14751715696E+04  0.15676437633E+04  0.12508996054E+03 0.  0.
          5    1    3    3  502    0 -0.10653404754E+01  0.11418180281E+03 -0.44574249644E+03  0.46015482675E+03  0.41800000000E+01 0. -1.
         -5    1    3    3    0  502  0.15557922434E+03  0.37760450264E+03 -0.10294290732E+04  0.11074889365E+04  0.41800000000E+01 0. -1.
        -11    1    1    2    0    0 -0.46323766793E+02 -0.11679048085E+03  0.21273135135E+02  0.12743019291E+03  0.00000000000E+00 0.  1.
         11    1    1    2    0    0 -0.10819011708E+03 -0.37499582459E+03 -0.92013518098E+02  0.40099059516E+03  0.00000000000E+00 0. -1.
</event>
<event>
 7    1  0.2530765E-009  0.1136678E+03  0.7561462E-02  0.1253925E+00
         -1   -1    0    0    0  501 -0.00000000000E+00  0.00000000000E+00  0.34582099112E+02  0.34582099112E+02  0.00000000000E+00 0.  1.
          1   -1    0    0  501    0  0.00000000000E+00 -0.00000000000E+00 -0.63353928230E+03  0.63353928230E+03  0.00000000000E+00 0. -1.
         25    2    1    2    0    0 -0.77466537127E+02  0.43581867926E+02 -0.22070586649E+03  0.26881113777E+03  0.12509158526E+03 0.  0.
          5    1    3    3  502    0 -0.22820558101E+02  0.55999104552E+02 -0.19990089848E+03  0.20888877231E+03  0.41800000000E+01 0.  1.
         -5    1    3    3    0  502 -0.54645979026E+02 -0.12417236626E+02 -0.20804968007E+02  0.59922365465E+02  0.41800000000E+01 0.  1.
        -11    1    1    2    0    0  0.47132496742E+02  0.10710653492E+02 -0.27145995882E+03  0.27572939559E+03  0.00000000000E+00 0.  1.
         11    1    1    2    0    0  0.30334040386E+02 -0.54292521418E+02 -0.10679135788E+03  0.12358084806E+03  0.00000000000E+00 0. -1.
</event>
<event>
 7    1  0.2530765E-009  0.1133214E+03  0.7561462E-02  0.1254540E+00
         -2   -1    0    0    0  501 -0.00000000000E+00  0.00000000000E+00  0.13212930564E+03  0.13212930564E+03  0.00000000000E+00 0.  1.
          2   -1    0    0  501    0  0.00000000000E+00 -0.00000000000E+00 -0.15625879609E+03  0.15625879609E+03  0.00000000000E+00 0. -1.
         25    2    1    2    0    0 -0.87367274913E+01 -0.91018886345E+02  0.69391060217E+01  0.15509958766E+03  0.12508782043E+03 0.  0.
          5    1    3    3  502    0  0.91130762220E+00 -0.85987179830E+02 -0.48250453770E+02  0.98692473197E+02  0.41800000000E+01 0. -1.
         -5    1    3    3    0  502 -0.96480351135E+01 -0.50317065148E+01  0.55189559791E+02  0.56407114462E+02  0.41800000000E+01 0. -1.
        -11    1    1    2    0    0 -0.51352133974E+01  0.10734577918E+03 -0.20527385348E+02  0.10941142661E+03  0.00000000000E+00 0. -1.
         11    1    1    2    0    0  0.13871940889E+02 -0.16326892831E+02 -0.10541211131E+02  0.23877087462E+02  0.00000000000E+00 0.  1.
</event>
<event>
 7    1  0.2530765E-009  0.1226959E+03  0.7561462E-02  0.1238715E+00
         -1   -1    0    0    0  501 -0.00000000000E+00  0.00000000000E+00  0.55163377744E+03  0.55163377744E+03  0.00000000000E+00 0.  1.
          1   -1    0    0  501    0  0.00000000000E+00 -0.00000000000E+00 -0.34133916630E+02  0.34133916630E+02  0.00000000000E+00 0. -1.
         25    2    1    2    0    0  0.15476498318E+02 -0.74964523117E+02  0.20167297907E+03  0.24935688062E+03  0.12509061394E+03 0.  0.
          5    1    3    3  502    0  0.14109066322E+02 -0.10296328212E+03  0.10179005484E+03  0.14553072144E+03  0.41800000000E+01 0. -1.
         -5    1    3    3    0  502  0.13674319960E+01  0.27998759006E+02  0.99882924232E+02  0.10382615918E+03  0.41800000000E+01 0. -1.
        -11    1    1    2    0    0 -0.47632282645E+02  0.25462057144E+02  0.11433461161E+03  0.12644980868E+03  0.00000000000E+00 0. -1.
         11    1    1    2    0    0  0.32155784328E+02  0.49502465973E+02  0.20149227013E+03  0.20996100477E+03  0.00000000000E+00 0.  1.
</event>
<event>
 7    1  0.2530765E-009  0.1577441E+03  0.7561462E-02  0.1191267E+00
         -1   -1    0    0    0  501 -0.00000000000E+00  0.00000000000E+00  0.23712827112E+02  0.23712827112E+02  0.00000000000E+00 0.  1.
          1   -1    0    0  501    0  0.00000000000E+00 -0.00000000000E+00 -0.13999765872E+04  0.13999765872E+04  0.00000000000E+00 0. -1.
         25    2    1    2    0    0  0.11780426418E+03  0.45426885747E+02 -0.10127462179E+04  0.10282219697E+04  0.12507625863E+03 0.  0.
          5    1    3    3  502    0 -0.18393860916E+02  0.24976030082E+02 -0.34445046989E+03  0.34586953437E+03  0.41800000000E+01 0.  1.
         -5    1    3    3    0  502  0.13619812510E+03  0.20450855665E+02 -0.66829574803E+03  0.68235243534E+03  0.41800000000E+01 0.  1.
        -11    1    1    2    0    0 -0.59532080961E+02  0.16088279558E+02 -0.22308932898E+03  0.23145571954E+03  0.00000000000E+00 0. -1.
         11    1    1    2    0    0 -0.58272183223E+02 -0.61515165305E+02 -0.14042821320E+03  0.16401172508E+03  0.00000000000E+00 0.  1.
</event>
<event>
 7    1  0.2530765E-009  0.1205947E+03  0.7561462E-02  0.1242119E+00
          1   -1    0    0  501    0  0.00000000000E+00  0.00000000000E+00  0.76813313719E+03  0.76813313719E+03  0.00000000000E+00 0. -1.
         -1   -1    0    0    0  501 -0.00000000000E+00 -0.00000000000E+00 -0.19174811118E+02  0.19174811118E+02  0.00000000000E+00 0.  1.
         25    2    1    2    0    0  0.55434575227E+02 -0.24547604082E+02  0.38737330043E+03  0.41155877762E+03  0.12508787531E+03 0.  0.
          5    1    3    3  502    0  0.84015875653E+02  0.19472892597E+02  0.24301771608E+03  0.25790103458E+03  0.41800000000E+01 0.  1.
         -5    1    3    3    0  502 -0.28581300427E+02 -0.44020496679E+02  0.14435558435E+03  0.15365774304E+03  0.41800000000E+01 0.  1.
        -11    1    1    2    0    0  0.20330762745E+02  0.16149498797E+02  0.92509465892E+02  0.96084064780E+02  0.00000000000E+00 0.  1.
         11    1    1    2    0    0 -0.75765337972E+02  0.83981052847E+01  0.26907555974E+03  0.27966510591E+03  0.00000000000E+00 0. -1.
</event>
<event>
 7    1  0.2626702E-009  0.1095441E+03  0.7561462E-02  0.1261416E+00
         -1   -1    0    0    0  501 -0.00000000000E+00  0.00000000000E+00  0.14955756899E+02  0.14955756899E+02  0.00000000000E+00 0.  1.
          1   -1    0    0  501    0  0.00000000000E+00 -0.00000000000E+00 -0.11280538364E+04  0.11280538364E+04  0.00000000000E+00 0. -1.
         25    2    1    2    0    0 -0.51387367480E+02  0.41721999170E+02 -0.72368156665E+03  0.73739037721E+03  0.12509265266E+03 0.  0.
          5    1    3    3  502    0 -0.51820637468E+02  0.68057460517E+02 -0.68543135277E+03  0.69076103550E+03  0.41800000000E+01 0. -1.
         -5    1    3    3    0  502  0.43326998771E+00 -0.26335461347E+02 -0.38250213874E+02  0.46629341714E+02  0.41800000000E+01 0. -1.
        -11    1    1    2    0    0 -0.37511277881E+01  0.22111054550E+02 -0.37149328458E+02  0.43394035280E+02  0.00000000000E+00 0.  1.
         11    1    1    2    0    0  0.55138495268E+02 -0.63833053720E+02 -0.35226718435E+03  0.36222518077E+03  0.00000000000E+00 0. -1.
</event>
<event>
 7    1  0.2530765E-009  0.1104393E+03  0.7561462E-02  0.1259759E+00
         -3   -1    0    0    0  501 -0.00000000000E+00  0.00000000000E+00  0.14900698102E+03  0.14900698102E+03  0.00000000000E+00 0.  1.
          3   -1    0    0  501    0  0.00000000000E+00 -0.00000000000E+00 -0.87995717539E+02  0.87995717539E+02  0.00000000000E+00 0. -1.
         25    2    1    2    0    0 -0.24795320826E+02 -0.22606265058E+02  0.20215962063E+02  0.13107901852E+03  0.12508865983E+03 0.  0.
          5    1    3    3  502    0  0.30936119213E+02 -0.52332926469E+02 -0.85757276730E+01  0.61536933381E+02  0.41800000000E+01 0.  1.
         -5    1    3    3    0  502 -0.55731440039E+02  0.29726661411E+02  0.28791689736E+02  0.69542085138E+02  0.41800000000E+01 0.  1.
        -11    1    1    2    0    0  0.36532894612E+02  0.52822000083E+02  0.34493253855E+02  0.72901307553E+02  0.00000000000E+00 0.  1.
         11    1    1    2    0    0 -0.11737573786E+02 -0.30215735024E+02  0.63020475671E+01  0.33022372492E+02  0.00000000000E+00 0. -1.
</event>
<event>
 7    1  0.2530765E-009  0.1268656E+03  0.7561462E-02  0.1232182E+00
         -1   -1    0    0    0  501 -0.00000000000E+00  0.00000000000E+00  0.15266107125E+02  0.15266107125E+02  0.00000000000E+00 0.  1.
          1   -1    0    0  501    0  0.00000000000E+00 -0.00000000000E+00 -0.11606082918E+04  0.11606082918E+04  0.00000000000E+00 0. -1.
         25    2    1    2    0    0 -0.72270836243E+02 -0.10709013967E+02 -0.74052845804E+03  0.75456432563E+03  0.12508863896E+03 0.  0.
          5    1    3    3  502    0 -0.69265941651E+02 -0.62130496885E+02 -0.48483092581E+03  0.49369673722E+03  0.41800000000E+01 0.  1.
         -5    1    3    3    0  502 -0.30048945920E+01  0.51421482918E+02 -0.25569753223E+03  0.26086758841E+03  0.41800000000E+01 0.  1.
        -11    1    1    2    0    0  0.17560753364E+02  0.42253918300E+02 -0.24926531535E+03  0.25343040684E+03  0.00000000000E+00 0. -1.
         11    1    1    2    0    0  0.54710082880E+02 -0.31544904333E+02 -0.15554841127E+03  0.16787966645E+03  0.00000000000E+00 0.  1.
</event>
<event>
 7    1  0.2530765E-009  0.8302012E+02  0.7561462E-02  0.1320693E+00
          2   -1    0    0  501    0  0.00000000000E+00  0.00000000000E+00  0.19923495496E+03  0.19923495496E+03  0.00000000000E+00 0. -1.
         -2   -1    0    0    0  501 -0.00000000000E+00 -0.00000000000E+00 -0.78912207519E+02  0.78912207519E+02  0.00000000000E+00 0.  1.
         25    2    1    2    0    0  0.15596915976E+02 -0.35796719437E+02  0.12089415160E+03  0.17829162324E+03  0.12509131910E+03 0.  0.
          5    1    3    3  502    0 -0.70327215960E+01 -0.63426475926E+02  0.13938469305E+02  0.65453268428E+02  0.41800000000E+01 0. -1.
         -5    1    3    3    0  502  0.22629637572E+02  0.27629756489E+02  0.10695568230E+03  0.11283835481E+03  0.41800000000E+01 0. -1.
        -11    1    1    2    0    0 -0.55931867738E+01  0.49137868285E+02  0.34988099098E+02  0.60580367417E+02  0.00000000000E+00 0. -1.
         11    1    1    2    0    0 -0.10003729202E+02 -0.13341148848E+02 -0.35559503255E+02  0.39275171830E+02  0.00000000000E+00 0.  1.
</event>
<event>
 7    1  0.2530765E-009  0.2065211E+03  0.7561462E-02  0.1144351E+00
         -2   -1    0    0    0  501 -0.00000000000E+00  0.00000000000E+00  0.17093208642E+03  0.17093208642E+03  0.00000000000E+00 0.  1.
          2   -1    0    0  501    0  0.00000000000E+00 -0.00000000000E+00 -0.29935135183E+03  0.29935135183E+03  0.00000000000E+00 0. -1.
         25    2    1    2    0    0  0.76773613086E+02 -0.17626646422E+03 -0.17150961148E+02  0.23001275486E+03  0.12509059859E+03 0.  0.
          5    1    3    3  502    0  0.30815011459E+02 -0.14245533278E+03 -0.60875893487E+02  0.15800770100E+03  0.41800000000E+01 0. -1.
         -5    1    3    3    0  502  0.45958601627E+02 -0.33811131439E+02  0.43724932338E+02  0.72005053855E+02  0.41800000000E+01 0. -1.
        -11    1    1    2    0    0 -0.92338322168E+02  0.16956591950E+03 -0.89851584190E+02  0.21296073342E+03  0.00000000000E+00 0.  1.
         11    1    1    2    0    0  0.15564709081E+02  0.67005447161E+01 -0.21416720071E+02  0.27309949961E+02  0.00000000000E+00 0. -1.
</event>
<event>
 7    1  0.2530765E-009  0.1651913E+03  0.7561462E-02  0.1182957E+00
         -1   -1    0    0    0  501 -0.00000000000E+00  0.00000000000E+00  0.48531957858E+02  0.48531957858E+02  0.00000000000E+00 0.  1.
          1   -1    0    0  501    0  0.00000000000E+00 -0.00000000000E+00 -0.64312430027E+03  0.64312430027E+03  0.00000000000E+00 0. -1.
         25    2    1    2    0    0  0.74831427396E+02 -0.11202555130E+03 -0.38601656009E+03  0.42755880425E+03  0.12509308436E+03 0.  0.
          5    1    3    3  502    0 -0.18004320676E+02  0.15108871893E+02 -0.30548061110E+02  0.38769704802E+02  0.41800000000E+01 0.  1.
         -5    1    3    3    0  502  0.92835748072E+02 -0.12713442319E+03 -0.35546849898E+03  0.38878909945E+03  0.41800000000E+01 0.  1.
        -11    1    1    2    0    0  0.10844468001E+02  0.23263961694E+02 -0.51366246061E+01  0.26176312045E+02  0.00000000000E+00 0.  1.
         11    1    1    2    0    0 -0.85675895397E+02  0.88761589602E+02 -0.20343915772E+03  0.23792114184E+03  0.00000000000E+00 0. -1.
</event>
<event>
 7    1  0.2530765E-009  0.9521546E+02  0.7561462E-02  0.1290692E+00
         -1   -1    0    0    0  501 -0.00000000000E+00  0.00000000000E+00  0.17967652368E+02  0.17967652368E+02  0.00000000000E+00 0.  1.
          1   -1    0    0  501    0  0.00000000000E+00 -0.00000000000E+00 -0.10363537653E+04  0.10363537653E+04  0.00000000000E+00 0. -1.
         25    2    1    2    0    0  0.13741306016E+02  0.69339220765E+00 -0.88500272586E+03  0.89390530029E+03  0.12509019474E+03 0.  0.
          5    1    3    3  502    0 -0.20669678615E+02  0.43936159010E+02 -0.67353239958E+03  0.67529326027E+03  0.41800000000E+01 0.  1.
         -5    1    3    3    0  502  0.34410984631E+02 -0.43242766802E+02 -0.21147032628E+03  0.21861204002E+03  0.41800000000E+01 0.  1.
        -11    1    1    2    0    0  0.35327516665E+02 -0.91242787070E+01 -0.37178281213E+02  0.52091366747E+02  0.00000000000E+00 0.  1.
         11    1    1    2    0    0 -0.49068822680E+02  0.84308864993E+01 -0.96205105872E+02  0.10832475064E+03  0.00000000000E+00 0. -1.
</event>
<event>
 7    1  0.2530765E-009  0.1237633E+03  0.7561462E-02  0.1237015E+00
         -4   -1    0    0    0  501 -0.00000000000E+00  0.00000000000E+00  0.32432327202E+02  0.32432327202E+02  0.00000000000E+00 0.  1.
          4   -1    0    0  501    0  0.00000000000E+00 -0.00000000000E+00 -0.78249541437E+03  0.78249541437E+03  0.00000000000E+00 0. -1.
         25    2    1    2    0    0 -0.26529201019E+02  0.10191934684E+03 -0.52073821938E+03  0.54580892650E+03  0.12509092436E+03 0.  0.
          5    1    3    3  502    0  0.35584897910E+02  0.39333193489E+02 -0.34570152472E+03  0.34977192807E+03  0.41800000000E+01 0.  1.
         -5    1    3    3    0  502 -0.62114098928E+02  0.62586153356E+02 -0.17503669466E+03  0.19603699843E+03  0.41800000000E+01 0.  1.
        -11    1    1    2    0    0  0.11488791706E+02 -0.67670953027E+02 -0.47465662146E+02  0.83452617103E+02  0.00000000000E+00 0.  1.
         11    1    1    2    0    0  0.15040409313E+02 -0.34248393818E+02 -0.18185920564E+03  0.18566619797E+03  0.00000000000E+00 0. -1.
</event>
<event>
 7    1  0.2553929E-009  0.8750568E+02  0.7561462E-02  0.1309007E+00
         -2   -1    0    0    0  501 -0.00000000000E+00  0.00000000000E+00  0.32251525061E+02  0.32251525061E+02  0.00000000000E+00 0.  1.
          2   -1    0    0  501    0  0.00000000000E+00 -0.00000000000E+00 -0.41895533434E+03  0.41895533434E+03  0.00000000000E+00 0. -1.
         25    2    1    2    0    0  0.12971521970E+01 -0.41333756255E+02 -0.24409763516E+03  0.27738449300E+03  0.12509332298E+03 0.  0.
          5    1    3    3  502    0 -0.40757342674E+02 -0.43350543008E+02 -0.47401311185E+02  0.76189154497E+02  0.41800000000E+01 0.  1.
         -5    1    3    3    0  502  0.42054494871E+02  0.20167867529E+01 -0.19669632398E+03  0.20119533850E+03  0.41800000000E+01 0.  1.
        -11    1    1    2    0    0 -0.25922128853E+02  0.11785264506E+01 -0.25697310604E+01  0.26075835684E+02  0.00000000000E+00 0.  1.
         11    1    1    2    0    0  0.24624976656E+02  0.40155229805E+02 -0.14003644305E+03  0.14774653072E+03  0.00000000000E+00 0. -1.
</event>
<event>
 7    1  0.2530765E-009  0.1949265E+03  0.7561462E-02  0.1154091E+00
         -1   -1    0    0    0  501 -0.00000000000E+00  0.00000000000E+00  0.91727427157E+02  0.91727427157E+02  0.00000000000E+00 0.  1.
          1   -1    0    0  501    0  0.00000000000E+00 -0.00000000000E+00 -0.51816845737E+03  0.51816845737E+03  0.00000000000E+00 0. -1.
         25    2    1    2    0    0 -0.90365857734E+02 -0.14938889649E+03 -0.31553321799E+03  0.38169574282E+03  0.12508955908E+03 0.  0.
          5    1    3    3  502    0  0.84792178655E+01 -0.10389673591E+03 -0.13146379553E+03  0.16782917149E+03  0.41800000000E+01 0. -1.
         -5    1    3    3    0  502 -0.98845075600E+02 -0.45492160578E+02 -0.18406942247E+03  0.21386657133E+03  0.41800000000E+01 0. -1.
        -11    1    1    2    0    0  0.65151697994E+02  0.82311769131E+02 -0.11425774517E+02  0.10559601987E+03  0.00000000000E+00 0.  1.
         11    1    1    2    0    0  0.25214159740E+02  0.67077127361E+02 -0.99482037704E+02  0.12260412184E+03  0.00000000000E+00 0. -1.
</event>
<event>
 7    1  0.2530765E-009  0.1465134E+03  0.7561462E-02  0.1204824E+00
         -1   -1    0    0    0  501 -0.00000000000E+00  0.00000000000E+00  0.27314776705E+03  0.27314776705E+03  0.00000000000E+00 0.  1.
          1   -1    0    0  501    0  0.00000000000E+00 -0.00000000000E+00 -0.93835078355E+02  0.93835078355E+02  0.00000000000E+00 0. -1.
         25    2    1    2    0    0 -0.59256362028E+02 -0.10033631291E+03  0.76331505190E+02  0.18722418259E+03  0.12509078196E+03 0.  0.
          5    1    3    3  502    0 -0.52262930093E+01  0.19299425729E+02 -0.16610339523E+02  0.26327889227E+02  0.41800000000E+01 0. -1.
         -5    1    3    3    0  502 -0.54030069019E+02 -0.11963573864E+03  0.92941844713E+02  0.16089629336E+03  0.41800000000E+01 0. -1.
        -11    1    1    2    0    0 -0.27925001944E+01  0.73676108880E+02  0.79083794777E+02  0.10812129149E+03  0.00000000000E+00 0.  1.
         11    1    1    2    0    0  0.62048862222E+02  0.26660204033E+02  0.23897388725E+02  0.71637371323E+02  0.00000000000E+00 0. -1.
</event>
<event>
 7    1  0.2530765E-009  0.1480037E+03  0.7561462E-02  0.1202948E+00
          2   -1    0    0  501    0  0.00000000000E+00  0.00000000000E+00  0.26864772497E+04  0.26864772497E+04  0.00000000000E+00 0. -1.
         -2   -1    0    0    0  501 -0.00000000000E+00 -0.00000000000E+00 -0.29822727597E+02  0.29822727597E+02  0.00000000000E+00 0.  1.
         25    2    1    2    0    0  0.11684242889E+03 -0.13857237429E+02  0.24808898576E+04  0.24868266593E+04  0.12509265153E+03 0.  0.
          5    1    3    3  502    0  0.13886781971E+03 -0.27651977910E+02  0.22468883476E+04  0.22513492893E+04  0.41800000000E+01 0.  1.
         -5    1    3    3    0  502 -0.22025390822E+02  0.13794740481E+02  0.23400150999E+03  0.23547737000E+03  0.41800000000E+01 0.  1.
        -11    1    1    2    0    0 -0.31556149710E+01  0.13990546109E+02 -0.56212405316E+01  0.15404273154E+02  0.00000000000E+00 0.  1.
         11    1    1    2    0    0 -0.11368681391E+03 -0.13330867978E+00  0.18138590501E+03  0.21406904486E+03  0.00000000000E+00 0. -1.
</event>
<event>
 7    1  0.2530765E-009  0.1549806E+03  0.7561462E-02  0.1194483E+00
         -1   -1    0    0    0  501 -0.00000000000E+00  0.00000000000E+00  0.38412711268E+03  0.38412711268E+03  0.00000000000E+00 0.  1.
          1   -1    0    0  501    0  0.00000000000E+00 -0.00000000000E+00 -0.74784501139E+02  0.74784501139E+02  0.00000000000E+00 0. -1.
         25    2    1    2    0    0 -0.56772101215E+02 -0.11528848017E+03  0.14062362272E+03  0.22789897473E+03  0.12509370200E+03 0.  0.
          5    1    3    3  502    0 -0.74383552261E+02 -0.65522631416E+02  0.27439710298E+02  0.10293948793E+03  0.41800000000E+01 0.  1.
         -5    1    3    3    0  502  0.17611451046E+02 -0.49765848753E+02  0.11318391242E+03  0.12495948680E+03  0.41800000000E+01 0.  1.
        -11    1    1    2    0    0  0.78653150651E+02  0.61891036405E+02  0.10583155058E+03  0.14566102977E+03  0.00000000000E+00 0. -1.
         11    1    1    2    0    0 -0.21881049436E+02  0.53397443764E+02  0.62887438242E+02  0.85351609320E+02  0.00000000000E+00 0.  1.
</event>
<event>
 7    1  0.2530765E-009  0.2016254E+03  0.7561462E-02  0.1148375E+00
          2   -1    0    0  501    0  0.00000000000E+00  0.00000000000E+00  0.86622757365E+03  0.86622757365E+03  0.00000000000E+00 0. -1.
         -2   -1    0    0    0  501 -0.00000000000E+00 -0.00000000000E+00 -0.52431498487E+02  0.52431498487E+02  0.00000000000E+00 0.  1.
         25    2    1    2    0    0 -0.16707037134E+03  0.68364862192E+02  0.48727305251E+03  0.53448059507E+03  0.12509282727E+03 0.  0.
          5    1    3    3  502    0 -0.14747626316E+02  0.43981201070E+02  0.22840568795E+03  0.23310613295E+03  0.41800000000E+01 0. -1.
         -5    1    3    3    0  502 -0.15232274503E+03  0.24383661121E+02  0.25886736456E+03  0.30137446212E+03  0.41800000000E+01 0. -1.
        -11    1    1    2    0    0  0.38174413801E+02  0.22812997444E+02  0.75964162427E+02  0.88024273327E+02  0.00000000000E+00 0.  1.
         11    1    1    2    0    0  0.12889595754E+03 -0.91177859636E+02  0.25055886022E+03  0.29615420374E+03  0.00000000000E+00 0. -1.
</event>
<event>
 7    1  0.2530765E-009  0.1170942E+03  0.7561462E-02  0.1247969E+00
         -1   -1    0    0    0  501 -0.00000000000E+00  0.00000000000E+00  0.77046945967E+03  0.77046945967E+03  0.00000000000E+00 0.  1.
          1   -1    0    0  501    0  0.00000000000E+00 -0.00000000000E+00 -0.20184233079E+02  0.20184233079E+02  0.00000000000E+00 0. -1.
         25    2    1    2    0    0 -0.52771670426E+02  0.19152522662E+02  0.47772589469E+03  0.49701213184E+03  0.12508940969E+03 0.  0.
          5    1    3    3  502    0  0.40112073835E+01 -0.47303557759E+02  0.13054205140E+03  0.13896911868E+03  0.41800000000E+01 0. -1.
         -5    1    3    3    0  502 -0.56782877809E+02  0.66456080422E+02  0.34718384329E+03  0.35804301317E+03  0.41800000000E+01 0. -1.
        -11    1    1    2    0    0 -0.20962644342E+02  0.47774752503E+01  0.12621778462E+03  0.12803587732E+03  0.00000000000E+00 0.  1.
         11    1    1    2    0    0  0.73734314768E+02 -0.23929997913E+02  0.14634154728E+03  0.16560568359E+03  0.00000000000E+00 0. -1.
</event>
<event>
 7    1  0.2530765E-009  0.1493637E+03  0.7561462E-02  0.1201257E+00
         -2   -1    0    0    0  501 -0.00000000000E+00  0.00000000000E+00  0.24688670625E+02  0.24688670625E+02  0.00000000000E+00 0.  1.
          2   -1    0    0  501    0  0.00000000000E+00 -0.00000000000E+00 -0.10606706011E+04  0.10606706011E+04  0.00000000000E+00 0. -1.
         25    2    1    2    0    0  0.70338830334E+02  0.77595276866E+02 -0.56674690210E+03  0.58976349851E+03  0.12510137923E+03 0.  0.
          5    1    3    3  502    0  0.90288494791E+02  0.22730029311E+02 -0.23344608506E+03  0.25136271313E+03  0.41800000000E+01 0.  1.
         -5    1    3    3    0  502 -0.19949664457E+02  0.54865247555E+02 -0.33330081705E+03  0.33840078538E+03  0.41800000000E+01 0.  1.
        -11    1    1    2    0    0 -0.76445252114E+02 -0.76942527492E+01 -0.33966760452E+03  0.34824870374E+03  0.00000000000E+00 0. -1.
         11    1    1    2    0    0  0.61064217798E+01 -0.69901024117E+02 -0.12956742386E+03  0.14734706949E+03  0.00000000000E+00 0.  1.
</event>
<event>
 7    1  0.2530765E-009  0.1036067E+03  0.7561462E-02  0.1272889E+00
         -2   -1    0    0    0  501 -0.00000000000E+00  0.00000000000E+00  0.14908434342E+03  0.14908434342E+03  0.00000000000E+00 0.  1.
          2   -1    0    0  501    0  0.00000000000E+00 -0.00000000000E+00 -0.10256209380E+03  0.10256209380E+03  0.00000000000E+00 0. -1.
         25    2    1    2    0    0  0.46749207279E+02 -0.53136672738E+01  0.71125842625E+02  0.15139326772E+03  0.12508921848E+03 0.  0.
          5    1    3    3  502    0 -0.39487535145E+02 -0.22374428334E+02  0.26423018276E+02  0.52683287387E+02  0.41800000000E+01 0. -1.
         -5    1    3    3    0  502  0.86236742424E+02  0.17060761060E+02  0.44702824349E+02  0.98709980329E+02  0.41800000000E+01 0. -1.
        -11    1    1    2    0    0  0.79515363577E+01  0.16024104712E+02 -0.38807899240E+02  0.42732328578E+02  0.00000000000E+00 0. -1.
         11    1    1    2    0    0 -0.54700743636E+02 -0.10710437438E+02  0.14204306238E+02  0.57520840920E+02  0.00000000000E+00 0.  1.
</event>
<event>
 7    1  0.3035092E-009  0.1118697E+03  0.7561462E-02  0.1257146E+00
         -4   -1    0    0    0  501 -0.00000000000E+00  0.00000000000E+00  0.26138829489E+02  0.26138829489E+02  0.00000000000E+00 0.  1.
          4   -1    0    0  501    0  0.00000000000E+00 -0.00000000000E+00 -0.80275684279E+03  0.80275684279E+03  0.00000000000E+00 0. -1.
         25    2    1    2    0    0 -0.62225059700E+01  0.93067342957E+02 -0.48128431597E+03  0.50594622461E+03  0.12508692777E+03 0.  0.
          5    1    3    3  502    0  0.15036697958E+02 -0.77618827089E+01 -0.27272401377E+03  0.27328045886E+03  0.41800000000E+01 0.  1.
         -5    1    3    3    0  502 -0.21259203928E+02  0.10082922567E+03 -0.20856030219E+03  0.23266576575E+03  0.41800000000E+01 0.  1.
        -11    1    1    2    0    0 -0.14401084586E+02 -0.98599714743E+01 -0.22638907746E+01  0.17599303286E+02  0.00000000000E+00 0.  1.
         11    1    1    2    0    0  0.20623590556E+02 -0.83207371483E+02 -0.29306980657E+03  0.30535014439E+03  0.00000000000E+00 0. -1.
</event>
<event>
 7    1  0.2530765E-009  0.1193584E+03  0.7561462E-02  0.1244159E+00
         -1   -1    0    0    0  501 -0.00000000000E+00  0.00000000000E+00  0.47987213409E+02  0.47987213409E+02  0.00000000000E+00 0.  1.
          1   -1    0    0  501    0  0.00000000000E+00 -0.00000000000E+00 -0.54963388315E+03  0.54963388315E+03  0.00000000000E+00 0. -1.
         25    2    1    2    0    0  0.11457121566E+03  0.19304800558E+02 -0.33406005085E+03  0.37515083110E+03  0.12507113863E+03 0.  0.
          5    1    3    3  502    0  0.58754108484E+02  0.28920872292E+02 -0.30378613273E+03  0.31079245319E+03  0.41800000000E+01 0.  1.
         -5    1    3    3    0  502  0.55817107180E+02 -0.96160717345E+01 -0.30273918123E+02  0.64358377916E+02  0.41800000000E+01 0.  1.
        -11    1    1    2    0    0 -0.40258246541E+02 -0.42571456545E+01 -0.22123825982E+01  0.40543117054E+02  0.00000000000E+00 0.  1.
         11    1    1    2    0    0 -0.74312969122E+02 -0.15047654904E+02 -0.16537423629E+03  0.18192714841E+03  0.00000000000E+00 0. -1.
</event>
<event>
 7    1  0.2530765E-009  0.8237964E+02  0.7561462E-02  0.1322431E+00
          1   -1    0    0  501    0  0.00000000000E+00  0.00000000000E+00  0.28102331846E+03  0.28102331846E+03  0.00000000000E+00 0. -1.
         -1   -1    0    0    0  501 -0.00000000000E+00 -0.00000000000E+00 -0.63154685750E+02  0.63154685750E+02  0.00000000000E+00 0.  1.
         25    2    1    2    0    0 -0.33805996171E+02 -0.61764510852E+01  0.20844660875E+03  0.24551675436E+03  0.12508994383E+03 0.  0.
          5    1    3    3  502    0 -0.23874648725E+02  0.33223564875E+02  0.19950902694E+03  0.20370353052E+03  0.41800000000E+01 0.  1.
         -5    1    3    3    0  502 -0.99313474462E+01 -0.39400015960E+02  0.89375818145E+01  0.41813223847E+02  0.41800000000E+01 0.  1.
        -11    1    1    2    0    0  0.57977476315E+02  0.80946379301E+01 -0.18770732245E+02  0.61475615589E+02  0.00000000000E+00 0. -1.
         11    1    1    2    0    0 -0.24171480143E+02 -0.19181868450E+01  0.28192756205E+02  0.37185634263E+02  0.00000000000E+00 0.  1.
</event>
<event>
 7    1  0.2699434E-009  0.9798929E+02  0.7561462E-02  0.1284582E+00
          2   -1    0    0  501    0  0.00000000000E+00  0.00000000000E+00  0.13421099233E+03  0.13421099233E+03  0.00000000000E+00 0.  1.
         -2   -1    0    0    0  501 -0.00000000000E+00 -0.00000000000E+00 -0.11486324476E+03  0.11486324476E+03  0.00000000000E+00 0. -1.
         25    2    1    2    0    0 -0.59126097523E+02  0.65174827583E+01  0.19339348469E+02  0.13984838948E+03  0.12508072854E+03 0.  0.
          5    1    3    3  502    0 -0.48506461806E+02 -0.30080091620E+02 -0.39560585114E+02  0.69571553406E+02  0.41800000000E+01 0. -1.
         -5    1    3    3    0  502 -0.10619635717E+02  0.36597574378E+02  0.58899933583E+02  0.70276836078E+02  0.41800000000E+01 0. -1.
        -11    1    1    2    0    0 -0.27478346177E+01 -0.32997469236E+02 -0.20407450345E+02  0.38895341632E+02  0.00000000000E+00 0. -1.
         11    1    1    2    0    0  0.61873932141E+02  0.26479986478E+02  0.20415849438E+02  0.70330505975E+02  0.00000000000E+00 0.  1.
</event>
<event>
 7    1  0.2530765E-009  0.1065987E+03  0.7561462E-02  0.1267001E+00
          2   -1    0    0  501    0  0.00000000000E+00  0.00000000000E+00  0.12153766994E+03  0.12153766994E+03  0.00000000000E+00 0.  1.
         -2   -1    0    0    0  501 -0.00000000000E+00 -0.00000000000E+00 -0.15065763017E+03  0.15065763017E+03  0.00000000000E+00 0. -1.
         25    2    1    2    0    0 -0.13539674758E+02 -0.58848808101E+02  0.36192417095E+02  0.14355053693E+03  0.12510140123E+03 0.  0.
          5    1    3    3  502    0  0.27150333665E+01  0.24832531328E+02  0.50985692873E+02  0.56930126437E+02  0.41800000000E+01 0. -1.
         -5    1    3    3    0  502 -0.16254708124E+02 -0.83681339429E+02 -0.14793275778E+02  0.86620410488E+02  0.41800000000E+01 0. -1.
        -11    1    1    2    0    0 -0.72569216272E+01  0.75519997116E+02 -0.24173301376E+02  0.79625883828E+02  0.00000000000E+00 0.  1.
         11    1    1    2    0    0  0.20796596385E+02 -0.16671189015E+02 -0.41139075948E+02  0.49018879365E+02  0.00000000000E+00 0. -1.
</event>
<event>
 7    1  0.2530765E-009  0.5485687E+02  0.7561462E-02  0.1420777E+00
         -2   -1    0    0    0  501 -0.00000000000E+00  0.00000000000E+00  0.42332240110E+02  0.42332240110E+02  0.00000000000E+00 0.  1.
          2   -1    0    0  501    0  0.00000000000E+00 -0.00000000000E+00 -0.39614965491E+03  0.39614965491E+03  0.00000000000E+00 0. -1.
         25    2    1    2    0    0 -0.34733540010E+02 -0.25193080193E+01 -0.29530298982E+03  0.32259064925E+03  0.12509238776E+03 0.  0.
          5    1    3    3  502    0 -0.35708645151E+02 -0.21321607153E+01 -0.30752720936E+03  0.30962898822E+03  0.41800000000E+01 0.  1.
         -5    1    3    3    0  502  0.97510514031E+00 -0.38714730397E+00  0.12224219548E+02  0.12961661029E+02  0.41800000000E+01 0.  1.
        -11    1    1    2    0    0 -0.14924866494E+02 -0.10260939827E+02  0.16849467670E+02  0.24737483436E+02  0.00000000000E+00 0.  1.
         11    1    1    2    0    0  0.49658406504E+02  0.12780247847E+02 -0.75363892656E+02  0.91153762335E+02  0.00000000000E+00 0. -1.
</event>
<event>
 7    1  0.2530765E-009  0.1050843E+03  0.7561462E-02  0.1269954E+00
         -2   -1    0    0    0  501 -0.00000000000E+00  0.00000000000E+00  0.28585755105E+02  0.28585755105E+02  0.00000000000E+00 0.  1.
          2   -1    0    0  501    0  0.00000000000E+00 -0.00000000000E+00 -0.51475807826E+03  0.51475807826E+03  0.00000000000E+00 0. -1.
         25    2    1    2    0    0  0.46660229869E+02 -0.27174116828E+02 -0.29817059129E+03  0.32782473497E+03  0.12509094959E+03 0.  0.
          5    1    3    3  502    0  0.24608480715E+02 -0.60248165778E+02 -0.27279002492E+03  0.28047689548E+03  0.41800000000E+01 0.  1.
         -5    1    3    3    0  502  0.22051749154E+02  0.33074048950E+02 -0.25380566370E+02  0.47347839485E+02  0.41800000000E+01 0.  1.
        -11    1    1    2    0    0  0.95484179313E+01 -0.25945183542E+02 -0.58015269538E+02  0.64265825550E+02  0.00000000000E+00 0.  1.
         11    1    1    2    0    0 -0.56208647800E+02  0.53119300370E+02 -0.12998646232E+03  0.15125327284E+03  0.00000000000E+00 0. -1.
</event>
<event>
 7    1  0.2530765E-009  0.9901419E+02  0.7561462E-02  0.1282383E+00
         -2   -1    0    0    0  501 -0.00000000000E+00  0.00000000000E+00  0.15156191549E+03  0.15156191549E+03  0.00000000000E+00 0.  1.
          2   -1    0    0  501    0  0.00000000000E+00 -0.00000000000E+00 -0.90564500245E+02  0.90564500245E+02  0.00000000000E+00 0. -1.
         25    2    1    2    0    0  0.52769841099E+01 -0.45814479616E+02  0.37056126694E+02  0.13837486370E+03  0.12509050034E+03 0.  0.
          5    1    3    3  502    0 -0.45623665726E+02 -0.46922133816E+02 -0.12998488775E+02  0.66855356005E+02  0.41800000000E+01 0.  1.
         -5    1    3    3    0  502  0.50900649836E+02  0.11076542006E+01  0.50054615470E+02  0.71519507698E+02  0.41800000000E+01 0.  1.
        -11    1    1    2    0    0  0.20211352937E+02 -0.80647162427E+01  0.36822270396E+02  0.42771696632E+02  0.00000000000E+00 0.  1.
         11    1    1    2    0    0 -0.25488337047E+02  0.53879195858E+02 -0.12880981842E+02  0.60979855403E+02  0.00000000000E+00 0. -1.
</event>
<event>
 7    1  0.2530765E-009  0.1501927E+03  0.7561462E-02  0.1200236E+00
         -1   -1    0    0    0  501 -0.00000000000E+00  0.00000000000E+00  0.36888123859E+02  0.36888123859E+02  0.00000000000E+00 0.  1.
          1   -1    0    0  501    0  0.00000000000E+00 -0.00000000000E+00 -0.10077584254E+04  0.10077584254E+04  0.00000000000E+00 0. -1.
         25    2    1    2    0    0 -0.10325229977E+03  0.43885121057E+02 -0.81771691651E+03  0.83480278877E+03  0.12509116407E+03 0.  0.
          5    1    3    3  502    0 -0.10820839379E+03  0.75010879961E+02 -0.56831330008E+03  0.58338080877E+03  0.41800000000E+01 0. -1.
         -5    1    3    3    0  502  0.49560940169E+01 -0.31125758903E+02 -0.24940361644E+03  0.25142198000E+03  0.41800000000E+01 0. -1.
        -11    1    1    2    0    0  0.93944988314E+02 -0.20135705438E+01 -0.13196736834E+03  0.16200339997E+03  0.00000000000E+00 0.  1.
         11    1    1    2    0    0  0.93073114593E+01 -0.41871550513E+02 -0.21186016644E+02  0.47840360473E+02  0.00000000000E+00 0. -1.
</event>
<event>
 7    1  0.2530765E-009  0.1129579E+03  0.7561462E-02  0.1255188E+00
         -1   -1    0    0    0  501 -0.00000000000E+00  0.00000000000E+00  0.19237403866E+03  0.19237403866E+03  0.00000000000E+00 0.  1.
          1   -1    0    0  501    0  0.00000000000E+00 -0.00000000000E+00 -0.11669268460E+03  0.11669268460E+03  0.00000000000E+00 0. -1.
         25    2    1    2    0    0  0.54017110884E+02 -0.47612299735E+02 -0.34446489786E+02  0.14838640615E+03  0.12508871059E+03 0.  0.
          5    1    3    3  502    0  0.90269145922E+02 -0.87364189462E+01 -0.25692415571E+02  0.94352617024E+02  0.41800000000E+01 0. -1.
         -5    1    3    3    0  502 -0.36252035038E+02 -0.38875880788E+02 -0.87540742143E+01  0.54033789121E+02  0.41800000000E+01 0. -1.
        -11    1    1    2    0    0 -0.26814099893E+02  0.47568726498E+02  0.82404585508E+01  0.55223951786E+02  0.00000000000E+00 0.  1.
         11    1    1    2    0    0 -0.27203010991E+02  0.43573236289E-01  0.10188738530E+03  0.10545636533E+03  0.00000000000E+00 0. -1.
</event>
<event>
 7    1  0.2530765E-009  0.9896459E+02  0.7561462E-02  0.1282488E+00
         -1   -1    0    0    0  501 -0.00000000000E+00  0.00000000000E+00  0.78597456353E+02  0.78597456353E+02  0.00000000000E+00 0.  1.
          1   -1    0    0  501    0  0.00000000000E+00 -0.00000000000E+00 -0.40257928974E+03  0.40257928974E+03  0.00000000000E+00 0. -1.
         25    2    1    2    0    0 -0.39391882892E+02  0.18214016089E+01 -0.35776269729E+03  0.38104523512E+03  0.12508511379E+03 0.  0.
          5    1    3    3  502    0 -0.71891077062E+02 -0.24219261549E+02 -0.30147911622E+03  0.31090517768E+03  0.41800000000E+01 0.  1.
         -5    1    3    3    0  502  0.32499194170E+02  0.26040663158E+02 -0.56283581076E+02  0.70140057444E+02  0.41800000000E+01 0.  1.
        -11    1    1    2    0    0 -0.20024953357E+02 -0.48528375940E+01 -0.13073807868E+02  0.24402320420E+02  0.00000000000E+00 0. -1.
         11    1    1    2    0    0  0.59416836249E+02  0.30314359851E+01  0.46854671777E+02  0.75729190550E+02  0.00000000000E+00 0.  1.
</event>
<event>
 7    1  0.2530765E-009  0.8208684E+02  0.7561462E-02  0.1323231E+00
          2   -1    0    0  501    0  0.00000000000E+00  0.00000000000E+00  0.40107742870E+03  0.40107742870E+03  0.00000000000E+00 0.  1.
         -2   -1    0    0    0  501 -0.00000000000E+00 -0.00000000000E+00 -0.45588376005E+02  0.45588376005E+02  0.00000000000E+00 0. -1.
         25    2    1    2    0    0 -0.78216003079E+02 -0.18737802905E+02  0.16150447064E+03  0.21954453650E+03  0.12508901260E+03 0.  0.
          5    1    3    3  502    0 -0.35245040128E+02 -0.10154990312E+02 -0.13333565387E+02  0.39250389142E+02  0.41800000000E+01 0.  1.
         -5    1    3    3    0  502 -0.42970962952E+02 -0.85828125924E+01  0.17483803603E+03  0.18029414736E+03  0.41800000000E+01 0.  1.
        -11    1    1    2    0    0  0.29697687324E+02 -0.34319651445E+01  0.44519667990E+01  0.30225006626E+02  0.00000000000E+00 0. -1.
         11    1    1    2    0    0  0.48518315755E+02  0.22169768049E+02  0.18953261526E+03  0.19689626159E+03  0.00000000000E+00 0.  1.
</event>
<event>
 7    1  0.2530765E-009  0.7177947E+02  0.7561462E-02  0.1354144E+00
          1   -1    0    0  501    0  0.00000000000E+00  0.00000000000E+00  0.23741891183E+03  0.23741891183E+03  0.00000000000E+00 0. -1.
         -1   -1    0    0    0  501 -0.00000000000E+00 -0.00000000000E+00 -0.69037927023E+02  0.69037927023E+02  0.00000000000E+00 0.  1.
         25    2    1    2    0    0 -0.56787567760E+02  0.32464532863E+02  0.10002437407E+03  0.17300607978E+03  0.12508978569E+03 0.  0.
          5    1    3    3  502    0 -0.41672677772E+02  0.13132788958E+02  0.12814315822E+03  0.13545192364E+03  0.41800000000E+01 0.  1.
         -5    1    3    3    0  502 -0.15114889988E+02  0.19331743905E+02 -0.28118784143E+02  0.37554156141E+02  0.41800000000E+01 0.  1.
        -11    1    1    2    0    0  0.24371999202E+02  0.53650573553E+01  0.78707160018E+02  0.82568730302E+02  0.00000000000E+00 0. -1.
         11    1    1    2    0    0  0.32415568558E+02 -0.37829590218E+02 -0.10350549291E+02  0.50882028769E+02  0.00000000000E+00 0.  1.
</event>
<event>
 7    1  0.2530765E-009  0.1140019E+03  0.7561462E-02  0.1253333E+00
         -1   -1    0    0    0  501 -0.00000000000E+00  0.00000000000E+00  0.40786988866E+02  0.40786988866E+02  0.00000000000E+00 0.  1.
          1   -1    0    0  501    0  0.00000000000E+00 -0.00000000000E+00 -0.36364946166E+03  0.36364946166E+03  0.00000000000E+00 0. -1.
         25    2    1    2    0    0  0.25802246241E+02  0.33302076926E+02 -0.13408277445E+03  0.18815059658E+03  0.12509065653E+03 0.  0.
          5    1    3    3  502    0 -0.37553228915E+02 -0.18972892571E+02 -0.18159260247E+02  0.46015723261E+02  0.41800000000E+01 0.  1.
         -5    1    3    3    0  502  0.63355475157E+02  0.52274969498E+02 -0.11592351420E+03  0.14213487332E+03  0.41800000000E+01 0.  1.
        -11    1    1    2    0    0  0.34601473578E+02 -0.24592168768E+02 -0.57095139272E+02  0.71146972297E+02  0.00000000000E+00 0.  1.
         11    1    1    2    0    0 -0.60403719820E+02 -0.87099081581E+01 -0.13168455908E+03  0.14513888166E+03  0.00000000000E+00 0. -1.
</event>
<event>
 7    1  0.2530765E-009  0.7026946E+02  0.7561462E-02  0.1359179E+00
         -1   -1    0    0    0  501 -0.00000000000E+00  0.00000000000E+00  0.38997451819E+02  0.38997451819E+02  0.00000000000E+00 0.  1.
          1   -1    0    0  501    0  0.00000000000E+00 -0.00000000000E+00 -0.34397736862E+03  0.34397736862E+03  0.00000000000E+00 0. -1.
         25    2    1    2    0    0 -0.70675022564E+01  0.22856122383E+02 -0.23090717137E+03  0.26369991758E+03  0.12508865985E+03 0.  0.
          5    1    3    3  502    0 -0.15671420763E+02  0.33236151634E+02 -0.49616118021E+01  0.37313874039E+02  0.41800000000E+01 0. -1.
         -5    1    3    3    0  502  0.86039185064E+01 -0.10380029251E+02 -0.22594555957E+03  0.22638604354E+03  0.41800000000E+01 0. -1.
        -11    1    1    2    0    0 -0.22104130013E+02 -0.46763414749E+02 -0.59503695496E+02  0.78842243121E+02  0.00000000000E+00 0. -1.
         11    1    1    2    0    0  0.29171632270E+02  0.23907292367E+02 -0.14569049935E+02  0.40432659739E+02  0.00000000000E+00 0.  1.
</event>
<event>
 7    1  0.2530765E-009  0.1052466E+03  0.7561462E-02  0.1269635E+00
          1   -1    0    0  501    0  0.00000000000E+00  0.00000000000E+00  0.28993159354E+03  0.28993159354E+03  0.00000000000E+00 0. -1.
         -1   -1    0    0    0  501 -0.00000000000E+00 -0.00000000000E+00 -0.41862308091E+02  0.41862308091E+02  0.00000000000E+00 0.  1.
         25    2    1    2    0    0  0.16836044700E+02 -0.10884315543E+02  0.16376442719E+03  0.20705160219E+03  0.12509859164E+03 0.  0.
          5    1    3    3  502    0  0.70849603247E+00  0.56802137704E+02  0.75810229760E+02  0.94824301477E+02  0.41800000000E+01 0. -1.
         -5    1    3    3    0  502  0.16127548667E+02 -0.67686453246E+02  0.87954197433E+02  0.11222730071E+03  0.41800000000E+01 0. -1.
        -11    1    1    2    0    0  0.32911878443E+02  0.48151513832E-01  0.95019804265E+01  0.34256119063E+02  0.00000000000E+00 0.  1.
         11    1    1    2    0    0 -0.49747923143E+02  0.10836164029E+02  0.74802877825E+02  0.90486180375E+02  0.00000000000E+00 0. -1.
</event>
<event>
 7    1  0.2835828E-009  0.2457254E+03  0.7561462E-02  0.1116036E+00
         -2   -1    0    0    0  501 -0.00000000000E+00  0.00000000000E+00  0.85906713183E+02  0.85906713183E+02  0.00000000000E+00 0. -1.
          2   -1    0    0  501    0  0.00000000000E+00 -0.00000000000E+00 -0.86819858007E+03  0.86819858007E+03  0.00000000000E+00 0.  1.
         25    2    1    2    0    0 -0.22861854647E+03  0.19085187805E+02 -0.57595105566E+03  0.63245447668E+03  0.12509341459E+03 0.  0.
          5    1    3    3  502    0 -0.13417395679E+03 -0.31156212244E+02 -0.21011190090E+03  0.25127244883E+03  0.41800000000E+01 0.  1.
         -5    1    3    3    0  502 -0.94444589678E+02  0.50241400048E+02 -0.36583915476E+03  0.38118202785E+03  0.41800000000E+01 0.  1.
        -11    1    1    2    0    0  0.15560341079E+03 -0.55228919740E+02 -0.13269326542E+03  0.21182577207E+03  0.00000000000E+00 0. -1.
         11    1    1    2    0    0  0.73015135682E+02  0.36143731935E+02 -0.73647545809E+02  0.10982504451E+03  0.00000000000E+00 0.  1.
</event>
<event>
 7    1  0.2530765E-009  0.1243187E+03  0.7561462E-02  0.1236138E+00
          1   -1    0    0  501    0  0.00000000000E+00  0.00000000000E+00  0.14353244013E+04  0.14353244013E+04  0.00000000000E+00 0. -1.
         -1   -1    0    0    0  501 -0.00000000000E+00 -0.00000000000E+00 -0.11415915678E+02  0.11415915678E+02  0.00000000000E+00 0.  1.
         25    2    1    2    0    0 -0.15239587455E+02 -0.58628359704E+02  0.96076477243E+03  0.97076595592E+03  0.12509222058E+03 0.  0.
          5    1    3    3  502    0  0.53354295775E+02 -0.42482433147E+02  0.48751232508E+03  0.49227754114E+03  0.41800000000E+01 0. -1.
         -5    1    3    3    0  502 -0.68593883230E+02 -0.16145926557E+02  0.47325244735E+03  0.47848841479E+03  0.41800000000E+01 0. -1.
        -11    1    1    2    0    0 -0.73489082245E+01  0.78974014883E+02  0.32799523718E+03  0.33744892516E+03  0.00000000000E+00 0. -1.
         11    1    1    2    0    0  0.22588495680E+02 -0.20345655179E+02  0.13514847603E+03  0.13852543591E+03  0.00000000000E+00 0.  1.
</event>
<event>
 7    1  0.2530765E-009  0.1001376E+03  0.7561462E-02  0.1280007E+00
          4   -1    0    0  501    0  0.00000000000E+00  0.00000000000E+00  0.31387887547E+03  0.31387887547E+03  0.00000000000E+00 0.  1.
         -4   -1    0    0    0  501 -0.00000000000E+00 -0.00000000000E+00 -0.47670213399E+02  0.47670213399E+02  0.00000000000E+00 0. -1.
         25    2    1    2    0    0  0.16908305052E+02 -0.53826128311E+02  0.13341832487E+03  0.19138758847E+03  0.12508243978E+03 0.  0.
          5    1    3    3  502    0 -0.26920075497E+02  0.14462075503E+02 -0.46441518584E+01  0.31191066656E+02  0.41800000000E+01 0.  1.
         -5    1    3    3    0  502  0.43828380549E+02 -0.68288203815E+02  0.13806247673E+03  0.16019652182E+03  0.41800000000E+01 0.  1.
        -11    1    1    2    0    0 -0.38026484165E+02  0.55186476524E+02  0.13307418502E+03  0.14899764900E+03  0.00000000000E+00 0.  1.
         11    1    1    2    0    0  0.21118179114E+02 -0.13603482131E+01 -0.28384781716E+00  0.21163851396E+02  0.00000000000E+00 0. -1.
</event>
<event>
 7    1  0.2530765E-009  0.1002052E+03  0.7561462E-02  0.1279865E+00
          1   -1    0    0  501    0  0.00000000000E+00  0.00000000000E+00  0.51570633748E+02  0.51570633748E+02  0.00000000000E+00 0. -1.
         -1   -1    0    0    0  501 -0.00000000000E+00 -0.00000000000E+00 -0.30357384240E+03  0.30357384240E+03  0.00000000000E+00 0.  1.
         25    2    1    2    0    0 -0.17380981684E+02  0.35600637746E+02 -0.72631361487E+02  0.14997454598E+03  0.12509015085E+03 0.  0.
          5    1    3    3  502    0  0.52021648422E+02  0.24683476903E+02 -0.16766110140E+02  0.60117391708E+02  0.41800000000E+01 0. -1.
         -5    1    3    3    0  502 -0.69402630106E+02  0.10917160842E+02 -0.55865251347E+02  0.89857154276E+02  0.41800000000E+01 0. -1.
        -11    1    1    2    0    0 -0.13980160549E+02  0.98329073681E+01  0.41617946450E+00  0.17096905030E+02  0.00000000000E+00 0. -1.
         11    1    1    2    0    0  0.31361142233E+02 -0.45433545114E+02 -0.17978802662E+03  0.18807302513E+03  0.00000000000E+00 0.  1.
</event>
<event>
 7    1  0.2530765E-009  0.1026631E+03  0.7561462E-02  0.1274793E+00
          1   -1    0    0  501    0  0.00000000000E+00  0.00000000000E+00  0.12291770727E+03  0.12291770727E+03  0.00000000000E+00 0. -1.
         -1   -1    0    0    0  501 -0.00000000000E+00 -0.00000000000E+00 -0.10877602573E+03  0.10877602573E+03  0.00000000000E+00 0.  1.
         25    2    1    2    0    0  0.18629724306E+02  0.42160444025E+02  0.58234898763E+01  0.13344005540E+03  0.12509102959E+03 0.  0.
          5    1    3    3  502    0 -0.31491702633E+02 -0.31041788615E+02  0.41390172711E+01  0.44608562397E+02  0.41800000000E+01 0. -1.
         -5    1    3    3    0  502  0.50121426939E+02  0.73202232640E+02  0.16844726052E+01  0.88831493007E+02  0.41800000000E+01 0. -1.
        -11    1    1    2    0    0 -0.26513307735E+02  0.26042562173E+01  0.36187592301E+02  0.44936393647E+02  0.00000000000E+00 0. -1.
         11    1    1    2    0    0  0.78835834289E+01 -0.44764700243E+02 -0.27869400642E+02  0.53317283948E+02  0.00000000000E+00 0.  1.
</event>
<event>
 7    1  0.2530765E-009  0.1090823E+03  0.7561462E-02  0.1262279E+00
          4   -1    0    0  501    0  0.00000000000E+00  0.00000000000E+00  0.31342281475E+02  0.31342281475E+02  0.00000000000E+00 0. -1.
         -4   -1    0    0    0  501 -0.00000000000E+00 -0.00000000000E+00 -0.70324892711E+03  0.70324892711E+03  0.00000000000E+00 0.  1.
         25    2    1    2    0    0  0.25164155251E+02  0.96773271740E+02 -0.42451607877E+03  0.45371747573E+03  0.12508935133E+03 0.  0.
          5    1    3    3  502    0  0.25270227585E+02  0.39377013305E+02 -0.37461020877E+03  0.37754392393E+03  0.41800000000E+01 0. -1.
         -5    1    3    3    0  502 -0.10607233420E+00  0.57396258435E+02 -0.49905869993E+02  0.76173551798E+02  0.41800000000E+01 0. -1.
        -11    1    1    2    0    0  0.11435448676E+02 -0.62374957678E+02 -0.20677195523E+03  0.21627770644E+03  0.00000000000E+00 0.  1.
         11    1    1    2    0    0 -0.36599603927E+02 -0.34398314062E+02 -0.40618611638E+02  0.64596026420E+02  0.00000000000E+00 0. -1.
</event>
<event>
 7    1  0.2530765E-009  0.1716253E+03  0.7561462E-02  0.1176163E+00
         -2   -1    0    0    0  501 -0.00000000000E+00  0.00000000000E+00  0.11701221380E+03  0.11701221380E+03  0.00000000000E+00 0. -1.
          2   -1    0    0  501    0  0.00000000000E+00 -0.00000000000E+00 -0.49491611047E+03  0.49491611047E+03  0.00000000000E+00 0.  1.
         25    2    1    2    0    0  0.25991392876E+02 -0.16396939232E+03 -0.22546457616E+02  0.20908688356E+03  0.12508983973E+03 0.  0.
          5    1    3    3  502    0  0.15979521049E+02 -0.13018449031E+03 -0.70864002740E+02  0.14913928354E+03  0.41800000000E+01 0. -1.
         -5    1    3    3    0  502  0.10011871827E+02 -0.33784902004E+02  0.48317545124E+02  0.59947600017E+02  0.41800000000E+01 0. -1.
        -11    1    1    2    0    0 -0.19489411432E+02  0.90597774786E+01 -0.11376040582E+03  0.11577282348E+03  0.00000000000E+00 0.  1.
         11    1    1    2    0    0 -0.65019814441E+01  0.15490961484E+03 -0.24159703323E+03  0.28706861723E+03  0.00000000000E+00 0. -1.
</event>
<event>
 7    1  0.2530765E-009  0.1420877E+03  0.7561462E-02  0.1210547E+00
          3   -1    0    0  501    0  0.00000000000E+00  0.00000000000E+00  0.47068226153E+03  0.47068226153E+03  0.00000000000E+00 0. -1.
         -3   -1    0    0    0  501 -0.00000000000E+00 -0.00000000000E+00 -0.52119644455E+02  0.52119644455E+02  0.00000000000E+00 0.  1.
         25    2    1    2    0    0 -0.86575584961E+02  0.53815692998E+02  0.14231596419E+03  0.21514597661E+03  0.12506996787E+03 0.  0.
          5    1    3    3  502    0 -0.74121996985E+02 -0.27347025088E+02  0.68317930537E+02  0.10453105879E+03  0.41800000000E+01 0.  1.
         -5    1    3    3    0  502 -0.12453587976E+02  0.81162718087E+02  0.73998033652E+02  0.11061491782E+03  0.41800000000E+01 0.  1.
        -11    1    1    2    0    0  0.30522025070E+02 -0.59122144030E+02  0.83015719650E+02  0.10638905789E+03  0.00000000000E+00 0.  1.
         11    1    1    2    0    0  0.56053559891E+02  0.53064510317E+01  0.19323093323E+03  0.20126687149E+03  0.00000000000E+00 0. -1.
</event>
<event>
 7    1  0.2530765E-009  0.2324951E+03  0.7561462E-02  0.1124896E+00
         -1   -1    0    0    0  501 -0.00000000000E+00  0.00000000000E+00  0.76231510179E+03  0.76231510179E+03  0.00000000000E+00 0.  1.
          1   -1    0    0  501    0  0.00000000000E+00 -0.00000000000E+00 -0.10047209260E+03  0.10047209260E+03  0.00000000000E+00 0. -1.
         25    2    1    2    0    0  0.20495771386E+03  0.66644816434E+02  0.54921928008E+03  0.60310748196E+03  0.12509045193E+03 0.  0.
          5    1    3    3  502    0  0.20305424131E+03  0.91105954582E+02  0.46953342461E+03  0.51962527758E+03  0.41800000000E+01 0. -1.
         -5    1    3    3    0  502  0.19034725517E+01 -0.24461138149E+02  0.79685855470E+02  0.83482204387E+02  0.41800000000E+01 0. -1.
        -11    1    1    2    0    0 -0.78642314971E+02 -0.40714190805E+02  0.94422157996E+02  0.12945193300E+03  0.00000000000E+00 0. -1.
         11    1    1    2    0    0 -0.12631539889E+03 -0.25930625629E+02  0.18201571124E+02  0.13022777942E+03  0.00000000000E+00 0.  1.
</event>
<event>
 7    1  0.2530765E-009  0.1232482E+03  0.7561462E-02  0.1237833E+00
         -2   -1    0    0    0  501 -0.00000000000E+00  0.00000000000E+00  0.34185473536E+02  0.34185473536E+02  0.00000000000E+00 0.  1.
          2   -1    0    0  501    0  0.00000000000E+00 -0.00000000000E+00 -0.67159796074E+03  0.67159796074E+03  0.00000000000E+00 0. -1.
         25    2    1    2    0    0  0.10401817463E+03  0.15770585389E+02 -0.33320071262E+03  0.37112715490E+03  0.12507660930E+03 0.  0.
          5    1    3    3  502    0  0.60966024897E+02 -0.23373919624E+01 -0.31491202103E+03  0.32079490797E+03  0.41800000000E+01 0.  1.
         -5    1    3    3    0  502  0.43052149731E+02  0.18107977352E+02 -0.18288691593E+02  0.50332246924E+02  0.41800000000E+01 0.  1.
        -11    1    1    2    0    0 -0.94108555019E+02 -0.47352560461E+02 -0.24755120019E+03  0.26903583744E+03  0.00000000000E+00 0. -1.
         11    1    1    2    0    0 -0.99096196085E+01  0.31581975072E+02 -0.56660574384E+02  0.65620441935E+02  0.00000000000E+00 0.  1.
</event>
<event>
 7    1  0.2530765E-009  0.1225620E+03  0.7561462E-02  0.1238929E+00
          2   -1    0    0  501    0  0.00000000000E+00  0.00000000000E+00  0.21970847925E+03  0.21970847925E+03  0.00000000000E+00 0. -1.
         -2   -1    0    0    0  501 -0.00000000000E+00 -0.00000000000E+00 -0.13006326279E+03  0.13006326279E+03  0.00000000000E+00 0.  1.
         25    2    1    2    0    0  0.68753214225E+02  0.97561072890E+02  0.99077988984E+02  0.19926877654E+03  0.12508569060E+03 0.  0.
          5    1    3    3  502    0  0.26808681918E+02  0.56163950111E+02 -0.20694116324E+02  0.65717680792E+02  0.41800000000E+01 0.  1.
         -5    1    3    3    0  502  0.41944532307E+02  0.41397122779E+02  0.11977210531E+03  0.13355109575E+03  0.41800000000E+01 0.  1.
        -11    1    1    2    0    0  0.18485052955E+01 -0.14668554301E+02  0.31007146283E+02  0.34351514926E+02  0.00000000000E+00 0. -1.
         11    1    1    2    0    0 -0.70601719520E+02 -0.82892518588E+02 -0.40439918809E+02  0.11615145057E+03  0.00000000000E+00 0.  1.
</event>
<event>
 7    1  0.2530765E-009  0.1235831E+03  0.7561462E-02  0.1237300E+00
         -3   -1    0    0    0  501 -0.00000000000E+00  0.00000000000E+00  0.20690455619E+03  0.20690455619E+03  0.00000000000E+00 0.  1.
          3   -1    0    0  501    0  0.00000000000E+00 -0.00000000000E+00 -0.78044468710E+02  0.78044468710E+02  0.00000000000E+00 0. -1.
         25    2    1    2    0    0 -0.39038862838E+02 -0.44231648397E+02  0.41900217492E+02  0.14451278008E+03  0.12509134203E+03 0.  0.
          5    1    3    3  502    0 -0.31133909990E+02  0.40850519645E+02  0.25133153390E+02  0.57334397231E+02  0.41800000000E+01 0. -1.
         -5    1    3    3    0  502 -0.79049528478E+01 -0.85082168042E+02  0.16767064101E+02  0.87178382853E+02  0.41800000000E+01 0. -1.
        -11    1    1    2    0    0 -0.22210266233E+02  0.43486065540E+02  0.42689412793E+02  0.64859230546E+02  0.00000000000E+00 0.  1.
         11    1    1    2    0    0  0.61249129072E+02  0.74558285649E+00  0.44270457194E+02  0.75577014270E+02  0.00000000000E+00 0. -1.
</event>
<event>
 7    1  0.2530765E-009  0.7487434E+02  0.7561462E-02  0.1344261E+00
          1   -1    0    0  501    0  0.00000000000E+00  0.00000000000E+00  0.29642740842E+02  0.29642740842E+02  0.00000000000E+00 0. -1.
         -1   -1    0    0    0  501 -0.00000000000E+00 -0.00000000000E+00 -0.48338654363E+03  0.48338654363E+03  0.00000000000E+00 0.  1.
         25    2    1    2    0    0 -0.27036629568E+02 -0.25652327781E+02 -0.17849951280E+03  0.22113064836E+03  0.12509063241E+03 0.  0.
          5    1    3    3  502    0 -0.20982027420E+02 -0.35968181489E+02 -0.19549918042E+03  0.19992838093E+03  0.41800000000E+01 0. -1.
         -5    1    3    3    0  502 -0.60546021478E+01  0.10315853708E+02  0.16999667625E+02  0.21202267432E+02  0.41800000000E+01 0. -1.
        -11    1    1    2    0    0 -0.20199015120E+02  0.40880338906E+02 -0.16116363362E+03  0.16749005678E+03  0.00000000000E+00 0.  1.
         11    1    1    2    0    0  0.47235644688E+02 -0.15228011125E+02 -0.11408065637E+03  0.12440857933E+03  0.00000000000E+00 0. -1.
</event>
<event>
 7    1  0.2530765E-009  0.9295988E+02  0.7561462E-02  0.1295838E+00
         -2   -1    0    0    0  501 -0.00000000000E+00  0.00000000000E+00  0.10861190906E+02  0.10861190906E+02  0.00000000000E+00 0.  1.
          2   -1    0    0  501    0  0.00000000000E+00 -0.00000000000E+00 -0.12794134419E+04  0.12794134419E+04  0.00000000000E+00 0. -1.
         25    2    1    2    0    0 -0.12116103433E+02 -0.20031470237E+02 -0.94550749767E+03  0.95403338224E+03  0.12508879451E+03 0.  0.
          5    1    3    3  502    0 -0.70666121842E+01 -0.55748795467E+02 -0.20406947607E+03  0.21170660988E+03  0.41800000000E+01 0. -1.
         -5    1    3    3    0  502 -0.50494912491E+01  0.35717325230E+02 -0.74143802160E+03  0.74232677236E+03  0.41800000000E+01 0. -1.
        -11    1    1    2    0    0 -0.27885730716E+02 -0.21785599733E+02 -0.11926537971E+03  0.12440440961E+03  0.00000000000E+00 0. -1.
         11    1    1    2    0    0  0.40001834150E+02  0.41817069970E+02 -0.20377937360E+03  0.21183684095E+03  0.00000000000E+00 0.  1.
</event>
<event>
 7    1  0.2530765E-009  0.1024349E+03  0.7561462E-02  0.1275257E+00
         -2   -1    0    0    0  501 -0.00000000000E+00  0.00000000000E+00  0.25459326161E+02  0.25459326161E+02  0.00000000000E+00 0.  1.
          2   -1    0    0  501    0  0.00000000000E+00 -0.00000000000E+00 -0.50028506231E+03  0.50028506231E+03  0.00000000000E+00 0. -1.
         25    2    1    2    0    0 -0.10145283162E+02  0.12516761392E+02 -0.20908390837E+03  0.24417779276E+03  0.12508843932E+03 0.  0.
          5    1    3    3  502    0 -0.34980995459E+02 -0.47140434003E+02 -0.75506607477E+02  0.95731973415E+02  0.41800000000E+01 0. -1.
         -5    1    3    3    0  502  0.24835712297E+02  0.59657195395E+02 -0.13357730089E+03  0.14844581934E+03  0.41800000000E+01 0. -1.
        -11    1    1    2    0    0 -0.34966789090E+02 -0.84201954802E+01 -0.52970804013E+02  0.64027198197E+02  0.00000000000E+00 0.  1.
         11    1    1    2    0    0  0.45112072252E+02 -0.40965659119E+01 -0.21277102377E+03  0.21753939752E+03  0.00000000000E+00 0. -1.
</event>
<event>
 7    1  0.2530765E-009  0.1090258E+03  0.7561462E-02  0.1262385E+00
         -2   -1    0    0    0  501 -0.00000000000E+00  0.00000000000E+00  0.45599655657E+03  0.45599655657E+03  0.00000000000E+00 0.  1.
          2   -1    0    0  501    0  0.00000000000E+00 -0.00000000000E+00 -0.26787488457E+02  0.26787488457E+02  0.00000000000E+00 0. -1.
         25    2    1    2    0    0  0.72255959869E+01  0.16987252447E+01  0.25631145896E+03  0.28530507149E+03  0.12509326489E+03 0.  0.
          5    1    3    3  502    0  0.51307741143E+02 -0.37361016415E+02  0.16194431846E+03  0.17398782869E+03  0.41800000000E+01 0.  1.
         -5    1    3    3    0  502 -0.44082145156E+02  0.39059741660E+02  0.94367140498E+02  0.11131724281E+03  0.41800000000E+01 0.  1.
        -11    1    1    2    0    0 -0.44913792482E+02 -0.24689184496E+02  0.91006146869E+02  0.10444579146E+03  0.00000000000E+00 0. -1.
         11    1    1    2    0    0  0.37688196495E+02  0.22990459251E+02  0.81891462280E+02  0.93033182069E+02  0.00000000000E+00 0.  1.
</event>
<event>
 7    1  0.2530765E-009  0.1610625E+03  0.7561462E-02  0.1187502E+00
          2   -1    0    0  501    0  0.00000000000E+00  0.00000000000E+00  0.57682292252E+03  0.57682292252E+03  0.00000000000E+00 0. -1.
         -2   -1    0    0    0  501 -0.00000000000E+00 -0.00000000000E+00 -0.62437721595E+02  0.62437721595E+02  0.00000000000E+00 0.  1.
         25    2    1    2    0    0 -0.11701071170E+02 -0.14097103990E+03  0.16633498137E+03  0.25164545415E+03  0.12509340275E+03 0.  0.
          5    1    3    3  502    0  0.47359308768E+02 -0.91739263911E+02  0.57269987928E+02  0.11813687226E+03  0.41800000000E+01 0.  1.
         -5    1    3    3    0  502 -0.59060379939E+02 -0.49231775990E+02  0.10906499344E+03  0.13350858189E+03  0.41800000000E+01 0.  1.
        -11    1    1    2    0    0  0.13381631648E+02  0.11628411775E+03  0.34291746780E+03  0.36234438568E+03  0.00000000000E+00 0. -1.
         11    1    1    2    0    0 -0.16805604778E+01  0.24686922151E+02  0.51327517604E+01  0.25270804289E+02  0.00000000000E+00 0.  1.
</event>
<event>
 7    1  0.2530765E-009  0.3432494E+03  0.7561462E-02  0.1065420E+00
         -2   -1    0    0    0  501 -0.00000000000E+00  0.00000000000E+00  0.60682412533E+02  0.60682412533E+02  0.00000000000E+00 0.  1.
          2   -1    0    0  501    0  0.00000000000E+00 -0.00000000000E+00 -0.21714540406E+04  0.21714540406E+04  0.00000000000E+00 0. -1.
         25    2    1    2    0    0  0.33393121191E+03 -0.75514920733E+02 -0.12265413879E+04  0.12795559288E+04  0.12508813384E+03 0.  0.
          5    1    3    3  502    0  0.28559695162E+03 -0.69507934385E+02 -0.84033890467E+03  0.89027182300E+03  0.41800000000E+01 0. -1.
         -5    1    3    3    0  502  0.48334260295E+02 -0.60069863474E+01 -0.38620248322E+03  0.38928410582E+03  0.41800000000E+01 0. -1.
        -11    1    1    2    0    0 -0.10166299039E+03  0.37132262880E+02 -0.39649686078E+03  0.41100356345E+03  0.00000000000E+00 0.  1.
         11    1    1    2    0    0 -0.23226822152E+03  0.38382657853E+02 -0.48773337937E+03  0.54157696083E+03  0.00000000000E+00 0. -1.
</event>
<event>
 7    1  0.2530765E-009  0.9643480E+02  0.7561462E-02  0.1287977E+00
          1   -1    0    0  501    0  0.00000000000E+00  0.00000000000E+00  0.56804707716E+02  0.56804707716E+02  0.00000000000E+00 0. -1.
         -1   -1    0    0    0  501 -0.00000000000E+00 -0.00000000000E+00 -0.20745057613E+03  0.20745057613E+03  0.00000000000E+00 0.  1.
         25    2    1    2    0    0  0.54009479375E+01 -0.16274443834E+02 -0.87979220678E+02  0.15388971111E+03  0.12509065574E+03 0.  0.
          5    1    3    3  502    0  0.60762090783E+02  0.15370209688E+01 -0.70161692347E+02  0.92922169490E+02  0.41800000000E+01 0.  1.
         -5    1    3    3    0  502 -0.55361142845E+02 -0.17811464803E+02 -0.17817528332E+02  0.60967541622E+02  0.41800000000E+01 0.  1.
        -11    1    1    2    0    0  0.10957453684E+02 -0.26051175762E+02 -0.58287684646E+02  0.64777957139E+02  0.00000000000E+00 0.  1.
         11    1    1    2    0    0 -0.16358401621E+02  0.42325619596E+02 -0.43789630887E+01  0.45587615594E+02  0.00000000000E+00 0. -1.
</event>
<event>
 7    1  0.2530765E-009  0.1507877E+03  0.7561462E-02  0.1199508E+00
         -2   -1    0    0    0  501 -0.00000000000E+00  0.00000000000E+00  0.16221281415E+03  0.16221281415E+03  0.00000000000E+00 0.  1.
          2   -1    0    0  501    0  0.00000000000E+00 -0.00000000000E+00 -0.14543107988E+03  0.14543107988E+03  0.00000000000E+00 0. -1.
         25    2    1    2    0    0 -0.94493029788E+02 -0.50812979724E+02 -0.52670087875E+01  0.16488332814E+03  0.12509148224E+03 0.  0.
          5    1    3    3  502    0 -0.12381363013E+03 -0.43727477852E+02  0.81033489960E+01  0.13162463291E+03  0.41800000000E+01 0. -1.
         -5    1    3    3    0  502  0.29320600338E+02 -0.70855018717E+01 -0.13370357784E+02  0.33258695227E+02  0.41800000000E+01 0. -1.
        -11    1    1    2    0    0  0.96275771798E+02  0.76841939100E+01  0.24109929465E+02  0.99545767214E+02  0.00000000000E+00 0.  1.
         11    1    1    2    0    0 -0.17827420098E+01  0.43128785814E+02 -0.20611864119E+01  0.43214798672E+02  0.00000000000E+00 0. -1.
</event>
<event>
 7    1  0.2530765E-009  0.6522897E+02  0.7561462E-02  0.1377112E+00
          1   -1    0    0  501    0  0.00000000000E+00  0.00000000000E+00  0.22215912854E+02  0.22215912854E+02  0.00000000000E+00 0. -1.
         -1   -1    0    0    0  501 -0.00000000000E+00 -0.00000000000E+00 -0.54841755751E+03  0.54841755751E+03  0.00000000000E+00 0.  1.
         25    2    1    2    0    0  0.78777914321E+01  0.22035560184E+02 -0.29397446186E+03  0.32033818583E+03  0.12509174061E+03 0.  0.
          5    1    3    3  502    0  0.15713288334E+02 -0.34461646252E+01 -0.29285894825E+03  0.29333022254E+03  0.41800000000E+01 0. -1.
         -5    1    3    3    0  502 -0.78354969016E+01  0.25481724809E+02 -0.11155136036E+01  0.27007963299E+02  0.41800000000E+01 0. -1.
        -11    1    1    2    0    0 -0.45804396647E+02 -0.85254522678E+01 -0.16927343740E+03  0.17556828500E+03  0.00000000000E+00 0.  1.
         11    1    1    2    0    0  0.37926605214E+02 -0.13510107916E+02 -0.62953745399E+02  0.74726999530E+02  0.00000000000E+00 0. -1.
</event>
<event>
 7    1  0.2530765E-009  0.1753629E+03  0.7561462E-02  0.1172368E+00
         -2   -1    0    0    0  501 -0.00000000000E+00  0.00000000000E+00  0.10932850021E+03  0.10932850021E+03  0.00000000000E+00 0.  1.
          2   -1    0    0  501    0  0.00000000000E+00 -0.00000000000E+00 -0.39418851357E+03  0.39418851357E+03  0.00000000000E+00 0. -1.
         25    2    1    2    0    0 -0.13963897362E+03  0.47308588454E+02 -0.31054660830E+02  0.19583368797E+03  0.12509714581E+03 0.  0.
          5    1    3    3  502    0 -0.14655015480E+03  0.13750201803E+02  0.30851741660E+01  0.14728545964E+03  0.41800000000E+01 0.  1.
         -5    1    3    3    0  502  0.69111811867E+01  0.33558386651E+02 -0.34139834996E+02  0.48548228325E+02  0.41800000000E+01 0.  1.
        -11    1    1    2    0    0  0.71313999587E+02 -0.66999680385E+02 -0.10976148636E+03  0.14704498494E+03  0.00000000000E+00 0.  1.
         11    1    1    2    0    0  0.68324974030E+02  0.19691091931E+02 -0.14404386616E+03  0.16063834087E+03  0.00000000000E+00 0. -1.
</event>
<event>
 7    1  0.2530765E-009  0.1018521E+03  0.7561462E-02  0.1276449E+00
          1   -1    0    0  501    0  0.00000000000E+00  0.00000000000E+00  0.12258706655E+04  0.12258706655E+04  0.00000000000E+00 0. -1.
         -1   -1    0    0    0  501 -0.00000000000E+00 -0.00000000000E+00 -0.17987806307E+02  0.17987806307E+02  0.00000000000E+00 0.  1.
         25    2    1    2    0    0 -0.66173586407E+02  0.45309733978E+02  0.91557686455E+03  0.92755598419E+03  0.12508874198E+03 0.  0.
          5    1    3    3  502    0 -0.30839406485E+02 -0.13609492575E+02  0.57946585940E+02  0.67168195618E+02  0.41800000000E+01 0. -1.
         -5    1    3    3    0  502 -0.35334179922E+02  0.58919226553E+02  0.85763027862E+03  0.86038778857E+03  0.41800000000E+01 0. -1.
        -11    1    1    2    0    0 -0.97251866390E+01 -0.17602006132E+02  0.96130182457E+01  0.22289459276E+02  0.00000000000E+00 0.  1.
         11    1    1    2    0    0  0.75898773046E+02 -0.27707727846E+02  0.28269297644E+03  0.29401302838E+03  0.00000000000E+00 0. -1.
</event>
<event>
 7    1  0.2530765E-009  0.1701156E+03  0.7561462E-02  0.1177727E+00
          2   -1    0    0  501    0  0.00000000000E+00  0.00000000000E+00  0.19447830804E+03  0.19447830804E+03  0.00000000000E+00 0. -1.
         -2   -1    0    0    0  501 -0.00000000000E+00 -0.00000000000E+00 -0.17176201857E+03  0.17176201857E+03  0.00000000000E+00 0.  1.
         25    2    1    2    0    0  0.12029762123E+03  0.84169677798E+02 -0.16669702593E+01  0.19288941779E+03  0.12508995312E+03 0.  0.
          5    1    3    3  502    0  0.38373099949E+02  0.92565860248E+02 -0.31620011126E+02  0.10515812278E+03  0.41800000000E+01 0.  1.
         -5    1    3    3    0  502  0.81924521282E+02 -0.83961824502E+01  0.29953040867E+02  0.87731295010E+02  0.41800000000E+01 0.  1.
        -11    1    1    2    0    0 -0.93034513220E+02 -0.90173779619E+02  0.46583283302E+02  0.13768345385E+03  0.00000000000E+00 0. -1.
         11    1    1    2    0    0 -0.27263108011E+02  0.60041018216E+01 -0.22200023579E+02  0.35667454969E+02  0.00000000000E+00 0.  1.
</event>
<event>
 7    1  0.2530765E-009  0.6970709E+02  0.7561462E-02  0.1361092E+00
          1   -1    0    0  501    0  0.00000000000E+00  0.00000000000E+00  0.34320530565E+02  0.34320530565E+02  0.00000000000E+00 0. -1.
         -1   -1    0    0    0  501 -0.00000000000E+00 -0.00000000000E+00 -0.47309772483E+03  0.47309772483E+03  0.00000000000E+00 0.  1.
         25    2    1    2    0    0  0.29584763924E+02  0.91203307742E+01 -0.36438041677E+03  0.38649558176E+03  0.12508919981E+03 0.  0.
          5    1    3    3  502    0  0.12773187011E+02 -0.26819599625E+02 -0.12727987360E+02  0.32587103165E+02  0.41800000000E+01 0. -1.
         -5    1    3    3    0  502  0.16811576913E+02  0.35939930399E+02 -0.35165242941E+03  0.35390847860E+03  0.41800000000E+01 0. -1.
        -11    1    1    2    0    0 -0.48440065482E+02  0.29964072315E+00 -0.53559931806E+01  0.48736191802E+02  0.00000000000E+00 0. -1.
         11    1    1    2    0    0  0.18855301558E+02 -0.94199714974E+01 -0.69040784321E+02  0.72186481833E+02  0.00000000000E+00 0.  1.
</event>
<event>
 7    1  0.2588670E-009  0.1544621E+03  0.7561462E-02  0.1195095E+00
          4   -1    0    0  501    0  0.00000000000E+00  0.00000000000E+00  0.53466133029E+03  0.53466133029E+03  0.00000000000E+00 0. -1.
         -4   -1    0    0    0  501 -0.00000000000E+00 -0.00000000000E+00 -0.56750011725E+02  0.56750011725E+02  0.00000000000E+00 0.  1.
         25    2    1    2    0    0  0.11326671912E+03 -0.59000616248E+02  0.33169042272E+03  0.37679955921E+03  0.12509575899E+03 0.  0.
          5    1    3    3  502    0  0.42376010525E+02  0.37732963911E+02  0.82446429117E+02  0.10017179697E+03  0.41800000000E+01 0.  1.
         -5    1    3    3    0  502  0.70890708597E+02 -0.96733580159E+02  0.24924399360E+03  0.27662776224E+03  0.41800000000E+01 0.  1.
        -11    1    1    2    0    0 -0.48007296046E+02  0.68553555306E+01  0.27226993342E+01  0.48570664652E+02  0.00000000000E+00 0.  1.
         11    1    1    2    0    0 -0.65259423076E+02  0.52145260718E+02  0.14349819651E+03  0.16604111815E+03  0.00000000000E+00 0. -1.
</event>
<event>
 7    1  0.2530765E-009  0.1247474E+03  0.7561462E-02  0.1235465E+00
         -2   -1    0    0    0  501 -0.00000000000E+00  0.00000000000E+00  0.15509748668E+03  0.15509748668E+03  0.00000000000E+00 0.  1.
          2   -1    0    0  501    0  0.00000000000E+00 -0.00000000000E+00 -0.10708043357E+03  0.10708043357E+03  0.00000000000E+00 0. -1.
         25    2    1    2    0    0  0.66401776145E+02  0.80221405662E+01  0.43269854440E+02  0.14829356731E+03  0.12508057878E+03 0.  0.
          5    1    3    3  502    0  0.68494881597E+02  0.58551738914E+02  0.19660021212E+02  0.92324665009E+02  0.41800000000E+01 0.  1.
         -5    1    3    3    0  502 -0.20931054521E+01 -0.50529598348E+02  0.23609833228E+02  0.55968902300E+02  0.41800000000E+01 0.  1.
        -11    1    1    2    0    0 -0.29593164896E+02 -0.46612020185E+02  0.19494597388E+02  0.58553182336E+02  0.00000000000E+00 0.  1.
         11    1    1    2    0    0 -0.36808611249E+02  0.38589879619E+02 -0.14747398715E+02  0.55331170600E+02  0.00000000000E+00 0. -1.
</event>
<event>
 7    1  0.2530765E-009  0.2334809E+03  0.7561462E-02  0.1124213E+00
          2   -1    0    0  501    0  0.00000000000E+00  0.00000000000E+00  0.86314644613E+03  0.86314644613E+03  0.00000000000E+00 0. -1.
         -2   -1    0    0    0  501 -0.00000000000E+00 -0.00000000000E+00 -0.86308748286E+02  0.86308748286E+02  0.00000000000E+00 0.  1.
         25    2    1    2    0    0 -0.38711200130E+02 -0.20436233512E+03  0.63957839272E+03  0.68408282958E+03  0.12508507614E+03 0.  0.
          5    1    3    3  502    0 -0.56334290111E+02 -0.24720564747E+02  0.18254397649E+03  0.19267702072E+03  0.41800000000E+01 0.  1.
         -5    1    3    3    0  502  0.17623089981E+02 -0.17964177037E+03  0.45703441623E+03  0.49140580886E+03  0.41800000000E+01 0.  1.
        -11    1    1    2    0    0 -0.27394792152E+02  0.62406627933E+02  0.24576186246E+02  0.72450333177E+02  0.00000000000E+00 0.  1.
         11    1    1    2    0    0  0.66105992282E+02  0.14195570718E+03  0.11268311889E+03  0.19292203166E+03  0.00000000000E+00 0. -1.
</event>
<event>
 7    1  0.3364676E-009  0.1688090E+03  0.7561462E-02  0.1179096E+00
          2   -1    0    0  501    0  0.00000000000E+00  0.00000000000E+00  0.12351576306E+04  0.12351576306E+04  0.00000000000E+00 0.  1.
         -2   -1    0    0    0  501 -0.00000000000E+00 -0.00000000000E+00 -0.27437190504E+02  0.27437190504E+02  0.00000000000E+00 0. -1.
         25    2    1    2    0    0 -0.11497858569E+03  0.90855362305E+02  0.55975522543E+03  0.59198697914E+03  0.12509156265E+03 0.  0.
          5    1    3    3  502    0 -0.13402342384E+03  0.52573149733E+02  0.48311420270E+03  0.50412599562E+03  0.41800000000E+01 0.  1.
         -5    1    3    3    0  502  0.19044838149E+02  0.38282212571E+02  0.76641022730E+02  0.87860983517E+02  0.41800000000E+01 0.  1.
        -11    1    1    2    0    0  0.58608246693E+02 -0.24395024344E+02  0.12257067856E+03  0.13803483269E+03  0.00000000000E+00 0. -1.
         11    1    1    2    0    0  0.56370338994E+02 -0.66460337961E+02  0.52539453612E+03  0.53257300929E+03  0.00000000000E+00 0.  1.
</event>
<event>
 7    1  0.2530765E-009  0.1094511E+03  0.7561462E-02  0.1261590E+00
          1   -1    0    0  501    0  0.00000000000E+00  0.00000000000E+00  0.14382664285E+03  0.14382664285E+03  0.00000000000E+00 0. -1.
         -1   -1    0    0    0  501 -0.00000000000E+00 -0.00000000000E+00 -0.95706411463E+02  0.95706411463E+02  0.00000000000E+00 0.  1.
         25    2    1    2    0    0 -0.30085693681E+02  0.31803251516E+02  0.31378768082E+02  0.13619641146E+03  0.12509292401E+03 0.  0.
          5    1    3    3  502    0 -0.55853797679E+02 -0.25525141721E+02 -0.77540912586E+01  0.62038519536E+02  0.41800000000E+01 0.  1.
         -5    1    3    3    0  502  0.25768103998E+02  0.57328393237E+02  0.39132859341E+02  0.74157891926E+02  0.41800000000E+01 0.  1.
        -11    1    1    2    0    0  0.46028917428E+02 -0.51464258091E+02 -0.60041530930E+01  0.69305706510E+02  0.00000000000E+00 0.  1.
         11    1    1    2    0    0 -0.15943223747E+02  0.19661006575E+02  0.22745616400E+02  0.34030936343E+02  0.00000000000E+00 0. -1.
</event>
<event>
 7    1  0.2530765E-009  0.1467281E+03  0.7561462E-02  0.1204552E+00
         -2   -1    0    0    0  501 -0.00000000000E+00  0.00000000000E+00  0.72736407622E+02  0.72736407622E+02  0.00000000000E+00 0. -1.
          2   -1    0    0  501    0  0.00000000000E+00 -0.00000000000E+00 -0.37379496478E+03  0.37379496478E+03  0.00000000000E+00 0.  1.
         25    2    1    2    0    0  0.68796428205E+02 -0.99684682858E+02 -0.18917438417E+03  0.25710925968E+03  0.12509292250E+03 0.  0.
          5    1    3    3  502    0  0.64882728286E+02  0.19153385386E+01 -0.39439980560E+02  0.76068531063E+02  0.41800000000E+01 0.  1.
         -5    1    3    3    0  502  0.39136999191E+01 -0.10160002140E+03 -0.14973440361E+03  0.18104072862E+03  0.41800000000E+01 0.  1.
        -11    1    1    2    0    0 -0.33241163879E+02  0.18551260408E+02 -0.90667136731E+02  0.98334398466E+02  0.00000000000E+00 0.  1.
         11    1    1    2    0    0 -0.35555264327E+02  0.81133422450E+02 -0.21217036254E+02  0.91087714249E+02  0.00000000000E+00 0. -1.
</event>
<event>
 7    1  0.2530765E-009  0.9751670E+02  0.7561462E-02  0.1285606E+00
          1   -1    0    0  501    0  0.00000000000E+00  0.00000000000E+00  0.39240442320E+03  0.39240442320E+03  0.00000000000E+00 0. -1.
         -1   -1    0    0    0  501 -0.00000000000E+00 -0.00000000000E+00 -0.44747219491E+02  0.44747219491E+02  0.00000000000E+00 0.  1.
         25    2    1    2    0    0 -0.70387766870E+02  0.73492728726E+01  0.21989550037E+03  0.26269825029E+03  0.12509152684E+03 0.  0.
          5    1    3    3  502    0  0.18187316638E+01  0.18096417655E+02 -0.10197375507E+02  0.21266099408E+02  0.41800000000E+01 0. -1.
         -5    1    3    3    0  502 -0.72206498534E+02 -0.10747144783E+02  0.23009287588E+03  0.24143215088E+03  0.41800000000E+01 0. -1.
        -11    1    1    2    0    0  0.80256599297E+02  0.12365164283E+02  0.12893524131E+03  0.15237557373E+03  0.00000000000E+00 0. -1.
         11    1    1    2    0    0 -0.98688324273E+01 -0.19714437155E+02 -0.11735379672E+01  0.22077818669E+02  0.00000000000E+00 0.  1.
</event>
<event>
 7    1  0.2530765E-009  0.1107765E+03  0.7561462E-02  0.1259139E+00
         -1   -1    0    0    0  501 -0.00000000000E+00  0.00000000000E+00  0.15096479294E+02  0.15096479294E+02  0.00000000000E+00 0.  1.
          1   -1    0    0  501    0  0.00000000000E+00 -0.00000000000E+00 -0.97688261043E+03  0.97688261043E+03  0.00000000000E+00 0. -1.
         25    2    1    2    0    0  0.30129024960E+02  0.36556438583E+02 -0.61834166046E+03  0.63264456511E+03  0.12509438581E+03 0.  0.
          5    1    3    3  502    0 -0.30575035584E+02  0.60599486904E+02 -0.33743811238E+03  0.34422243201E+03  0.41800000000E+01 0.  1.
         -5    1    3    3    0  502  0.60704060544E+02 -0.24043048321E+02 -0.28090354808E+03  0.28842213310E+03  0.41800000000E+01 0.  1.
        -11    1    1    2    0    0 -0.45096910883E+02 -0.50472956473E+02 -0.32444371190E+03  0.33142868449E+03  0.00000000000E+00 0.  1.
         11    1    1    2    0    0  0.14967885923E+02  0.13916517890E+02 -0.19000758780E+02  0.27905840131E+02  0.00000000000E+00 0. -1.
</event>
<event>
 7    1  0.2530765E-009  0.9961786E+02  0.7561462E-02  0.1281102E+00
         -2   -1    0    0    0  501 -0.00000000000E+00  0.00000000000E+00  0.28564384599E+02  0.28564384599E+02  0.00000000000E+00 0.  1.
          2   -1    0    0  501    0  0.00000000000E+00 -0.00000000000E+00 -0.85327783141E+03  0.85327783141E+03  0.00000000000E+00 0. -1.
         25    2    1    2    0    0  0.53461154522E+02 -0.17948166295E+02 -0.71394792651E+03  0.72701425337E+03  0.12509137108E+03 0.  0.
          5    1    3    3  502    0  0.60706214904E+02  0.14617746596E+02 -0.15643392286E+03  0.16848729230E+03  0.41800000000E+01 0. -1.
         -5    1    3    3    0  502 -0.72450603814E+01 -0.32565912892E+02 -0.55751400365E+03  0.55852696107E+03  0.41800000000E+01 0. -1.
        -11    1    1    2    0    0  0.55619260775E+01 -0.27802495778E+02 -0.54117395007E+02  0.61095059011E+02  0.00000000000E+00 0. -1.
         11    1    1    2    0    0 -0.59023080600E+02  0.45750662073E+02 -0.56648125298E+02  0.93732903632E+02  0.00000000000E+00 0.  1.
</event>
<event>
 7    1  0.2530765E-009  0.2999292E+03  0.7561462E-02  0.1085276E+00
          1   -1    0    0  501    0  0.00000000000E+00  0.00000000000E+00  0.15070589519E+03  0.15070589519E+03  0.00000000000E+00 0. -1.
         -1   -1    0    0    0  501 -0.00000000000E+00 -0.00000000000E+00 -0.61379237694E+03  0.61379237694E+03  0.00000000000E+00 0.  1.
         25    2    1    2    0    0  0.20380079942E+03  0.19454281991E+03 -0.19394288632E+03  0.36419609915E+03  0.12507310206E+03 0.  0.
          5    1    3    3  502    0  0.21753522633E+03  0.17439643991E+03 -0.19358903296E+03  0.33945526809E+03  0.41800000000E+01 0.  1.
         -5    1    3    3    0  502 -0.13734426909E+02  0.20146380001E+02 -0.35385335887E+00  0.24740831066E+02  0.41800000000E+01 0.  1.
        -11    1    1    2    0    0 -0.20626165937E+02 -0.74427641499E+02 -0.67323572770E+02  0.10245670301E+03  0.00000000000E+00 0.  1.
         11    1    1    2    0    0 -0.18317463349E+03 -0.12011517841E+03 -0.20182002266E+03  0.29784546997E+03  0.00000000000E+00 0. -1.
</event>
<event>
 7    1  0.2530765E-009  0.1665573E+03  0.7561462E-02  0.1181486E+00
         -2   -1    0    0    0  501 -0.00000000000E+00  0.00000000000E+00  0.24472956282E+02  0.24472956282E+02  0.00000000000E+00 0.  1.
          2   -1    0    0  501    0  0.00000000000E+00 -0.00000000000E+00 -0.29095566609E+04  0.29095566609E+04  0.00000000000E+00 0. -1.
         25    2    1    2    0    0  0.69572739786E+02  0.13702711774E+03 -0.25067070678E+04  0.25145267654E+04  0.12509089985E+03 0.  0.
          5    1    3    3  502    0  0.49683112028E+02  0.14600752791E+03 -0.15714435342E+04  0.15789993234E+04  0.41800000000E+01 0. -1.
         -5    1    3    3    0  502  0.19889627758E+02 -0.89804101682E+01 -0.93526353359E+03  0.93552744200E+03  0.41800000000E+01 0. -1.
        -11    1    1    2    0    0 -0.49608362104E+01 -0.38292118618E+02 -0.21225838752E+03  0.21574178852E+03  0.00000000000E+00 0. -1.
         11    1    1    2    0    0 -0.64611903575E+02 -0.98734999121E+02 -0.16611824932E+03  0.20376106324E+03  0.00000000000E+00 0.  1.
</event>
<event>
 7    1  0.2530765E-009  0.1833718E+03  0.7561462E-02  0.1164579E+00
          1   -1    0    0  501    0  0.00000000000E+00  0.00000000000E+00  0.17731754995E+03  0.17731754995E+03  0.00000000000E+00 0. -1.
         -1   -1    0    0    0  501 -0.00000000000E+00 -0.00000000000E+00 -0.28677678039E+03  0.28677678039E+03  0.00000000000E+00 0.  1.
         25    2    1    2    0    0 -0.80017626827E+02  0.12897604603E+03  0.72757303994E+02  0.20971281666E+03  0.12509276212E+03 0.  0.
          5    1    3    3  502    0  0.29393142294E+01  0.10878503660E+03  0.24781506410E+02  0.11168893954E+03  0.41800000000E+01 0. -1.
         -5    1    3    3    0  502 -0.82956941056E+02  0.20191009427E+02  0.47975797584E+02  0.98023877116E+02  0.41800000000E+01 0. -1.
        -11    1    1    2    0    0  0.47212095381E+02 -0.91093670905E+01 -0.80591279794E+02  0.93845175144E+02  0.00000000000E+00 0.  1.
         11    1    1    2    0    0  0.32805531446E+02 -0.11986667894E+03 -0.10162525464E+03  0.16053633854E+03  0.00000000000E+00 0. -1.
</event>
<event>
 7    1  0.2530765E-009  0.7019996E+02  0.7561462E-02  0.1359414E+00
          1   -1    0    0  501    0  0.00000000000E+00  0.00000000000E+00  0.79706002290E+02  0.79706002290E+02  0.00000000000E+00 0. -1.
         -1   -1    0    0    0  501 -0.00000000000E+00 -0.00000000000E+00 -0.14929313120E+03  0.14929313120E+03  0.00000000000E+00 0.  1.
         25    2    1    2    0    0  0.51001846800E+00  0.15255629037E+02 -0.25419017641E+02  0.12855782358E+03  0.12509193903E+03 0.  0.
          5    1    3    3  502    0  0.33523009825E+02  0.23112093761E+02  0.38420378815E+02  0.56138747528E+02  0.41800000000E+01 0.  1.
         -5    1    3    3    0  502 -0.33012991357E+02 -0.78564647240E+01 -0.63839396456E+02  0.72419076052E+02  0.41800000000E+01 0.  1.
        -11    1    1    2    0    0 -0.29075201624E+02 -0.21345451784E+02 -0.57861756783E+02  0.68183418507E+02  0.00000000000E+00 0.  1.
         11    1    1    2    0    0  0.28565183156E+02  0.60898227467E+01  0.13693645519E+02  0.32257891398E+02  0.00000000000E+00 0. -1.
</event>
<event>
 7    1  0.2530765E-009  0.1123165E+03  0.7561462E-02  0.1256339E+00
         -1   -1    0    0    0  501 -0.00000000000E+00  0.00000000000E+00  0.53932756890E+02  0.53932756890E+02  0.00000000000E+00 0. -1.
          1   -1    0    0  501    0  0.00000000000E+00 -0.00000000000E+00 -0.25507327484E+03  0.25507327484E+03  0.00000000000E+00 0.  1.
         25    2    1    2    0    0 -0.36659734279E+02  0.27313433807E+01 -0.12899780937E+03  0.18341053166E+03  0.12509033515E+03 0.  0.
          5    1    3    3  502    0  0.46561786569E+02 -0.62355484564E+00 -0.41145559462E+02  0.62280159381E+02  0.41800000000E+01 0. -1.
         -5    1    3    3    0  502 -0.83221520847E+02  0.33548982263E+01 -0.87852249912E+02  0.12113037228E+03  0.41800000000E+01 0. -1.
        -11    1    1    2    0    0 -0.34097009927E+01 -0.39772534227E+02 -0.68482778039E+01  0.40501598099E+02  0.00000000000E+00 0. -1.
         11    1    1    2    0    0  0.40069435271E+02  0.37041190846E+02 -0.65294430768E+02  0.85093901965E+02  0.00000000000E+00 0.  1.
</event>
<event>
 7    1  0.2530765E-009  0.9297799E+02  0.7561462E-02  0.1295796E+00
          3   -1    0    0  501    0  0.00000000000E+00  0.00000000000E+00  0.94210754258E+02  0.94210754258E+02  0.00000000000E+00 0. -1.
         -3   -1    0    0    0  501 -0.00000000000E+00 -0.00000000000E+00 -0.14271702723E+03  0.14271702723E+03  0.00000000000E+00 0.  1.
         25    2    1    2    0    0 -0.36110525698E+02 -0.18312171063E+02 -0.24147574787E+02  0.13367045436E+03  0.12508149074E+03 0.  0.
          5    1    3    3  502    0  0.13720328943E+02  0.31423456415E+02 -0.48071808266E+02  0.59195035175E+02  0.41800000000E+01 0.  1.
         -5    1    3    3    0  502 -0.49830854641E+02 -0.49735627479E+02  0.23924233480E+02  0.74475419183E+02  0.41800000000E+01 0.  1.
        -11    1    1    2    0    0  0.50338454508E+02  0.33193428778E+02 -0.44123645340E+02  0.74717198786E+02  0.00000000000E+00 0.  1.
         11    1    1    2    0    0 -0.14227928810E+02 -0.14881257714E+02  0.19764947160E+02  0.28540128339E+02  0.00000000000E+00 0. -1.
</event>
<event>
 7    1  0.2530765E-009  0.1103285E+03  0.7561462E-02  0.1259963E+00
         -1   -1    0    0    0  501 -0.00000000000E+00  0.00000000000E+00  0.31158469618E+03  0.31158469618E+03  0.00000000000E+00 0.  1.
          1   -1    0    0  501    0  0.00000000000E+00 -0.00000000000E+00 -0.43605479233E+02  0.43605479233E+02  0.00000000000E+00 0. -1.
         25    2    1    2    0    0 -0.25321143623E+02  0.33146330263E+02  0.16098908627E+03  0.20809517232E+03  0.12508507232E+03 0.  0.
          5    1    3    3  502    0 -0.70322492105E+02  0.27295489868E+02  0.13734915980E+03  0.15675637391E+03  0.41800000000E+01 0. -1.
         -5    1    3    3    0  502  0.45001348482E+02  0.58508403959E+01  0.23639926475E+02  0.51338798411E+02  0.41800000000E+01 0. -1.
        -11    1    1    2    0    0 -0.51149048084E+01  0.29471569026E+02  0.21479980819E+02  0.36825605332E+02  0.00000000000E+00 0. -1.
         11    1    1    2    0    0  0.30436048431E+02 -0.62617899289E+02  0.85510149858E+02  0.11026939777E+03  0.00000000000E+00 0.  1.
</event>
<event>
 7    1  0.2530765E-009  0.9832260E+02  0.7561462E-02  0.1283863E+00
         -2   -1    0    0    0  501 -0.00000000000E+00  0.00000000000E+00  0.15994156935E+03  0.15994156935E+03  0.00000000000E+00 0.  1.
          2   -1    0    0  501    0  0.00000000000E+00 -0.00000000000E+00 -0.91454129337E+02  0.91454129337E+02  0.00000000000E+00 0. -1.
         25    2    1    2    0    0 -0.40648733738E+02 -0.31940740318E+02  0.17946203199E+02  0.13653604542E+03  0.12508994781E+03 0.  0.
          5    1    3    3  502    0  0.39973115685E+02  0.13670667293E+02  0.24228080892E+01  0.42521518327E+02  0.41800000000E+01 0.  1.
         -5    1    3    3    0  502 -0.80621849423E+02 -0.45611407611E+02  0.15523395109E+02  0.94014527092E+02  0.41800000000E+01 0.  1.
        -11    1    1    2    0    0  0.22932226465E+02  0.36562682139E+02 -0.15859454822E+02  0.45980855181E+02  0.00000000000E+00 0. -1.
         11    1    1    2    0    0  0.17716507272E+02 -0.46219418209E+01  0.66400691636E+02  0.68878798087E+02  0.00000000000E+00 0.  1.
</event>
<event>
 7    1  0.2530765E-009  0.1428019E+03  0.7561462E-02  0.1209608E+00
          2   -1    0    0  501    0  0.00000000000E+00  0.00000000000E+00  0.39237203672E+03  0.39237203672E+03  0.00000000000E+00 0. -1.
         -2   -1    0    0    0  501 -0.00000000000E+00 -0.00000000000E+00 -0.54978417848E+02  0.54978417848E+02  0.00000000000E+00 0.  1.
         25    2    1    2    0    0  0.18647748751E+02  0.99167591977E+02  0.16275633523E+03  0.22873392334E+03  0.12509050003E+03 0.  0.
          5    1    3    3  502    0  0.70054158745E+02  0.39410836798E+02  0.96627453127E+02  0.12575824551E+03  0.41800000000E+01 0.  1.
         -5    1    3    3    0  502 -0.51406409994E+02  0.59756755179E+02  0.66128882099E+02  0.10297567784E+03  0.41800000000E+01 0.  1.
        -11    1    1    2    0    0 -0.17060863630E+02 -0.11197852020E+03  0.17116233555E+03  0.20524815995E+03  0.00000000000E+00 0. -1.
         11    1    1    2    0    0 -0.15868851206E+01  0.12810928219E+02  0.34749480910E+01  0.13368371271E+02  0.00000000000E+00 0.  1.
</event>
<event>
 7    1  0.2530765E-009  0.9124260E+02  0.7561462E-02  0.1299870E+00
         -2   -1    0    0    0  501 -0.00000000000E+00  0.00000000000E+00  0.31758329777E+02  0.31758329777E+02  0.00000000000E+00 0. -1.
          2   -1    0    0  501    0  0.00000000000E+00 -0.00000000000E+00 -0.40150718084E+03  0.40150718084E+03  0.00000000000E+00 0.  1.
         25    2    1    2    0    0  0.15173450909E+02  0.17740809212E+02 -0.16923212780E+03  0.21173603323E+03  0.12509062619E+03 0.  0.
          5    1    3    3  502    0 -0.16028633070E+02 -0.28652197833E+02 -0.14820764066E+03  0.15185796874E+03  0.41800000000E+01 0. -1.
         -5    1    3    3    0  502  0.31202083978E+02  0.46393007046E+02 -0.21024487145E+02  0.59878064490E+02  0.41800000000E+01 0. -1.
        -11    1    1    2    0    0 -0.52720294899E+02 -0.18201979529E+02 -0.13403855969E+03  0.14517946493E+03  0.00000000000E+00 0.  1.
         11    1    1    2    0    0  0.37546843990E+02  0.46117031662E+00 -0.66478163571E+02  0.76350012465E+02  0.00000000000E+00 0. -1.
</event>
<event>
 7    1  0.2530765E-009  0.1711096E+03  0.7561462E-02  0.1176696E+00
          1   -1    0    0  501    0  0.00000000000E+00  0.00000000000E+00  0.65435044195E+03  0.65435044195E+03  0.00000000000E+00 0.  1.
         -1   -1    0    0    0  501 -0.00000000000E+00 -0.00000000000E+00 -0.49222667900E+02  0.49222667900E+02  0.00000000000E+00 0. -1.
         25    2    1    2    0    0  0.47058725336E+02 -0.12533359975E+03  0.22565846988E+03  0.29066838384E+03  0.12507329643E+03 0.  0.
          5    1    3    3  502    0 -0.40236793319E+02 -0.62420967476E+02  0.10839107398E+03  0.13145902037E+03  0.41800000000E+01 0. -1.
         -5    1    3    3    0  502  0.87295518654E+02 -0.62912632275E+02  0.11726739590E+03  0.15920936347E+03  0.41800000000E+01 0. -1.
        -11    1    1    2    0    0 -0.56072984365E+02  0.13545228120E+03  0.32109456903E+03  0.35297765131E+03  0.00000000000E+00 0. -1.
         11    1    1    2    0    0  0.90142590292E+01 -0.10118681453E+02  0.58374735141E+02  0.59927074707E+02  0.00000000000E+00 0.  1.
</event>
<event>
 7    1  0.2530765E-009  0.1556729E+03  0.7561462E-02  0.1193670E+00
          1   -1    0    0  501    0  0.00000000000E+00  0.00000000000E+00  0.63367356063E+03  0.63367356063E+03  0.00000000000E+00 0. -1.
         -1   -1    0    0    0  501 -0.00000000000E+00 -0.00000000000E+00 -0.39943953822E+02  0.39943953822E+02  0.00000000000E+00 0.  1.
         25    2    1    2    0    0  0.14151623646E+02 -0.11369335052E+03  0.35425267465E+03  0.39277039992E+03  0.12508870115E+03 0.  0.
          5    1    3    3  502    0  0.37779665231E+02  0.10843783235E+02  0.54805691740E+02  0.67572383315E+02  0.41800000000E+01 0. -1.
         -5    1    3    3    0  502 -0.23628041585E+02 -0.12453713376E+03  0.29944698291E+03  0.32519801661E+03  0.41800000000E+01 0. -1.
        -11    1    1    2    0    0  0.37869404033E+02  0.51100622215E+02  0.12671036683E+03  0.14177758079E+03  0.00000000000E+00 0.  1.
         11    1    1    2    0    0 -0.52021027679E+02  0.62592728306E+02  0.11276656533E+03  0.13906953373E+03  0.00000000000E+00 0. -1.
</event>
<event>
 7    1  0.2530765E-009  0.9373380E+02  0.7561462E-02  0.1294054E+00
         -1   -1    0    0    0  501 -0.00000000000E+00  0.00000000000E+00  0.19627873823E+03  0.19627873823E+03  0.00000000000E+00 0.  1.
          1   -1    0    0  501    0  0.00000000000E+00 -0.00000000000E+00 -0.26884347748E+03  0.26884347748E+03  0.00000000000E+00 0. -1.
         25    2    1    2    0    0 -0.19140766981E+02 -0.16074253583E+02  0.16553193636E+03  0.20898465604E+03  0.12509601879E+03 0.  0.
          5    1    3    3  502    0 -0.51843420071E+02 -0.26618716219E+02  0.16426601737E+03  0.17434762149E+03  0.41800000000E+01 0.  1.
         -5    1    3    3    0  502  0.32702653089E+02  0.10544462636E+02  0.12659189907E+01  0.34637034548E+02  0.41800000000E+01 0.  1.
        -11    1    1    2    0    0 -0.24285356481E+02 -0.24856465173E+02 -0.88050645662E+02  0.94660121497E+02  0.00000000000E+00 0.  1.
         11    1    1    2    0    0  0.43426123463E+02  0.40930718756E+02 -0.15004602994E+03  0.16147743817E+03  0.00000000000E+00 0. -1.
</event>
<event>
 7    1  0.2530765E-009  0.9912147E+02  0.7561462E-02  0.1282154E+00
         -1   -1    0    0    0  501 -0.00000000000E+00  0.00000000000E+00  0.39114576352E+02  0.39114576352E+02  0.00000000000E+00 0.  1.
          1   -1    0    0  501    0  0.00000000000E+00 -0.00000000000E+00 -0.50508421674E+03  0.50508421674E+03  0.00000000000E+00 0. -1.
         25    2    1    2    0    0  0.38067778969E+02 -0.48899369928E+02 -0.13033585188E+03  0.19098354503E+03  0.12508787316E+03 0.  0.
          5    1    3    3  502    0 -0.24454974027E+02  0.33773003332E+01  0.11339394348E+02  0.27486472607E+02  0.41800000000E+01 0.  1.
         -5    1    3    3    0  502  0.62522752996E+02 -0.52276670261E+02 -0.14167524623E+03  0.16349707242E+03  0.41800000000E+01 0.  1.
        -11    1    1    2    0    0  0.17525992058E+02 -0.51265523960E-01 -0.12068141205E+02  0.21279169578E+02  0.00000000000E+00 0.  1.
         11    1    1    2    0    0 -0.55593771027E+02  0.48950635452E+02 -0.32356564730E+03  0.33193607849E+03  0.00000000000E+00 0. -1.
</event>
<event>
 7    1  0.2743811E-009  0.7074665E+02  0.7561462E-02  0.1357572E+00
         -4   -1    0    0    0  501 -0.00000000000E+00  0.00000000000E+00  0.98933328668E+02  0.98933328668E+02  0.00000000000E+00 0. -1.
          4   -1    0    0  501    0  0.00000000000E+00 -0.00000000000E+00 -0.13664996823E+03  0.13664996823E+03  0.00000000000E+00 0.  1.
         25    2    1    2    0    0  0.35076376925E+02  0.14720591735E+01 -0.44577739870E+02  0.13735861578E+03  0.12509074810E+03 0.  0.
          5    1    3    3  502    0 -0.12927800465E+02  0.34935764671E+02  0.25972388664E+02  0.45603432447E+02  0.41800000000E+01 0. -1.
         -5    1    3    3    0  502  0.48004177390E+02 -0.33463705497E+02 -0.70550128535E+02  0.91755183334E+02  0.41800000000E+01 0. -1.
        -11    1    1    2    0    0 -0.31203482633E+01  0.10700895005E+02 -0.39258658512E+02  0.40810390777E+02  0.00000000000E+00 0.  1.
         11    1    1    2    0    0 -0.31956028662E+02 -0.12172954179E+02  0.46119758822E+02  0.57414290338E+02  0.00000000000E+00 0. -1.
</event>
<event>
 7    1  0.2530765E-009  0.1593157E+03  0.7561462E-02  0.1189471E+00
         -1   -1    0    0    0  501 -0.00000000000E+00  0.00000000000E+00  0.47176147539E+02  0.47176147539E+02  0.00000000000E+00 0.  1.
          1   -1    0    0  501    0  0.00000000000E+00 -0.00000000000E+00 -0.62782264528E+03  0.62782264528E+03  0.00000000000E+00 0. -1.
         25    2    1    2    0    0 -0.95272260085E+02  0.85890198449E+02 -0.38418656217E+03  0.42390923322E+03  0.12508314724E+03 0.  0.
          5    1    3    3  502    0  0.16794168272E+02 -0.53878346116E+01 -0.61140443624E+01  0.19129212954E+02  0.41800000000E+01 0. -1.
         -5    1    3    3    0  502 -0.11206642836E+03  0.91278033060E+02 -0.37807251781E+03  0.40478002027E+03  0.41800000000E+01 0. -1.
        -11    1    1    2    0    0  0.18012178226E+01 -0.58472577913E+02 -0.64601692721E+02  0.87153115010E+02  0.00000000000E+00 0.  1.
         11    1    1    2    0    0  0.93471042263E+02 -0.27417620536E+02 -0.13185824285E+03  0.16393644459E+03  0.00000000000E+00 0. -1.
</event>
<event>
 7    1  0.2530765E-009  0.1226644E+03  0.7561462E-02  0.1238765E+00
         -1   -1    0    0    0  501 -0.00000000000E+00  0.00000000000E+00  0.82636362753E+02  0.82636362753E+02  0.00000000000E+00 0.  1.
          1   -1    0    0  501    0  0.00000000000E+00 -0.00000000000E+00 -0.29087627914E+03  0.29087627914E+03  0.00000000000E+00 0. -1.
         25    2    1    2    0    0  0.66838740709E+02  0.79087730838E+02 -0.15624970866E+03  0.22534359852E+03  0.12507389619E+03 0.  0.
          5    1    3    3  502    0  0.69032050378E+02  0.83234472873E+01 -0.13398308528E+03  0.15100875238E+03  0.41800000000E+01 0.  1.
         -5    1    3    3    0  502 -0.21933096691E+01  0.70764283551E+02 -0.22266623378E+02  0.74334846138E+02  0.41800000000E+01 0.  1.
        -11    1    1    2    0    0 -0.52357240107E+02 -0.70825950858E+02  0.55599265238E+01  0.88252527950E+02  0.00000000000E+00 0.  1.
         11    1    1    2    0    0 -0.14481500602E+02 -0.82617799797E+01 -0.57550134247E+02  0.59916515420E+02  0.00000000000E+00 0. -1.
</event>
<event>
 7    1  0.2530765E-009  0.1644561E+03  0.7561462E-02  0.1183756E+00
          2   -1    0    0  501    0  0.00000000000E+00  0.00000000000E+00  0.10033668704E+03  0.10033668704E+03  0.00000000000E+00 0. -1.
         -2   -1    0    0    0  501 -0.00000000000E+00 -0.00000000000E+00 -0.48039647594E+03  0.48039647594E+03  0.00000000000E+00 0.  1.
         25    2    1    2    0    0 -0.75510321291E+02  0.13415497664E+03 -0.49140806124E+02  0.20436492110E+03  0.12510330040E+03 0.  0.
          5    1    3    3  502    0 -0.71882745720E+02  0.61159981956E+02 -0.81080732772E+02  0.12449590416E+03  0.41800000000E+01 0. -1.
         -5    1    3    3    0  502 -0.36275755716E+01  0.72994994685E+02  0.31939926648E+02  0.79869016946E+02  0.41800000000E+01 0. -1.
        -11    1    1    2    0    0  0.77861359892E+02 -0.98758590741E+02 -0.31149588258E+03  0.33592459790E+03  0.00000000000E+00 0.  1.
         11    1    1    2    0    0 -0.23510386005E+01 -0.35396385901E+02 -0.19423100196E+02  0.40443643982E+02  0.00000000000E+00 0. -1.
</event>
<event>
 7    1  0.2530765E-009  0.2481352E+03  0.7561462E-02  0.1114489E+00
         -2   -1    0    0    0  501 -0.00000000000E+00  0.00000000000E+00  0.22883217687E+03  0.22883217687E+03  0.00000000000E+00 0. -1.
          2   -1    0    0  501    0  0.00000000000E+00 -0.00000000000E+00 -0.35963961242E+03  0.35963961242E+03  0.00000000000E+00 0.  1.
         25    2    1    2    0    0  0.23055639026E+03  0.21260138215E+01  0.67163159463E+02  0.27077601105E+03  0.12509192278E+03 0.  0.
          5    1    3    3  502    0  0.19301390567E+03  0.37281519010E+02  0.14679171849E+02  0.19717309636E+03  0.41800000000E+01 0.  1.
         -5    1    3    3    0  502  0.37542484584E+02 -0.35155505188E+02  0.52483987615E+02  0.73602914682E+02  0.41800000000E+01 0.  1.
        -11    1    1    2    0    0 -0.10345000655E+03 -0.46489672026E+02 -0.99855167004E+02  0.15111005208E+03  0.00000000000E+00 0. -1.
         11    1    1    2    0    0 -0.12710638370E+03  0.44363658205E+02 -0.98115428012E+02  0.16658572616E+03  0.00000000000E+00 0.  1.
</event>
<event>
 7    1  0.2530765E-009  0.1599027E+03  0.7561462E-02  0.1188807E+00
         -2   -1    0    0    0  501 -0.00000000000E+00  0.00000000000E+00  0.28392131778E+03  0.28392131778E+03  0.00000000000E+00 0.  1.
          2   -1    0    0  501    0  0.00000000000E+00 -0.00000000000E+00 -0.14207898179E+03  0.14207898179E+03  0.00000000000E+00 0. -1.
         25    2    1    2    0    0  0.11302476091E+02  0.12944122454E+03 -0.44210008723E+02  0.18569293388E+03  0.12507823250E+03 0.  0.
          5    1    3    3  502    0 -0.20481835789E+02 -0.18810890707E+02 -0.12300606520E+02  0.30694177416E+02  0.41800000000E+01 0. -1.
         -5    1    3    3    0  502  0.31784311880E+02  0.14825211525E+03 -0.31909402203E+02  0.15499875647E+03  0.41800000000E+01 0. -1.
        -11    1    1    2    0    0 -0.32282077393E+02 -0.74434363823E+02  0.15199635342E+03  0.17229480112E+03  0.00000000000E+00 0.  1.
         11    1    1    2    0    0  0.20979601302E+02 -0.55006860719E+02  0.34055991294E+02  0.68012564575E+02  0.00000000000E+00 0. -1.
</event>
<event>
 7    1  0.2530765E-009  0.1872819E+03  0.7561462E-02  0.1160936E+00
          1   -1    0    0  501    0  0.00000000000E+00  0.00000000000E+00  0.52917469255E+03  0.52917469255E+03  0.00000000000E+00 0. -1.
         -1   -1    0    0    0  501 -0.00000000000E+00 -0.00000000000E+00 -0.79574440249E+02  0.79574440249E+02  0.00000000000E+00 0.  1.
         25    2    1    2    0    0 -0.64968909120E+02 -0.16001400523E+03  0.25658538017E+03  0.33363051893E+03  0.12509126597E+03 0.  0.
          5    1    3    3  502    0 -0.52967714675E+02 -0.71429854165E+02  0.36811013963E+02  0.96334448734E+02  0.41800000000E+01 0.  1.
         -5    1    3    3    0  502 -0.12001194445E+02 -0.88584151068E+02  0.21977436620E+03  0.23729607019E+03  0.41800000000E+01 0.  1.
        -11    1    1    2    0    0  0.89002868067E+02  0.13097638177E+03  0.15625287937E+03  0.22246636919E+03  0.00000000000E+00 0.  1.
         11    1    1    2    0    0 -0.24033958946E+02  0.29037623462E+02  0.36761992763E+02  0.52652244690E+02  0.00000000000E+00 0. -1.
</event>
<event>
 7    1  0.2530765E-009  0.1509746E+03  0.7561462E-02  0.1199281E+00
         -1   -1    0    0    0  501 -0.00000000000E+00  0.00000000000E+00  0.97224677052E+02  0.97224677052E+02  0.00000000000E+00 0.  1.
          1   -1    0    0  501    0  0.00000000000E+00 -0.00000000000E+00 -0.30877271537E+03  0.30877271537E+03  0.00000000000E+00 0. -1.
         25    2    1    2    0    0 -0.76217914951E+02 -0.11185185987E+03 -0.99546441931E+02  0.20946780167E+03  0.12508899520E+03 0.  0.
          5    1    3    3  502    0  0.21281933097E+02 -0.86308269841E+01 -0.56352191925E+02  0.60995522667E+02  0.41800000000E+01 0. -1.
         -5    1    3    3    0  502 -0.97499848047E+02 -0.10322103289E+03 -0.43194250006E+02  0.14847227901E+03  0.41800000000E+01 0. -1.
        -11    1    1    2    0    0  0.62848381668E+02  0.78063764466E+02 -0.26555022730E+02  0.10367757536E+03  0.00000000000E+00 0.  1.
         11    1    1    2    0    0  0.13369533282E+02  0.33788095406E+02 -0.85446573653E+02  0.92852015381E+02  0.00000000000E+00 0. -1.
</event>
<event>
 7    1  0.2530765E-009  0.9409887E+02  0.7561462E-02  0.1293219E+00
          3   -1    0    0  501    0  0.00000000000E+00  0.00000000000E+00  0.27265340568E+03  0.27265340568E+03  0.00000000000E+00 0. -1.
         -3   -1    0    0    0  501 -0.00000000000E+00 -0.00000000000E+00 -0.44743006730E+02  0.44743006730E+02  0.00000000000E+00 0.  1.
         25    2    1    2    0    0  0.82665698256E+01 -0.19342218825E+02  0.11588520747E+03  0.17181215403E+03  0.12509027682E+03 0.  0.
          5    1    3    3  502    0 -0.27789265234E+02  0.25795361374E+02 -0.43101216972E+01  0.38388715525E+02  0.41800000000E+01 0. -1.
         -5    1    3    3    0  502  0.36055835059E+02 -0.45137580199E+02  0.12019532917E+03  0.13342343850E+03  0.41800000000E+01 0. -1.
        -11    1    1    2    0    0 -0.30348323109E+02  0.47487365504E+02  0.77869586863E+02  0.96123582727E+02  0.00000000000E+00 0. -1.
         11    1    1    2    0    0  0.22081753284E+02 -0.28145146679E+02  0.34155604618E+02  0.49460675657E+02  0.00000000000E+00 0.  1.
</event>
<event>
 7    1  0.2530765E-009  0.1055095E+03  0.7561462E-02  0.1269119E+00
          1   -1    0    0  501    0  0.00000000000E+00  0.00000000000E+00  0.10558617635E+03  0.10558617635E+03  0.00000000000E+00 0. -1.
         -1   -1    0    0    0  501 -0.00000000000E+00 -0.00000000000E+00 -0.23293419451E+03  0.23293419451E+03  0.00000000000E+00 0.  1.
         25    2    1    2    0    0 -0.42416863140E+02 -0.68882282578E+02  0.16129157205E+02  0.14982890254E+03  0.12507834022E+03 0.  0.
          5    1    3    3  502    0 -0.44776632610E+02  0.13781477350E+02 -0.29267535265E+02  0.55397987024E+02  0.41800000000E+01 0.  1.
         -5    1    3    3    0  502  0.23597694697E+01 -0.82663759928E+02  0.45396692470E+02  0.94430915513E+02  0.41800000000E+01 0.  1.
        -11    1    1    2    0    0  0.26595690982E+02  0.49194457311E+02 -0.15201145226E+02  0.57952568754E+02  0.00000000000E+00 0. -1.
         11    1    1    2    0    0  0.15821172157E+02  0.19687825267E+02 -0.12827603014E+03  0.13073889957E+03  0.00000000000E+00 0.  1.
</event>
<event>
 7    1  0.2530765E-009  0.1914308E+03  0.7561462E-02  0.1157177E+00
         -2   -1    0    0    0  501 -0.00000000000E+00  0.00000000000E+00  0.54859335692E+03  0.54859335692E+03  0.00000000000E+00 0.  1.
          2   -1    0    0  501    0  0.00000000000E+00 -0.00000000000E+00 -0.87505252468E+02  0.87505252468E+02  0.00000000000E+00 0. -1.
         25    2    1    2    0    0 -0.18572835585E+03 -0.31078700071E+02  0.23683559066E+03  0.32741247391E+03  0.12508766246E+03 0.  0.
          5    1    3    3  502    0 -0.14993653849E+03 -0.69602308689E+01  0.24089489899E+03  0.28386129561E+03  0.41800000000E+01 0. -1.
         -5    1    3    3    0  502 -0.35791817361E+02 -0.24118469202E+02 -0.40593083257E+01  0.43551178293E+02  0.41800000000E+01 0. -1.
        -11    1    1    2    0    0  0.94275077703E+02  0.57615361497E+01  0.42331177158E+02  0.10350320833E+03  0.00000000000E+00 0. -1.
         11    1    1    2    0    0  0.91453278150E+02  0.25317163921E+02  0.18192133663E+03  0.20518292716E+03  0.00000000000E+00 0.  1.
</event>
<event>
 7    1  0.2530765E-009  0.9763876E+02  0.7561462E-02  0.1285341E+00
          2   -1    0    0  501    0  0.00000000000E+00  0.00000000000E+00  0.49050799972E+03  0.49050799972E+03  0.00000000000E+00 0. -1.
         -2   -1    0    0    0  501 -0.00000000000E+00 -0.00000000000E+00 -0.29309725662E+02  0.29309725662E+02  0.00000000000E+00 0.  1.
         25    2    1    2    0    0  0.19175765135E+02 -0.48078957511E+02  0.26484426362E+03  0.29743779596E+03  0.12508981720E+03 0.  0.
          5    1    3    3  502    0  0.78209921742E+01  0.40507019247E+02  0.51518424842E+02  0.66133252037E+02  0.41800000000E+01 0. -1.
         -5    1    3    3    0  502  0.11354772961E+02 -0.88585976759E+02  0.21332583878E+03  0.23130454392E+03  0.41800000000E+01 0. -1.
        -11    1    1    2    0    0 -0.21399505985E+02  0.59448426519E+01  0.69233826392E+00  0.22220696272E+02  0.00000000000E+00 0.  1.
         11    1    1    2    0    0  0.22237408497E+01  0.42134114859E+02  0.19566167217E+03  0.20015923315E+03  0.00000000000E+00 0. -1.
</event>
<event>
 7    1  0.2530765E-009  0.1720092E+03  0.7561462E-02  0.1175769E+00
         -2   -1    0    0    0  501 -0.00000000000E+00  0.00000000000E+00  0.15387092007E+03  0.15387092007E+03  0.00000000000E+00 0. -1.
          2   -1    0    0  501    0  0.00000000000E+00 -0.00000000000E+00 -0.36394206752E+03  0.36394206752E+03  0.00000000000E+00 0.  1.
         25    2    1    2    0    0  0.89176694461E+02  0.13566225579E+03 -0.25482870148E+03  0.32702133503E+03  0.12509418844E+03 0.  0.
          5    1    3    3  502    0  0.24071916419E+02  0.27981218366E+02  0.57802429771E+01  0.37593740838E+02  0.41800000000E+01 0. -1.
         -5    1    3    3    0  502  0.65104778041E+02  0.10768103742E+03 -0.26060894446E+03  0.28942759419E+03  0.41800000000E+01 0. -1.
        -11    1    1    2    0    0 -0.12565662044E+02 -0.91870739850E+02  0.20311660556E+01  0.92748338738E+02  0.00000000000E+00 0.  1.
         11    1    1    2    0    0 -0.76611032416E+02 -0.43791515939E+02  0.42726387978E+02  0.98043313825E+02  0.00000000000E+00 0. -1.
</event>
<event>
 7    1  0.3382796E-009  0.1073635E+03  0.7561462E-02  0.1265532E+00
          1   -1    0    0  501    0  0.00000000000E+00  0.00000000000E+00  0.18510371837E+03  0.18510371837E+03  0.00000000000E+00 0. -1.
         -1   -1    0    0    0  501 -0.00000000000E+00 -0.00000000000E+00 -0.98729928640E+02  0.98729928640E+02  0.00000000000E+00 0.  1.
         25    2    1    2    0    0 -0.63144794662E+02  0.20173226272E+02  0.95502340760E+02  0.17077833984E+03  0.12510123947E+03 0.  0.
          5    1    3    3  502    0 -0.35466473634E+02 -0.46254589663E+02  0.10579214480E+02  0.59386446231E+02  0.41800000000E+01 0. -1.
         -5    1    3    3    0  502 -0.27678321028E+02  0.66427815935E+02  0.84923126280E+02  0.11139189361E+03  0.41800000000E+01 0. -1.
        -11    1    1    2    0    0  0.28466733517E+02  0.17169975036E+02  0.33069348487E+02  0.46890774884E+02  0.00000000000E+00 0. -1.
         11    1    1    2    0    0  0.34678061145E+02 -0.37343201308E+02 -0.42197899518E+02  0.66164532285E+02  0.00000000000E+00 0.  1.
</event>
<event>
 7    1  0.2530765E-009  0.1048484E+03  0.7561462E-02  0.1270419E+00
          2   -1    0    0  501    0  0.00000000000E+00  0.00000000000E+00  0.17168608070E+03  0.17168608070E+03  0.00000000000E+00 0. -1.
         -2   -1    0    0    0  501 -0.00000000000E+00 -0.00000000000E+00 -0.84665803777E+02  0.84665803777E+02  0.00000000000E+00 0.  1.
         25    2    1    2    0    0  0.29059899636E+02 -0.25927867177E+02  0.97120566208E+01  0.13136010452E+03  0.12507765969E+03 0.  0.
          5    1    3    3  502    0 -0.33306745240E+02 -0.38938507015E+02 -0.26627086386E+02  0.57896638387E+02  0.41800000000E+01 0. -1.
         -5    1    3    3    0  502  0.62366644876E+02  0.13010639838E+02  0.36339143007E+02  0.73463466135E+02  0.41800000000E+01 0. -1.
        -11    1    1    2    0    0  0.30419127222E+02  0.25285716142E+01  0.98779563516E+01  0.32082565313E+02  0.00000000000E+00 0. -1.
         11    1    1    2    0    0 -0.59479026858E+02  0.23399295563E+02  0.67430263950E+02  0.92909214641E+02  0.00000000000E+00 0.  1.
</event>
<event>
 7    1  0.2530765E-009  0.2702859E+03  0.7561462E-02  0.1101116E+00
         -2   -1    0    0    0  501 -0.00000000000E+00  0.00000000000E+00  0.17841931650E+03  0.17841931650E+03  0.00000000000E+00 0. -1.
          2   -1    0    0  501    0  0.00000000000E+00 -0.00000000000E+00 -0.45985174524E+03  0.45985174524E+03  0.00000000000E+00 0.  1.
         25    2    1    2    0    0  0.19989481484E+03 -0.16228182723E+03 -0.21299317037E+03  0.35680100073E+03  0.12509010773E+03 0.  0.
          5    1    3    3  502    0  0.38885512301E+02  0.16031538650E+02 -0.13132986852E+02  0.44261055591E+02  0.41800000000E+01 0. -1.
         -5    1    3    3    0  502  0.16100930254E+03 -0.17831336588E+03 -0.19986018352E+03  0.31253994514E+03  0.41800000000E+01 0. -1.
        -11    1    1    2    0    0 -0.14304719016E+03  0.12560898217E+03 -0.89857796716E+02  0.21051018656E+03  0.00000000000E+00 0.  1.
         11    1    1    2    0    0 -0.56847624676E+02  0.36672845055E+02  0.21418538343E+02  0.70959874439E+02  0.00000000000E+00 0. -1.
</event>
<event>
 7    1  0.2530765E-009  0.1027450E+03  0.7561462E-02  0.1274627E+00
          2   -1    0    0  501    0  0.00000000000E+00  0.00000000000E+00  0.63303633184E+02  0.63303633184E+02  0.00000000000E+00 0. -1.
         -2   -1    0    0    0  501 -0.00000000000E+00 -0.00000000000E+00 -0.28622312230E+03  0.28622312230E+03  0.00000000000E+00 0.  1.
         25    2    1    2    0    0  0.68066105537E+02  0.10943332884E+02 -0.17086574798E+03  0.22270124308E+03  0.12509192051E+03 0.  0.
          5    1    3    3  502    0  0.29127886642E+02  0.58408634286E+02 -0.36459892462E+02  0.74878558331E+02  0.41800000000E+01 0.  1.
         -5    1    3    3    0  502  0.38938218895E+02 -0.47465301403E+02 -0.13440585552E+03  0.14782268475E+03  0.41800000000E+01 0.  1.
        -11    1    1    2    0    0 -0.16041706887E+02  0.13598204597E+02  0.23714523129E+02  0.31695837824E+02  0.00000000000E+00 0. -1.
         11    1    1    2    0    0 -0.52024398650E+02 -0.24541537481E+02 -0.75768264266E+02  0.95129674585E+02  0.00000000000E+00 0.  1.
</event>
<event>
 7    1  0.2553280E-009  0.9887199E+02  0.7561462E-02  0.1282686E+00
         -2   -1    0    0    0  501 -0.00000000000E+00  0.00000000000E+00  0.61664351052E+02  0.61664351052E+02  0.00000000000E+00 0.  1.
          2   -1    0    0  501    0  0.00000000000E+00 -0.00000000000E+00 -0.25371071661E+03  0.25371071661E+03  0.00000000000E+00 0. -1.
         25    2    1    2    0    0 -0.43560882624E+02  0.39876350598E+02 -0.85737196905E+02  0.16274604365E+03  0.12509090278E+03 0.  0.
          5    1    3    3  502    0 -0.70689172245E+02  0.45154168939E+02 -0.13206782295E+02  0.85016172249E+02  0.41800000000E+01 0.  1.
         -5    1    3    3    0  502  0.27128289621E+02 -0.52778183411E+01 -0.72530414610E+02  0.77729871399E+02  0.41800000000E+01 0.  1.
        -11    1    1    2    0    0  0.53575300126E+02 -0.10265165172E+02 -0.10834646869E+03  0.12130393101E+03  0.00000000000E+00 0.  1.
         11    1    1    2    0    0 -0.10014417502E+02 -0.29611185426E+02  0.20373000435E+01  0.31325093004E+02  0.00000000000E+00 0. -1.
</event>
<event>
 7    1  0.2530765E-009  0.8120948E+02  0.7561462E-02  0.1325654E+00
          3   -1    0    0  501    0  0.00000000000E+00  0.00000000000E+00  0.28584809945E+02  0.28584809945E+02  0.00000000000E+00 0. -1.
         -3   -1    0    0    0  501 -0.00000000000E+00 -0.00000000000E+00 -0.74260953513E+03  0.74260953513E+03  0.00000000000E+00 0.  1.
         25    2    1    2    0    0  0.34990380186E+02  0.11516063820E+02 -0.62327031419E+03  0.63676597890E+03  0.12509228951E+03 0.  0.
          5    1    3    3  502    0  0.29729204279E+02 -0.43257703106E+02 -0.48561347962E+03  0.48845980229E+03  0.41800000000E+01 0.  1.
         -5    1    3    3    0  502  0.52611759073E+01  0.54773766926E+02 -0.13765683458E+03  0.14830617661E+03  0.41800000000E+01 0.  1.
        -11    1    1    2    0    0  0.18346799500E+01 -0.17218363977E+02 -0.95325198227E+02  0.96885146052E+02  0.00000000000E+00 0.  1.
         11    1    1    2    0    0 -0.36825060136E+02  0.57023001572E+01  0.45707872395E+01  0.37543220122E+02  0.00000000000E+00 0. -1.
</event>
<event>
 7    1  0.2530765E-009  0.2129271E+03  0.7561462E-02  0.1139269E+00
         -2   -1    0    0    0  501 -0.00000000000E+00  0.00000000000E+00  0.40415131151E+02  0.40415131151E+02  0.00000000000E+00 0.  1.
          2   -1    0    0  501    0  0.00000000000E+00 -0.00000000000E+00 -0.12612612708E+04  0.12612612708E+04  0.00000000000E+00 0. -1.
         25    2    1    2    0    0  0.18589366757E+03 -0.11556115201E+02 -0.44244795281E+03  0.49608280629E+03  0.12509180751E+03 0.  0.
          5    1    3    3  502    0  0.35270010459E+02  0.46708503271E+02 -0.79559110988E+02  0.98857384432E+02  0.41800000000E+01 0.  1.
         -5    1    3    3    0  502  0.15062365711E+03 -0.58264618472E+02 -0.36288884183E+03  0.39722542185E+03  0.41800000000E+01 0.  1.
        -11    1    1    2    0    0 -0.16428854922E+03  0.40784500796E+02 -0.67822581365E+03  0.69903101305E+03  0.00000000000E+00 0. -1.
         11    1    1    2    0    0 -0.21605118348E+02 -0.29228385595E+02 -0.10017237322E+03  0.10656258265E+03  0.00000000000E+00 0.  1.
</event>
<event>
 7    1  0.2530765E-009  0.1470873E+03  0.7561462E-02  0.1204098E+00
         -1   -1    0    0    0  501 -0.00000000000E+00  0.00000000000E+00  0.14329609265E+02  0.14329609265E+02  0.00000000000E+00 0.  1.
          1   -1    0    0  501    0  0.00000000000E+00 -0.00000000000E+00 -0.20281809905E+04  0.20281809905E+04  0.00000000000E+00 0. -1.
         25    2    1    2    0    0  0.12148339234E+03  0.41767451691E+02 -0.12109752152E+04  0.12241776206E+04  0.12508852978E+03 0.  0.
          5    1    3    3  502    0  0.28877979679E+02  0.39644991679E+02 -0.12641508949E+03  0.13566101255E+03  0.41800000000E+01 0.  1.
         -5    1    3    3    0  502  0.92605412658E+02  0.21224600125E+01 -0.10845601257E+04  0.10885166080E+04  0.41800000000E+01 0.  1.
        -11    1    1    2    0    0 -0.91561758312E+02 -0.66697551578E+02 -0.68181953360E+03  0.69116567867E+03  0.00000000000E+00 0. -1.
         11    1    1    2    0    0 -0.29921634024E+02  0.24930099887E+02 -0.12105663248E+03  0.12716730056E+03  0.00000000000E+00 0.  1.
</event>
<event>
 7    1  0.2530765E-009  0.1091275E+03  0.7561462E-02  0.1262194E+00
         -2   -1    0    0    0  501 -0.00000000000E+00  0.00000000000E+00  0.86939217171E+02  0.86939217171E+02  0.00000000000E+00 0.  1.
          2   -1    0    0  501    0  0.00000000000E+00 -0.00000000000E+00 -0.15149666224E+03  0.15149666224E+03  0.00000000000E+00 0. -1.
         25    2    1    2    0    0  0.16203815971E+02 -0.11653901463E+02 -0.70626520897E+02  0.14502459173E+03  0.12508257145E+03 0.  0.
          5    1    3    3  502    0  0.65563584715E+02 -0.31020761314E+02 -0.48869320259E+02  0.87558860978E+02  0.41800000000E+01 0.  1.
         -5    1    3    3    0  502 -0.49359768745E+02  0.19366859851E+02 -0.21757200638E+02  0.57465730750E+02  0.41800000000E+01 0.  1.
        -11    1    1    2    0    0  0.37716546954E+02  0.61480030067E+01 -0.34925872256E+01  0.38373610993E+02  0.00000000000E+00 0.  1.
         11    1    1    2    0    0 -0.53920362924E+02  0.55058984559E+01  0.95616630486E+01  0.55037676695E+02  0.00000000000E+00 0. -1.
</event>
<event>
 7    1  0.2530765E-009  0.1091383E+03  0.7561462E-02  0.1262174E+00
          1   -1    0    0  501    0  0.00000000000E+00  0.00000000000E+00  0.10924630657E+03  0.10924630657E+03  0.00000000000E+00 0. -1.
         -1   -1    0    0    0  501 -0.00000000000E+00 -0.00000000000E+00 -0.14285776794E+03  0.14285776794E+03  0.00000000000E+00 0.  1.
         25    2    1    2    0    0  0.31813118561E+01 -0.21235178591E+02 -0.75670151796E+02  0.14776841715E+03  0.12509388346E+03 0.  0.
          5    1    3    3  502    0  0.63336084177E+02 -0.16180909935E+01 -0.39114225799E+02  0.74575283018E+02  0.41800000000E+01 0. -1.
         -5    1    3    3    0  502 -0.60154772321E+02 -0.19617087597E+02 -0.36555925996E+02  0.73193134133E+02  0.41800000000E+01 0. -1.
        -11    1    1    2    0    0  0.13995065366E+02  0.53240093090E+02  0.39825366013E+02  0.67944309143E+02  0.00000000000E+00 0. -1.
         11    1    1    2    0    0 -0.17176377223E+02 -0.32004914499E+02  0.22333244109E+01  0.36391348209E+02  0.00000000000E+00 0.  1.
</event>
<event>
 7    1  0.2530765E-009  0.1390342E+03  0.7561462E-02  0.1214634E+00
          3   -1    0    0  501    0  0.00000000000E+00  0.00000000000E+00  0.12103672705E+03  0.12103672705E+03  0.00000000000E+00 0. -1.
         -3   -1    0    0    0  501 -0.00000000000E+00 -0.00000000000E+00 -0.31481145697E+03  0.31481145697E+03  0.00000000000E+00 0.  1.
         25    2    1    2    0    0 -0.90828254590E+02 -0.60641091728E+02  0.31280467850E+02  0.16897539925E+03  0.12508838493E+03 0.  0.
          5    1    3    3  502    0 -0.79918447090E+02 -0.94991376374E+02  0.52475199756E+01  0.12431946202E+03  0.41800000000E+01 0. -1.
         -5    1    3    3    0  502 -0.10909807500E+02  0.34350284646E+02  0.26032947874E+02  0.44655937231E+02  0.41800000000E+01 0. -1.
        -11    1    1    2    0    0  0.55243897301E+02  0.10724561568E+02 -0.18566579770E+03  0.19400694020E+03  0.00000000000E+00 0.  1.
         11    1    1    2    0    0  0.35584357290E+02  0.49916530160E+02 -0.39389400075E+02  0.72865844572E+02  0.00000000000E+00 0. -1.
</event>
<event>
 7    1  0.2530765E-009  0.1234140E+03  0.7561462E-02  0.1237569E+00
         -2   -1    0    0    0  501 -0.00000000000E+00  0.00000000000E+00  0.26567263843E+02  0.26567263843E+02  0.00000000000E+00 0.  1.
          2   -1    0    0  501    0  0.00000000000E+00 -0.00000000000E+00 -0.10945245306E+04  0.10945245306E+04  0.00000000000E+00 0. -1.
         25    2    1    2    0    0  0.72717185130E+02  0.20888863254E+02 -0.92061646496E+03  0.93215156505E+03  0.12509089113E+03 0.  0.
          5    1    3    3  502    0  0.56472596791E+02 -0.44992919061E+02 -0.60424832801E+03  0.60856144411E+03  0.41800000000E+01 0. -1.
         -5    1    3    3    0  502  0.16244588339E+02  0.65881782315E+02 -0.31636813696E+03  0.32359012094E+03  0.41800000000E+01 0. -1.
        -11    1    1    2    0    0 -0.40729784641E+02 -0.49151685793E+02 -0.12593402794E+03  0.14118846612E+03  0.00000000000E+00 0. -1.
         11    1    1    2    0    0 -0.31987400489E+02  0.28262822540E+02 -0.21406773844E+02  0.47751763259E+02  0.00000000000E+00 0.  1.
</event>
<event>
 7    1  0.2530765E-009  0.1340577E+03  0.7561462E-02  0.1221556E+00
         -2   -1    0    0    0  501 -0.00000000000E+00  0.00000000000E+00  0.40363823263E+03  0.40363823263E+03  0.00000000000E+00 0.  1.
          2   -1    0    0  501    0  0.00000000000E+00 -0.00000000000E+00 -0.67848872051E+02  0.67848872051E+02  0.00000000000E+00 0. -1.
         25    2    1    2    0    0 -0.10059655637E+03 -0.28268149415E+02  0.27690940137E+03  0.32131660478E+03  0.12508712370E+03 0.  0.
          5    1    3    3  502    0  0.49475746818E+01 -0.51385338336E+02  0.62376546841E+02  0.81075504852E+02  0.41800000000E+01 0.  1.
         -5    1    3    3    0  502 -0.10554413105E+03  0.23117188921E+02  0.21453285453E+03  0.24024109993E+03  0.41800000000E+01 0.  1.
        -11    1    1    2    0    0  0.18971999427E+02 -0.56646024877E+01 -0.22532529148E+02  0.29995655575E+02  0.00000000000E+00 0. -1.
         11    1    1    2    0    0  0.81624556943E+02  0.33932751903E+02  0.81412488353E+02  0.12017484432E+03  0.00000000000E+00 0.  1.
</event>
<event>
 7    1  0.2530765E-009  0.9329205E+02  0.7561462E-02  0.1295070E+00
         -1   -1    0    0    0  501 -0.00000000000E+00  0.00000000000E+00  0.15594751876E+02  0.15594751876E+02  0.00000000000E+00 0.  1.
          1   -1    0    0  501    0  0.00000000000E+00 -0.00000000000E+00 -0.80605555717E+03  0.80605555717E+03  0.00000000000E+00 0. -1.
         25    2    1    2    0    0 -0.22089005495E+02 -0.31838236417E+00 -0.37618393727E+03  0.39705213503E+03  0.12509203708E+03 0.  0.
          5    1    3    3  502    0 -0.34721865369E+02  0.39578883001E+02 -0.33152804655E+03  0.33570882318E+03  0.41800000000E+01 0.  1.
         -5    1    3    3    0  502  0.12632859874E+02 -0.39897265365E+02 -0.44655890718E+02  0.61343311844E+02  0.41800000000E+01 0.  1.
        -11    1    1    2    0    0  0.52484341954E+02  0.19247488505E+02 -0.28627845214E+03  0.29168548837E+03  0.00000000000E+00 0.  1.
         11    1    1    2    0    0 -0.30395336459E+02 -0.18929106140E+02 -0.12799841588E+03  0.13291268565E+03  0.00000000000E+00 0. -1.
</event>
<event>
 7    1  0.2530765E-009  0.2342732E+03  0.7561462E-02  0.1123668E+00
         -2   -1    0    0    0  501 -0.00000000000E+00  0.00000000000E+00  0.58269269371E+02  0.58269269371E+02  0.00000000000E+00 0.  1.
          2   -1    0    0  501    0  0.00000000000E+00 -0.00000000000E+00 -0.99188263891E+03  0.99188263891E+03  0.00000000000E+00 0. -1.
         25    2    1    2    0    0 -0.20285538480E+03 -0.43030238485E+02 -0.37258964180E+03  0.44438181989E+03  0.12510096765E+03 0.  0.
          5    1    3    3  502    0 -0.47482776436E+01  0.30201927908E+02 -0.51238777019E+02  0.59812935560E+02  0.41800000000E+01 0. -1.
         -5    1    3    3    0  502 -0.19810710715E+03 -0.73232166394E+02 -0.32135086479E+03  0.38456888433E+03  0.41800000000E+01 0. -1.
        -11    1    1    2    0    0  0.12024860136E+03  0.70490912524E+02 -0.38364779860E+03  0.40818418422E+03  0.00000000000E+00 0. -1.
         11    1    1    2    0    0  0.82606783436E+02 -0.27460674039E+02 -0.17737592913E+03  0.19758590416E+03  0.00000000000E+00 0.  1.
</event>
<event>
 7    1  0.2530765E-009  0.3919361E+03  0.7561462E-02  0.1046608E+00
          2   -1    0    0  501    0  0.00000000000E+00  0.00000000000E+00  0.76730975129E+03  0.76730975129E+03  0.00000000000E+00 0. -1.
         -2   -1    0    0    0  501 -0.00000000000E+00 -0.00000000000E+00 -0.20726698837E+03  0.20726698837E+03  0.00000000000E+00 0.  1.
         25    2    1    2    0    0 -0.23297869317E+02 -0.38180846361E+03  0.24856959493E+03  0.47302782585E+03  0.12509191383E+03 0.  0.
          5    1    3    3  502    0  0.17418617081E+02 -0.13972126441E+02 -0.63934690265E+01  0.23600368313E+02  0.41800000000E+01 0. -1.
         -5    1    3    3    0  502 -0.40716486398E+02 -0.36783633717E+03  0.25496306396E+03  0.44942745754E+03  0.41800000000E+01 0. -1.
        -11    1    1    2    0    0 -0.29243761921E+02  0.18723553732E+03  0.17663701965E+03  0.25906173155E+03  0.00000000000E+00 0. -1.
         11    1    1    2    0    0  0.52541631237E+02  0.19457292629E+03  0.13483614835E+03  0.24248718226E+03  0.00000000000E+00 0.  1.
</event>
<event>
 7    1  0.2530765E-009  0.5970350E+02  0.7561462E-02  0.1399080E+00
          3   -1    0    0  501    0  0.00000000000E+00  0.00000000000E+00  0.54241322547E+02  0.54241322547E+02  0.00000000000E+00 0. -1.
         -3   -1    0    0    0  501 -0.00000000000E+00 -0.00000000000E+00 -0.22054010031E+03  0.22054010031E+03  0.00000000000E+00 0.  1.
         25    2    1    2    0    0  0.29448912648E+01  0.17055307333E+02 -0.97699310388E+02  0.15966194035E+03  0.12508886463E+03 0.  0.
          5    1    3    3  502    0 -0.79574088653E+01  0.44408108234E+01  0.29577095920E+02  0.31230084209E+02  0.41800000000E+01 0. -1.
         -5    1    3    3    0  502  0.10902300130E+02  0.12614496510E+02 -0.12727640631E+03  0.12843185615E+03  0.41800000000E+01 0. -1.
        -11    1    1    2    0    0 -0.19126035529E+02 -0.51065210981E+02 -0.36336363632E+02  0.65527035104E+02  0.00000000000E+00 0. -1.
         11    1    1    2    0    0  0.16181144264E+02  0.34009903648E+02 -0.32263103748E+02  0.49592447402E+02  0.00000000000E+00 0.  1.
</event>
<event>
 7    1  0.2530765E-009  0.1089016E+03  0.7561462E-02  0.1262618E+00
          2   -1    0    0  501    0  0.00000000000E+00  0.00000000000E+00  0.19935514430E+04  0.19935514430E+04  0.00000000000E+00 0.  1.
         -2   -1    0    0    0  501 -0.00000000000E+00 -0.00000000000E+00 -0.74132624413E+01  0.74132624413E+01  0.00000000000E+00 0. -1.
         25    2    1    2    0    0  0.15921295970E+02  0.27549049252E+02  0.14960560171E+04  0.15016132665E+04  0.12508540258E+03 0.  0.
          5    1    3    3  502    0  0.56526014938E+02 -0.19982784819E+02  0.50201172710E+03  0.50559642859E+03  0.41800000000E+01 0. -1.
         -5    1    3    3    0  502 -0.40604718968E+02  0.47531834071E+02  0.99404429003E+03  0.99601683790E+03  0.41800000000E+01 0. -1.
        -11    1    1    2    0    0 -0.53314715676E+02 -0.19724897156E+02  0.26246878747E+03  0.26855426802E+03  0.00000000000E+00 0. -1.
         11    1    1    2    0    0  0.37393419706E+02 -0.78241520957E+01  0.22761337599E+03  0.23079717096E+03  0.00000000000E+00 0.  1.
</event>
<event>
 7    1  0.2530765E-009  0.1754416E+03  0.7561462E-02  0.1172289E+00
          2   -1    0    0  501    0  0.00000000000E+00  0.00000000000E+00  0.58922118633E+02  0.58922118633E+02  0.00000000000E+00 0. -1.
         -2   -1    0    0    0  501 -0.00000000000E+00 -0.00000000000E+00 -0.70224925753E+03  0.70224925753E+03  0.00000000000E+00 0.  1.
         25    2    1    2    0    0 -0.15101733471E+03 -0.50078907200E+02 -0.45729029666E+03  0.50007574067E+03  0.12508876312E+03 0.  0.
          5    1    3    3  502    0 -0.70473590923E+01  0.22554767687E+02 -0.12750779382E+02  0.27174208184E+02  0.41800000000E+01 0. -1.
         -5    1    3    3    0  502 -0.14396997561E+03 -0.72633674888E+02 -0.44453951728E+03  0.47290153249E+03  0.41800000000E+01 0. -1.
        -11    1    1    2    0    0  0.11290642644E+03  0.57571206994E+02 -0.18236855311E+03  0.22208240401E+03  0.00000000000E+00 0.  1.
         11    1    1    2    0    0  0.38110908270E+02 -0.74922997936E+01 -0.36682891174E+01  0.39013231479E+02  0.00000000000E+00 0. -1.
</event>
<event>
 7    1  0.2530765E-009  0.1299562E+03  0.7561462E-02  0.1227521E+00
         -1   -1    0    0    0  501 -0.00000000000E+00  0.00000000000E+00  0.41624291464E+02  0.41624291464E+02  0.00000000000E+00 0.  1.
          1   -1    0    0  501    0  0.00000000000E+00 -0.00000000000E+00 -0.67715375647E+03  0.67715375647E+03  0.00000000000E+00 0. -1.
         25    2    1    2    0    0  0.36439342552E+02 -0.12044450236E+03 -0.38965907229E+03  0.42815487995E+03  0.12509078612E+03 0.  0.
          5    1    3    3  502    0  0.12922306226E+02 -0.68985327149E+02 -0.56494656847E+02  0.90194678403E+02  0.41800000000E+01 0. -1.
         -5    1    3    3    0  502  0.23517036326E+02 -0.51459175208E+02 -0.33316441545E+03  0.33796020155E+03  0.41800000000E+01 0. -1.
        -11    1    1    2    0    0  0.97142458531E+01  0.16643441995E+02  0.54985578108E+00  0.19278824532E+02  0.00000000000E+00 0.  1.
         11    1    1    2    0    0 -0.46153588405E+02  0.10380106036E+03 -0.24642024849E+03  0.27134434345E+03  0.00000000000E+00 0. -1.
</event>
<event>
 7    1  0.2530765E-009  0.7499696E+02  0.7561462E-02  0.1343880E+00
         -3   -1    0    0    0  501 -0.00000000000E+00  0.00000000000E+00  0.71744461162E+02  0.71744461162E+02  0.00000000000E+00 0.  1.
          3   -1    0    0  501    0  0.00000000000E+00 -0.00000000000E+00 -0.20798660275E+03  0.20798660275E+03  0.00000000000E+00 0. -1.
         25    2    1    2    0    0  0.44425352385E+02  0.23934871021E+02 -0.32710768607E+02  0.13879196397E+03  0.12508686939E+03 0.  0.
          5    1    3    3  502    0 -0.10904760664E+02  0.76028366939E+01  0.42032180354E+02  0.44281977330E+02  0.41800000000E+01 0.  1.
         -5    1    3    3    0  502  0.55330113048E+02  0.16332034327E+02 -0.74742948961E+02  0.94509986640E+02  0.41800000000E+01 0.  1.
        -11    1    1    2    0    0 -0.15334630580E+02 -0.41494771227E+02 -0.15997574934E+02  0.47041357740E+02  0.00000000000E+00 0.  1.
         11    1    1    2    0    0 -0.29090721805E+02  0.17559900206E+02 -0.87533798051E+02  0.93897742207E+02  0.00000000000E+00 0. -1.
</event>
<event>
 7    1  0.2530765E-009  0.1086415E+03  0.7561462E-02  0.1263106E+00
          1   -1    0    0  501    0  0.00000000000E+00  0.00000000000E+00  0.35436611174E+03  0.35436611174E+03  0.00000000000E+00 0. -1.
         -1   -1    0    0    0  501 -0.00000000000E+00 -0.00000000000E+00 -0.39818025406E+02  0.39818025406E+02  0.00000000000E+00 0.  1.
         25    2    1    2    0    0 -0.19135187562E+02 -0.14810520210E+02  0.10762121520E+03  0.16677801551E+03  0.12508826318E+03 0.  0.
          5    1    3    3  502    0 -0.17659739331E+02 -0.69060561922E+02  0.47952364701E+02  0.86012378683E+02  0.41800000000E+01 0. -1.
         -5    1    3    3    0  502 -0.14754482302E+01  0.54250041712E+02  0.59668850496E+02  0.80765636831E+02  0.41800000000E+01 0. -1.
        -11    1    1    2    0    0  0.29362028189E+02  0.48248259931E+02  0.99266609607E+02  0.11420982037E+03  0.00000000000E+00 0.  1.
         11    1    1    2    0    0 -0.10226840627E+02 -0.33437739721E+02  0.10766026154E+03  0.11319630127E+03  0.00000000000E+00 0. -1.
</event>
<event>
 7    1  0.2530765E-009  0.8063137E+02  0.7561462E-02  0.1327269E+00
          1   -1    0    0  501    0  0.00000000000E+00  0.00000000000E+00  0.36586898295E+03  0.36586898295E+03  0.00000000000E+00 0. -1.
         -1   -1    0    0    0  501 -0.00000000000E+00 -0.00000000000E+00 -0.33378455450E+02  0.33378455450E+02  0.00000000000E+00 0.  1.
         25    2    1    2    0    0  0.17056076178E+02 -0.15282854213E+02  0.21190049873E+03  0.24713195359E+03  0.12509158947E+03 0.  0.
          5    1    3    3  502    0 -0.32762085515E+02 -0.25811209435E+02  0.16309073891E+02  0.44978117690E+02  0.41800000000E+01 0.  1.
         -5    1    3    3    0  502  0.49818161693E+02  0.10528355222E+02  0.19559142484E+03  0.20215383590E+03  0.41800000000E+01 0.  1.
        -11    1    1    2    0    0 -0.74908215542E+01 -0.25390716666E+02  0.21945951878E+01  0.26563455129E+02  0.00000000000E+00 0.  1.
         11    1    1    2    0    0 -0.95652546241E+01  0.40673570879E+02  0.11839543359E+03  0.12555202968E+03  0.00000000000E+00 0. -1.
</event>
<event>
 7    1  0.2530765E-009  0.9102119E+02  0.7561462E-02  0.1300397E+00
          1   -1    0    0  501    0  0.00000000000E+00  0.00000000000E+00  0.60549881733E+02  0.60549881733E+02  0.00000000000E+00 0. -1.
         -1   -1    0    0    0  501 -0.00000000000E+00 -0.00000000000E+00 -0.20826133540E+03  0.20826133540E+03  0.00000000000E+00 0.  1.
         25    2    1    2    0    0 -0.10812742922E+02 -0.13763247458E+02 -0.10849737453E+03  0.16652063629E+03  0.12510435500E+03 0.  0.
          5    1    3    3  502    0  0.38251917074E+02 -0.50555002873E+01 -0.10984136070E+03  0.11649619806E+03  0.41800000000E+01 0. -1.
         -5    1    3    3    0  502 -0.49064659996E+02 -0.87077471703E+01  0.13439861665E+01  0.50024438229E+02  0.41800000000E+01 0. -1.
        -11    1    1    2    0    0  0.21809447487E+02  0.50430797707E+02 -0.14857969450E+02  0.56918157150E+02  0.00000000000E+00 0.  1.
         11    1    1    2    0    0 -0.10996704565E+02 -0.36667550250E+02 -0.24356109681E+02  0.45372423689E+02  0.00000000000E+00 0. -1.
</event>
<event>
 7    1  0.2530765E-009  0.8644485E+02  0.7561462E-02  0.1311697E+00
          1   -1    0    0  501    0  0.00000000000E+00  0.00000000000E+00  0.39873319713E+03  0.39873319713E+03  0.00000000000E+00 0. -1.
         -1   -1    0    0    0  501 -0.00000000000E+00 -0.00000000000E+00 -0.34655186554E+02  0.34655186554E+02  0.00000000000E+00 0.  1.
         25    2    1    2    0    0  0.32102951086E+02 -0.31285117925E+02  0.20421662512E+03  0.24364297418E+03  0.12509240912E+03 0.  0.
          5    1    3    3  502    0  0.38756237572E+02  0.38925901844E+02  0.12992752518E+03  0.14112372581E+03  0.41800000000E+01 0.  1.
         -5    1    3    3    0  502 -0.66532864853E+01 -0.70211019769E+02  0.74289099937E+02  0.10251924838E+03  0.41800000000E+01 0.  1.
        -11    1    1    2    0    0 -0.12147278939E+02  0.29594460392E+01 -0.10233847314E+02  0.16156928462E+02  0.00000000000E+00 0.  1.
         11    1    1    2    0    0 -0.19955672148E+02  0.28325671885E+02  0.17009523276E+03  0.17358848103E+03  0.00000000000E+00 0. -1.
</event>
<event>
 7    1  0.2530765E-009  0.8481961E+02  0.7561462E-02  0.1315905E+00
          2   -1    0    0  501    0  0.00000000000E+00  0.00000000000E+00  0.40516654020E+03  0.40516654020E+03  0.00000000000E+00 0. -1.
         -2   -1    0    0    0  501 -0.00000000000E+00 -0.00000000000E+00 -0.36620450266E+02  0.36620450266E+02  0.00000000000E+00 0.  1.
         25    2    1    2    0    0  0.34216928413E+02  0.34502640792E+02  0.25467138223E+03  0.28786497687E+03  0.12508997391E+03 0.  0.
          5    1    3    3  502    0 -0.86614954219E+01  0.38364620572E+02  0.11947041394E+02  0.41316701376E+02  0.41800000000E+01 0. -1.
         -5    1    3    3    0  502  0.42878423835E+02 -0.38619797799E+01  0.24272434083E+03  0.24654827550E+03  0.41800000000E+01 0. -1.
        -11    1    1    2    0    0 -0.26868609606E+02  0.18949206510E+02  0.61610860779E+01  0.33450763686E+02  0.00000000000E+00 0.  1.
         11    1    1    2    0    0 -0.73483188067E+01 -0.53451847301E+02  0.10771362163E+03  0.12047124991E+03  0.00000000000E+00 0. -1.
</event>
<event>
 7    1  0.2530765E-009  0.8404498E+02  0.7561462E-02  0.1317949E+00
          1   -1    0    0  501    0  0.00000000000E+00  0.00000000000E+00  0.18417944634E+03  0.18417944634E+03  0.00000000000E+00 0. -1.
         -1   -1    0    0    0  501 -0.00000000000E+00 -0.00000000000E+00 -0.96463926639E+02  0.96463926639E+02  0.00000000000E+00 0.  1.
         25    2    1    2    0    0  0.65637458007E+02 -0.25104866872E+02  0.16745618768E+02  0.14445256648E+03  0.12509035926E+03 0.  0.
          5    1    3    3  502    0  0.79551091862E+00  0.14635359836E+02  0.56511488656E+02  0.58530738465E+02  0.41800000000E+01 0. -1.
         -5    1    3    3    0  502  0.64841947089E+02 -0.39740226708E+02 -0.39765869888E+02  0.85921828013E+02  0.41800000000E+01 0. -1.
        -11    1    1    2    0    0 -0.11655167359E+02  0.19089541377E+02 -0.20153742375E+02  0.30106923587E+02  0.00000000000E+00 0.  1.
         11    1    1    2    0    0 -0.53982290648E+02  0.60153254948E+01  0.91123643310E+02  0.10608388292E+03  0.00000000000E+00 0. -1.
</event>
<event>
 7    1  0.2530765E-009  0.9870875E+02  0.7561462E-02  0.1283035E+00
         -3   -1    0    0    0  501 -0.00000000000E+00  0.00000000000E+00  0.14538919944E+03  0.14538919944E+03  0.00000000000E+00 0.  1.
          3   -1    0    0  501    0  0.00000000000E+00 -0.00000000000E+00 -0.11527392922E+03  0.11527392922E+03  0.00000000000E+00 0. -1.
         25    2    1    2    0    0 -0.50942252550E+02 -0.54089129800E+02 -0.11505581258E+02  0.14594410791E+03  0.12508619899E+03 0.  0.
          5    1    3    3  502    0 -0.58907622377E+02 -0.14828773594E+02  0.45594321324E+02  0.76067831817E+02  0.41800000000E+01 0. -1.
         -5    1    3    3    0  502  0.79653698262E+01 -0.39260356205E+02 -0.57099902582E+02  0.69876276094E+02  0.41800000000E+01 0. -1.
        -11    1    1    2    0    0 -0.11997891354E+02  0.23246098048E+02  0.35865381062E+02  0.44392071703E+02  0.00000000000E+00 0.  1.
         11    1    1    2    0    0  0.62940143904E+02  0.30843031751E+02  0.57554704162E+01  0.70326949045E+02  0.00000000000E+00 0. -1.
</event>
<event>
 7    1  0.2530765E-009  0.1110225E+03  0.7561462E-02  0.1258688E+00
         -2   -1    0    0    0  501 -0.00000000000E+00  0.00000000000E+00  0.16778451388E+03  0.16778451388E+03  0.00000000000E+00 0. -1.
          2   -1    0    0  501    0  0.00000000000E+00 -0.00000000000E+00 -0.32756830765E+03  0.32756830765E+03  0.00000000000E+00 0.  1.
         25    2    1    2    0    0 -0.52884365761E+02 -0.32992841849E+02 -0.29150389568E+03  0.32327821061E+03  0.12509594917E+03 0.  0.
          5    1    3    3  502    0 -0.18036340034E+02 -0.67852989463E+02 -0.82085016110E+02  0.10809606843E+03  0.41800000000E+01 0. -1.
         -5    1    3    3    0  502 -0.34848025727E+02  0.34860147613E+02 -0.20941887957E+03  0.21518214217E+03  0.41800000000E+01 0. -1.
        -11    1    1    2    0    0 -0.25388001244E+01 -0.23187408428E+02  0.63882351082E+02  0.68007765700E+02  0.00000000000E+00 0.  1.
         11    1    1    2    0    0  0.55423165885E+02  0.56180250278E+02  0.67837750833E+02  0.10406684523E+03  0.00000000000E+00 0. -1.
</event>
<event>
 7    1  0.2530765E-009  0.1613811E+03  0.7561462E-02  0.1187146E+00
          2   -1    0    0  501    0  0.00000000000E+00  0.00000000000E+00  0.63880455428E+03  0.63880455428E+03  0.00000000000E+00 0. -1.
         -2   -1    0    0    0  501 -0.00000000000E+00 -0.00000000000E+00 -0.55156029790E+02  0.55156029790E+02  0.00000000000E+00 0.  1.
         25    2    1    2    0    0 -0.27390241535E+02 -0.14646443057E+03  0.37927206858E+03  0.42625764517E+03  0.12508486444E+03 0.  0.
          5    1    3    3  502    0 -0.55415284860E+02 -0.12821712663E+03  0.20085192860E+03  0.24468235527E+03  0.41800000000E+01 0.  1.
         -5    1    3    3    0  502  0.28025043325E+02 -0.18247303937E+02  0.17842013997E+03  0.18157528990E+03  0.41800000000E+01 0.  1.
        -11    1    1    2    0    0  0.14441280915E+02  0.51940746281E+02  0.15495287017E+02  0.56093632780E+02  0.00000000000E+00 0.  1.
         11    1    1    2    0    0  0.12948960619E+02  0.94523684287E+02  0.18888116890E+03  0.21160930612E+03  0.00000000000E+00 0. -1.
</event>
<event>
 7    1  0.2530765E-009  0.7115285E+02  0.7561462E-02  0.1356216E+00
         -1   -1    0    0    0  501 -0.00000000000E+00  0.00000000000E+00  0.37605971002E+02  0.37605971002E+02  0.00000000000E+00 0.  1.
          1   -1    0    0  501    0  0.00000000000E+00 -0.00000000000E+00 -0.37805275172E+03  0.37805275172E+03  0.00000000000E+00 0. -1.
         25    2    1    2    0    0  0.35200080845E+02  0.19354651773E+02 -0.24121272602E+03  0.27467926313E+03  0.12510583584E+03 0.  0.
          5    1    3    3  502    0  0.40405552348E+01  0.11652190595E+02  0.13008116934E+02  0.18406062546E+02  0.41800000000E+01 0.  1.
         -5    1    3    3    0  502  0.31159525610E+02  0.77024611787E+01 -0.25422084295E+03  0.25627320058E+03  0.41800000000E+01 0.  1.
        -11    1    1    2    0    0 -0.45947131269E+02  0.24286095305E+02 -0.70684143424E+02  0.87733696084E+02  0.00000000000E+00 0. -1.
         11    1    1    2    0    0  0.10747050424E+02 -0.43640747079E+02 -0.28549911281E+02  0.53245763518E+02  0.00000000000E+00 0.  1.
</event>
<event>
 7    1  0.2530765E-009  0.8059746E+02  0.7561462E-02  0.1327364E+00
          1   -1    0    0  501    0  0.00000000000E+00  0.00000000000E+00  0.32087046799E+03  0.32087046799E+03  0.00000000000E+00 0. -1.
         -1   -1    0    0    0  501 -0.00000000000E+00 -0.00000000000E+00 -0.45231017025E+02  0.45231017025E+02  0.00000000000E+00 0.  1.
         25    2    1    2    0    0 -0.14338215033E+02 -0.47669322325E+02  0.16391777956E+03  0.21212074747E+03  0.12509286291E+03 0.  0.
          5    1    3    3  502    0 -0.18369590184E+01  0.40149256243E+01 -0.19854388666E+02  0.20764469545E+02  0.41800000000E+01 0.  1.
         -5    1    3    3    0  502 -0.12501256015E+02 -0.51684247949E+02  0.18377216822E+03  0.19135627793E+03  0.41800000000E+01 0.  1.
        -11    1    1    2    0    0 -0.18129953266E+02  0.63225664436E+02  0.50368223226E+02  0.82844056876E+02  0.00000000000E+00 0.  1.
         11    1    1    2    0    0  0.32468168299E+02 -0.15556342111E+02  0.61353448178E+02  0.71136680664E+02  0.00000000000E+00 0. -1.
</event>
<event>
 7    1  0.2530765E-009  0.9436907E+02  0.7561462E-02  0.1292603E+00
         -1   -1    0    0    0  501 -0.00000000000E+00  0.00000000000E+00  0.19718754472E+02  0.19718754472E+02  0.00000000000E+00 0.  1.
          1   -1    0    0  501    0  0.00000000000E+00 -0.00000000000E+00 -0.67852084366E+03  0.67852084366E+03  0.00000000000E+00 0. -1.
         25    2    1    2    0    0 -0.24953390567E+02 -0.19761286126E+02 -0.42490529467E+03  0.44407454137E+03  0.12507801057E+03 0.  0.
          5    1    3    3  502    0 -0.60648768005E+02 -0.30761223820E+02 -0.37739218275E+03  0.38349296989E+03  0.41800000000E+01 0. -1.
         -5    1    3    3    0  502  0.35695377437E+02  0.10999937694E+02 -0.47513111921E+02  0.60581571489E+02  0.41800000000E+01 0. -1.
        -11    1    1    2    0    0 -0.26166358593E+02 -0.43073060699E+01 -0.15424404319E+03  0.15650704798E+03  0.00000000000E+00 0. -1.
         11    1    1    2    0    0  0.51119749160E+02  0.24068592196E+02 -0.79652751324E+02  0.97658008775E+02  0.00000000000E+00 0.  1.
</event>
<event>
 7    1  0.2530765E-009  0.1004987E+03  0.7561462E-02  0.1279251E+00
         -1   -1    0    0    0  501 -0.00000000000E+00  0.00000000000E+00  0.26348212215E+03  0.26348212215E+03  0.00000000000E+00 0.  1.
          1   -1    0    0  501    0  0.00000000000E+00 -0.00000000000E+00 -0.67472235778E+02  0.67472235778E+02  0.00000000000E+00 0. -1.
         25    2    1    2    0    0 -0.66927733462E+02 -0.13348087717E+02  0.65711617031E+02  0.15691624721E+03  0.12508876477E+03 0.  0.
          5    1    3    3  502    0  0.19843608218E+02 -0.32041302260E+02  0.55855474060E+02  0.67510889641E+02  0.41800000000E+01 0. -1.
         -5    1    3    3    0  502 -0.86771341680E+02  0.18693214543E+02  0.98561429711E+01  0.89405357564E+02  0.41800000000E+01 0. -1.
        -11    1    1    2    0    0  0.43159713527E+02 -0.59939360414E+01  0.36401215019E+01  0.43725720412E+02  0.00000000000E+00 0. -1.
         11    1    1    2    0    0  0.23768019935E+02  0.19342023759E+02  0.12665814784E+03  0.13031239031E+03  0.00000000000E+00 0.  1.
</event>
<event>
 7    1  0.2530765E-009  0.2224672E+03  0.7561462E-02  0.1132057E+00
         -2   -1    0    0    0  501 -0.00000000000E+00  0.00000000000E+00  0.81198115929E+02  0.81198115929E+02  0.00000000000E+00 0.  1.
          2   -1    0    0  501    0  0.00000000000E+00 -0.00000000000E+00 -0.64044710930E+03  0.64044710930E+03  0.00000000000E+00 0. -1.
         25    2    1    2    0    0 -0.19025734036E+03 -0.52997108350E+02 -0.23623820539E+03  0.33235960440E+03  0.12509143814E+03 0.  0.
          5    1    3    3  502    0  0.70308851613E+01 -0.34008773310E+02 -0.27597077192E+02  0.44554473151E+02  0.41800000000E+01 0.  1.
         -5    1    3    3    0  502 -0.19728822552E+03 -0.18988335039E+02 -0.20864112820E+03  0.28780513125E+03  0.41800000000E+01 0.  1.
        -11    1    1    2    0    0  0.57586601031E+02  0.54134168449E+02 -0.16505355674E+03  0.18300109673E+03  0.00000000000E+00 0.  1.
         11    1    1    2    0    0  0.13267073933E+03 -0.11370600990E+01 -0.15795723123E+03  0.20628452409E+03  0.00000000000E+00 0. -1.
</event>
<event>
 7    1  0.2530765E-009  0.1415338E+03  0.7561462E-02  0.1211280E+00
          1   -1    0    0  501    0  0.00000000000E+00  0.00000000000E+00  0.25362695446E+03  0.25362695446E+03  0.00000000000E+00 0. -1.
         -1   -1    0    0    0  501 -0.00000000000E+00 -0.00000000000E+00 -0.10679742506E+03  0.10679742506E+03  0.00000000000E+00 0.  1.
         25    2    1    2    0    0 -0.46554484272E+01 -0.10948543477E+03  0.13970169229E+03  0.21720064405E+03  0.12510325063E+03 0.  0.
          5    1    3    3  502    0  0.43513142769E+02 -0.10312900175E+03  0.69832928506E+02  0.13199657154E+03  0.41800000000E+01 0.  1.
         -5    1    3    3    0  502 -0.48168591196E+02 -0.63564330211E+01  0.69868763787E+02  0.85204072507E+02  0.41800000000E+01 0.  1.
        -11    1    1    2    0    0 -0.16240005193E+02  0.96129633170E+02  0.37108815230E+02  0.10431542700E+03  0.00000000000E+00 0. -1.
         11    1    1    2    0    0  0.20895453621E+02  0.13355801600E+02 -0.29980978124E+02  0.38908308466E+02  0.00000000000E+00 0.  1.
</event>
<event>
 7    1  0.2530765E-009  0.1106758E+03  0.7561462E-02  0.1259324E+00
         -1   -1    0    0    0  501 -0.00000000000E+00  0.00000000000E+00  0.65071318767E+02  0.65071318767E+02  0.00000000000E+00 0.  1.
          1   -1    0    0  501    0  0.00000000000E+00 -0.00000000000E+00 -0.23631074947E+03  0.23631074947E+03  0.00000000000E+00 0. -1.
         25    2    1    2    0    0 -0.51795144697E+02 -0.34504106973E+01 -0.60171494933E+02  0.14819484469E+03  0.12508581391E+03 0.  0.
          5    1    3    3  502    0  0.54815131924E+01  0.47261331398E+02 -0.52846048494E+02  0.71231016235E+02  0.41800000000E+01 0. -1.
         -5    1    3    3    0  502 -0.57276657890E+02 -0.50711742095E+02 -0.73254464393E+01  0.76963828458E+02  0.41800000000E+01 0. -1.
        -11    1    1    2    0    0 -0.20285797681E+02 -0.11560055915E+02 -0.46901048329E+01  0.23814818153E+02  0.00000000000E+00 0.  1.
         11    1    1    2    0    0  0.72080942379E+02  0.15010466612E+02 -0.10637783094E+03  0.12937240539E+03  0.00000000000E+00 0. -1.
</event>
<event>
 7    1  0.2530765E-009  0.1317028E+03  0.7561462E-02  0.1224951E+00
         -2   -1    0    0    0  501 -0.00000000000E+00  0.00000000000E+00  0.67741184670E+03  0.67741184670E+03  0.00000000000E+00 0.  1.
          2   -1    0    0  501    0  0.00000000000E+00 -0.00000000000E+00 -0.28004670975E+02  0.28004670975E+02  0.00000000000E+00 0. -1.
         25    2    1    2    0    0 -0.42450842869E+02 -0.71333936396E+02  0.39824046171E+03  0.42559767831E+03  0.12508922375E+03 0.  0.
          5    1    3    3  502    0 -0.36279626995E+01  0.32298580877E+02  0.46879544394E+02  0.57197242264E+02  0.41800000000E+01 0.  1.
         -5    1    3    3    0  502 -0.38822880169E+02 -0.10363251727E+03  0.35136091732E+03  0.36840043605E+03  0.41800000000E+01 0.  1.
        -11    1    1    2    0    0  0.50312685141E+02  0.22512840140E+01  0.13908948845E+03  0.14792673985E+03  0.00000000000E+00 0.  1.
         11    1    1    2    0    0 -0.78618422721E+01  0.69082652382E+02  0.11207722556E+03  0.13189209951E+03  0.00000000000E+00 0. -1.
</event>
<event>
 7    1  0.2530765E-009  0.3425557E+03  0.7561462E-02  0.1065713E+00
          2   -1    0    0  501    0  0.00000000000E+00  0.00000000000E+00  0.33657369631E+03  0.33657369631E+03  0.00000000000E+00 0. -1.
         -2   -1    0    0    0  501 -0.00000000000E+00 -0.00000000000E+00 -0.37938979484E+03  0.37938979484E+03  0.00000000000E+00 0.  1.
         25    2    1    2    0    0 -0.11032507517E+03 -0.32018941236E+03  0.10211361648E+02  0.36117058986E+03  0.12508813325E+03 0.  0.
          5    1    3    3  502    0 -0.50425102129E+02 -0.20672870807E+03  0.63616293604E+02  0.22213499246E+03  0.41800000000E+01 0. -1.
         -5    1    3    3    0  502 -0.59899973042E+02 -0.11346070429E+03 -0.53404931956E+02  0.13903559740E+03  0.41800000000E+01 0. -1.
        -11    1    1    2    0    0  0.13836781148E+02  0.12913313534E+03 -0.54258398264E+02  0.14075083281E+03  0.00000000000E+00 0.  1.
         11    1    1    2    0    0  0.96488294024E+02  0.19105627702E+03  0.12309380856E+01  0.21404206848E+03  0.00000000000E+00 0. -1.
</event>
<event>
 7    1  0.2530765E-009  0.8391304E+02  0.7561462E-02  0.1318300E+00
          2   -1    0    0  501    0  0.00000000000E+00  0.00000000000E+00  0.27571539232E+03  0.27571539232E+03  0.00000000000E+00 0. -1.
         -2   -1    0    0    0  501 -0.00000000000E+00 -0.00000000000E+00 -0.49158754217E+02  0.49158754217E+02  0.00000000000E+00 0.  1.
         25    2    1    2    0    0 -0.25140755833E+00 -0.61124458663E+01  0.17553814627E+03  0.21563574603E+03  0.12509080290E+03 0.  0.
          5    1    3    3  502    0 -0.27794840484E+02 -0.31070208924E+02  0.63661078567E+01  0.42378187424E+02  0.41800000000E+01 0. -1.
         -5    1    3    3    0  502  0.27543432925E+02  0.24957763058E+02  0.16917203841E+03  0.17325755861E+03  0.41800000000E+01 0. -1.
        -11    1    1    2    0    0  0.37706196522E+02 -0.20177061542E+02  0.29431858963E+01  0.42866460221E+02  0.00000000000E+00 0. -1.
         11    1    1    2    0    0 -0.37454788964E+02  0.26289507408E+02  0.48075305939E+02  0.66371940285E+02  0.00000000000E+00 0.  1.
</event>
<event>
 7    1  0.2530765E-009  0.1559008E+03  0.7561462E-02  0.1193404E+00
          2   -1    0    0  501    0  0.00000000000E+00  0.00000000000E+00  0.25526918068E+03  0.25526918068E+03  0.00000000000E+00 0. -1.
         -2   -1    0    0    0  501 -0.00000000000E+00 -0.00000000000E+00 -0.10564489742E+03  0.10564489742E+03  0.00000000000E+00 0.  1.
         25    2    1    2    0    0 -0.91838669816E+02 -0.66025316330E+02  0.13399541610E+03  0.21539921095E+03  0.12509342458E+03 0.  0.
          5    1    3    3  502    0  0.15997249189E+02 -0.57314837230E+02  0.57337816982E+02  0.82740559610E+02  0.41800000000E+01 0. -1.
         -5    1    3    3    0  502 -0.10783591901E+03 -0.87104790999E+01  0.76657599115E+02  0.13265865134E+03  0.41800000000E+01 0. -1.
        -11    1    1    2    0    0  0.83313084331E+02  0.87474060689E+02  0.74593027693E+01  0.12103066765E+03  0.00000000000E+00 0. -1.
         11    1    1    2    0    0  0.85255854856E+01 -0.21448744359E+02  0.81695643984E+01  0.24484199495E+02  0.00000000000E+00 0.  1.
</event>
<event>
 7    1  0.2530765E-009  0.8611405E+02  0.7561462E-02  0.1312545E+00
         -1   -1    0    0    0  501 -0.00000000000E+00  0.00000000000E+00  0.18006878892E+02  0.18006878892E+02  0.00000000000E+00 0.  1.
          1   -1    0    0  501    0  0.00000000000E+00 -0.00000000000E+00 -0.75556265437E+03  0.75556265437E+03  0.00000000000E+00 0. -1.
         25    2    1    2    0    0 -0.20099124251E+02 -0.29469416857E+02 -0.49156838637E+03  0.50848736057E+03  0.12508995188E+03 0.  0.
          5    1    3    3  502    0  0.23162048207E+02 -0.42833402224E+02 -0.75478439356E+02  0.89920231488E+02  0.41800000000E+01 0. -1.
         -5    1    3    3    0  502 -0.43261172458E+02  0.13363985367E+02 -0.41608994701E+03  0.41856712909E+03  0.41800000000E+01 0. -1.
        -11    1    1    2    0    0 -0.24767389498E+02  0.10828946567E+01 -0.17096801014E+02  0.30114728096E+02  0.00000000000E+00 0.  1.
         11    1    1    2    0    0  0.44866513749E+02  0.28386522201E+02 -0.22889058810E+03  0.23496744460E+03  0.00000000000E+00 0. -1.
</event>
<event>
 7    1  0.2530765E-009  0.1076252E+03  0.7561462E-02  0.1265032E+00
         -2   -1    0    0    0  501 -0.00000000000E+00  0.00000000000E+00  0.63653653972E+03  0.63653653972E+03  0.00000000000E+00 0. -1.
          2   -1    0    0  501    0  0.00000000000E+00 -0.00000000000E+00 -0.26396701007E+02  0.26396701007E+02  0.00000000000E+00 0.  1.
         25    2    1    2    0    0 -0.34343965217E+02 -0.29757587956E+02  0.48330775375E+03  0.50129746336E+03  0.12509092674E+03 0.  0.
          5    1    3    3  502    0 -0.78734488588E+02 -0.32141879423E+01  0.33519314298E+03  0.34435645224E+03  0.41800000000E+01 0. -1.
         -5    1    3    3    0  502  0.44390523371E+02 -0.26543400014E+02  0.14811461077E+03  0.15694101112E+03  0.41800000000E+01 0. -1.
        -11    1    1    2    0    0  0.38405056826E+01 -0.23102710986E+02  0.83668464395E+02  0.86884386819E+02  0.00000000000E+00 0. -1.
         11    1    1    2    0    0  0.30503459534E+02  0.52860298942E+02  0.43163620572E+02  0.74751390547E+02  0.00000000000E+00 0.  1.
</event>
<event>
 7    1  0.2530765E-009  0.4967939E+02  0.7561462E-02  0.1447079E+00
          1   -1    0    0  501    0  0.00000000000E+00  0.00000000000E+00  0.10572381261E+03  0.10572381261E+03  0.00000000000E+00 0. -1.
         -1   -1    0    0    0  501 -0.00000000000E+00 -0.00000000000E+00 -0.17029103799E+03  0.17029103799E+03  0.00000000000E+00 0.  1.
         25    2    1    2    0    0 -0.20755523659E+02 -0.43223420863E+02 -0.95068236732E+02  0.16427041312E+03  0.12509093939E+03 0.  0.
          5    1    3    3  502    0 -0.14552214641E+02 -0.12359494068E+02 -0.12143267578E+03  0.12299549257E+03  0.41800000000E+01 0.  1.
         -5    1    3    3    0  502 -0.62033090187E+01 -0.30863926794E+02  0.26364439049E+02  0.41274920549E+02  0.41800000000E+01 0.  1.
        -11    1    1    2    0    0  0.89059528600E+01  0.22268323992E+02  0.65223438620E+02  0.69493101781E+02  0.00000000000E+00 0. -1.
         11    1    1    2    0    0  0.11849570800E+02  0.20955096871E+02 -0.34722427274E+02  0.42251335705E+02  0.00000000000E+00 0.  1.
</event>
<event>
 7    1  0.2530765E-009  0.1140339E+03  0.7561462E-02  0.1253277E+00
         -2   -1    0    0    0  501 -0.00000000000E+00  0.00000000000E+00  0.42225135482E+02  0.42225135482E+02  0.00000000000E+00 0.  1.
          2   -1    0    0  501    0  0.00000000000E+00 -0.00000000000E+00 -0.45591262830E+03  0.45591262830E+03  0.00000000000E+00 0. -1.
         25    2    1    2    0    0 -0.79788171718E+01 -0.40021653202E+02 -0.89242899750E+02  0.15898937059E+03  0.12509168860E+03 0.  0.
          5    1    3    3  502    0 -0.66017356535E+02 -0.29489647174E+02 -0.50528531537E+02  0.88309317478E+02  0.41800000000E+01 0. -1.
         -5    1    3    3    0  502  0.58038539363E+02 -0.10532006028E+02 -0.38714368214E+02  0.70680053116E+02  0.41800000000E+01 0. -1.
        -11    1    1    2    0    0  0.29659011897E+02 -0.17913948454E+02 -0.15331586258E+03  0.15718244258E+03  0.00000000000E+00 0. -1.
         11    1    1    2    0    0 -0.21680194725E+02  0.57935601656E+02 -0.17112873048E+03  0.18196595060E+03  0.00000000000E+00 0.  1.
</event>
<event>
 7    1  0.2530765E-009  0.2209664E+03  0.7561462E-02  0.1133165E+00
         -2   -1    0    0    0  501 -0.00000000000E+00  0.00000000000E+00  0.34545213212E+02  0.34545213212E+02  0.00000000000E+00 0.  1.
          2   -1    0    0  501    0  0.00000000000E+00 -0.00000000000E+00 -0.15158405105E+04  0.15158405105E+04  0.00000000000E+00 0. -1.
         25    2    1    2    0    0  0.22647727678E+02 -0.19211513189E+03 -0.95001804056E+03  0.97754916556E+03  0.12508777014E+03 0.  0.
          5    1    3    3  502    0 -0.25405979783E+02 -0.17766147324E+03 -0.71429452264E+03  0.73650743401E+03  0.41800000000E+01 0. -1.
         -5    1    3    3    0  502  0.48053707461E+02 -0.14453658644E+02 -0.23572351792E+03  0.24104173155E+03  0.41800000000E+01 0. -1.
        -11    1    1    2    0    0  0.11037326042E+02  0.17295778371E+03 -0.46231863958E+03  0.49373549803E+03  0.00000000000E+00 0.  1.
         11    1    1    2    0    0 -0.33685053719E+02  0.19157348179E+02 -0.68958617185E+02  0.79101060153E+02  0.00000000000E+00 0. -1.
</event>
<event>
 7    1  0.2530765E-009  0.1040512E+03  0.7561462E-02  0.1272000E+00
         -1   -1    0    0    0  501 -0.00000000000E+00  0.00000000000E+00  0.29471809384E+02  0.29471809384E+02  0.00000000000E+00 0.  1.
          1   -1    0    0  501    0  0.00000000000E+00 -0.00000000000E+00 -0.54524579273E+03  0.54524579273E+03  0.00000000000E+00 0. -1.
         25    2    1    2    0    0  0.84224142833E+01  0.89500808996E+01 -0.15154484472E+03  0.19689348763E+03  0.12510061751E+03 0.  0.
          5    1    3    3  502    0  0.41774262387E+02 -0.38772628753E+02 -0.36280682445E+02  0.67691698584E+02  0.41800000000E+01 0. -1.
         -5    1    3    3    0  502 -0.33351848104E+02  0.47722709653E+02 -0.11526416227E+03  0.12920178905E+03  0.41800000000E+01 0. -1.
        -11    1    1    2    0    0  0.14206294620E+02 -0.46566085353E+02 -0.11695104077E+03  0.12667977364E+03  0.00000000000E+00 0.  1.
         11    1    1    2    0    0 -0.22628708903E+02  0.37616004453E+02 -0.24727809785E+03  0.25114434084E+03  0.00000000000E+00 0. -1.
</event>
<event>
 7    1  0.2530765E-009  0.1168166E+03  0.7561462E-02  0.1248443E+00
         -1   -1    0    0    0  501 -0.00000000000E+00  0.00000000000E+00  0.21248454602E+02  0.21248454602E+02  0.00000000000E+00 0.  1.
          1   -1    0    0  501    0  0.00000000000E+00 -0.00000000000E+00 -0.11821461991E+04  0.11821461991E+04  0.00000000000E+00 0. -1.
         25    2    1    2    0    0 -0.31201237095E+02 -0.92411347495E+02 -0.86010388008E+03  0.87461093484E+03  0.12510886650E+03 0.  0.
          5    1    3    3  502    0 -0.43069167294E+02 -0.69447214632E+02 -0.23281104297E+03  0.24677180333E+03  0.41800000000E+01 0. -1.
         -5    1    3    3    0  502  0.11867930199E+02 -0.22964132862E+02 -0.62729283711E+03  0.62783913151E+03  0.41800000000E+01 0. -1.
        -11    1    1    2    0    0  0.46979357096E+02  0.19234907411E+02 -0.72316214275E+02  0.88355398835E+02  0.00000000000E+00 0.  1.
         11    1    1    2    0    0 -0.15778120001E+02  0.73176440084E+02 -0.22847765011E+03  0.24042831999E+03  0.00000000000E+00 0. -1.
</event>
<event>
 7    1  0.2658982E-009  0.1256162E+03  0.7561462E-02  0.1234109E+00
          2   -1    0    0  501    0  0.00000000000E+00  0.00000000000E+00  0.10218082246E+04  0.10218082246E+04  0.00000000000E+00 0. -1.
         -2   -1    0    0    0  501 -0.00000000000E+00 -0.00000000000E+00 -0.22649836230E+02  0.22649836230E+02  0.00000000000E+00 0.  1.
         25    2    1    2    0    0 -0.78381484444E+02  0.48939437584E+01  0.78306405687E+03  0.79687342356E+03  0.12510127186E+03 0.  0.
          5    1    3    3  502    0 -0.13485478992E+02  0.57879609538E+02  0.23537254062E+03  0.24279541310E+03  0.41800000000E+01 0.  1.
         -5    1    3    3    0  502 -0.64896005452E+02 -0.52985665780E+02  0.54769151625E+03  0.55407801046E+03  0.41800000000E+01 0.  1.
        -11    1    1    2    0    0  0.53253755605E+02  0.32745540330E+02  0.66399273084E+02  0.91198116009E+02  0.00000000000E+00 0.  1.
         11    1    1    2    0    0  0.25127728840E+02 -0.37639484089E+02  0.14969505844E+03  0.15638652129E+03  0.00000000000E+00 0. -1.
</event>
<event>
 7    1  0.2530765E-009  0.1077510E+03  0.7561462E-02  0.1264792E+00
         -2   -1    0    0    0  501 -0.00000000000E+00  0.00000000000E+00  0.29952956143E+02  0.29952956143E+02  0.00000000000E+00 0.  1.
          2   -1    0    0  501    0  0.00000000000E+00 -0.00000000000E+00 -0.79605738960E+03  0.79605738960E+03  0.00000000000E+00 0. -1.
         25    2    1    2    0    0 -0.29641881384E+02  0.80399944799E+02 -0.23703055863E+03  0.28137726015E+03  0.12508750758E+03 0.  0.
          5    1    3    3  502    0 -0.29625742538E+02  0.75808843205E+02 -0.52944926182E+02  0.97186948391E+02  0.41800000000E+01 0. -1.
         -5    1    3    3    0  502 -0.16138845948E-01  0.45911015934E+01 -0.18408563245E+03  0.18419031176E+03  0.41800000000E+01 0. -1.
        -11    1    1    2    0    0  0.59131813705E+02 -0.23354678387E+02 -0.22245465088E+03  0.23136137122E+03  0.00000000000E+00 0.  1.
         11    1    1    2    0    0 -0.29489932321E+02 -0.57045266412E+02 -0.30661922395E+03  0.31327171437E+03  0.00000000000E+00 0. -1.
</event>
<event>
 7    1  0.2530765E-009  0.1174957E+03  0.7561462E-02  0.1247287E+00
         -1   -1    0    0    0  501 -0.00000000000E+00  0.00000000000E+00  0.38878890567E+02  0.38878890567E+02  0.00000000000E+00 0.  1.
          1   -1    0    0  501    0  0.00000000000E+00 -0.00000000000E+00 -0.36937304399E+03  0.36937304399E+03  0.00000000000E+00 0. -1.
         25    2    1    2    0    0 -0.50257321968E+02 -0.18300630164E+01 -0.20337924457E+03  0.24400753673E+03  0.12508962113E+03 0.  0.
          5    1    3    3  502    0 -0.12708338495E+02 -0.60850502805E+02 -0.72866770547E+02  0.95871394112E+02  0.41800000000E+01 0.  1.
         -5    1    3    3    0  502 -0.37548983473E+02  0.59020439788E+02 -0.13051247403E+03  0.14813614262E+03  0.41800000000E+01 0.  1.
        -11    1    1    2    0    0  0.30392864839E+02  0.45452655264E+02 -0.81021152756E+02  0.97745062779E+02  0.00000000000E+00 0.  1.
         11    1    1    2    0    0  0.19864457129E+02 -0.43622592247E+02 -0.46093756092E+02  0.66499335050E+02  0.00000000000E+00 0. -1.
</event>
<event>
 7    1  0.2530765E-009  0.5394327E+02  0.7561462E-02  0.1425163E+00
          3   -1    0    0  501    0  0.00000000000E+00  0.00000000000E+00  0.19292567580E+03  0.19292567580E+03  0.00000000000E+00 0. -1.
         -3   -1    0    0    0  501 -0.00000000000E+00 -0.00000000000E+00 -0.14832860078E+03  0.14832860078E+03  0.00000000000E+00 0.  1.
         25    2    1    2    0    0 -0.47166310804E+02 -0.13784164494E+01  0.14431816525E+03  0.19672985478E+03  0.12509333329E+03 0.  0.
          5    1    3    3  502    0 -0.48101562523E+02 -0.11212385837E+02 -0.23946615471E+01  0.49625444252E+02  0.41800000000E+01 0. -1.
         -5    1    3    3    0  502  0.93525171854E+00  0.98339693875E+01  0.14671282680E+03  0.14710441053E+03  0.41800000000E+01 0. -1.
        -11    1    1    2    0    0  0.28707648413E+02  0.38669977107E+01 -0.11613828862E+03  0.11969621895E+03  0.00000000000E+00 0.  1.
         11    1    1    2    0    0  0.18458662391E+02 -0.24885812612E+01  0.16417198389E+02  0.24828202853E+02  0.00000000000E+00 0. -1.
</event>
<event>
 7    1  0.2530765E-009  0.2714091E+03  0.7561462E-02  0.1100476E+00
         -2   -1    0    0    0  501 -0.00000000000E+00  0.00000000000E+00  0.12125032731E+03  0.12125032731E+03  0.00000000000E+00 0.  1.
          2   -1    0    0  501    0  0.00000000000E+00 -0.00000000000E+00 -0.81227169421E+03  0.81227169421E+03  0.00000000000E+00 0. -1.
         25    2    1    2    0    0  0.13058958007E+02  0.26290418673E+03 -0.54766315475E+03  0.62037994809E+03  0.12508877300E+03 0.  0.
          5    1    3    3  502    0 -0.37068224227E+01  0.13446893312E+02  0.36477705872E+01  0.15011265852E+02  0.41800000000E+01 0. -1.
         -5    1    3    3    0  502  0.16765780430E+02  0.24945729342E+03 -0.55131092534E+03  0.60536868223E+03  0.41800000000E+01 0. -1.
        -11    1    1    2    0    0 -0.43996082913E+02 -0.68915825826E+02 -0.47550804550E+02  0.94583959392E+02  0.00000000000E+00 0. -1.
         11    1    1    2    0    0  0.30937124906E+02 -0.19398836090E+03 -0.95807407599E+02  0.21855811404E+03  0.00000000000E+00 0.  1.
</event>
<event>
 7    1  0.2530765E-009  0.3024329E+03  0.7561462E-02  0.1084031E+00
         -2   -1    0    0    0  501 -0.00000000000E+00  0.00000000000E+00  0.13213001440E+03  0.13213001440E+03  0.00000000000E+00 0. -1.
          2   -1    0    0  501    0  0.00000000000E+00 -0.00000000000E+00 -0.71937721248E+03  0.71937721248E+03  0.00000000000E+00 0.  1.
         25    2    1    2    0    0 -0.28776876376E+03  0.12321974721E+02 -0.31838118983E+03  0.44718721703E+03  0.12508849898E+03 0.  0.
          5    1    3    3  502    0  0.64813353062E+01  0.17253161847E+02 -0.12251151617E+02  0.22522042914E+02  0.41800000000E+01 0.  1.
         -5    1    3    3    0  502 -0.29425009906E+03 -0.49311871264E+01 -0.30613003821E+03  0.42466517411E+03  0.41800000000E+01 0.  1.
        -11    1    1    2    0    0  0.14994352048E+02 -0.11457021258E+02  0.31064291977E+01  0.19124430235E+02  0.00000000000E+00 0.  1.
         11    1    1    2    0    0  0.27277441171E+03 -0.86495346280E+00 -0.27197243745E+03  0.38519557962E+03  0.00000000000E+00 0. -1.
</event>
<event>
 7    1  0.2530765E-009  0.1366211E+03  0.7561462E-02  0.1217949E+00
          1   -1    0    0  501    0  0.00000000000E+00  0.00000000000E+00  0.12698454775E+03  0.12698454775E+03  0.00000000000E+00 0. -1.
         -1   -1    0    0    0  501 -0.00000000000E+00 -0.00000000000E+00 -0.18125257532E+03  0.18125257532E+03  0.00000000000E+00 0.  1.
         25    2    1    2    0    0 -0.60944504047E+02  0.85703652819E+02 -0.43157490507E+02  0.16902589273E+03  0.12509130564E+03 0.  0.
          5    1    3    3  502    0  0.20568852528E+02  0.10397878636E+02  0.28477209424E+02  0.36872990536E+02  0.41800000000E+01 0. -1.
         -5    1    3    3    0  502 -0.81513356575E+02  0.75305774183E+02 -0.71634699931E+02  0.13215290220E+03  0.41800000000E+01 0. -1.
        -11    1    1    2    0    0 -0.12272101214E+02 -0.59885213341E+02 -0.45255208286E+01  0.61297011215E+02  0.00000000000E+00 0.  1.
         11    1    1    2    0    0  0.73216605260E+02 -0.25818439479E+02 -0.65850162378E+01  0.77914219125E+02  0.00000000000E+00 0. -1.
</event>
<event>
 7    1  0.2530765E-009  0.1897357E+03  0.7561462E-02  0.1158700E+00
         -2   -1    0    0    0  501 -0.00000000000E+00  0.00000000000E+00  0.24875919454E+02  0.24875919454E+02  0.00000000000E+00 0.  1.
          2   -1    0    0  501    0  0.00000000000E+00 -0.00000000000E+00 -0.17695091665E+04  0.17695091665E+04  0.00000000000E+00 0. -1.
         25    2    1    2    0    0  0.52722880650E+02  0.15228223284E+03 -0.12288611300E+04  0.12456790651E+04  0.12508827218E+03 0.  0.
          5    1    3    3  502    0  0.83361918716E+02  0.88803911899E+02 -0.95982578660E+03  0.96753209625E+03  0.41800000000E+01 0.  1.
         -5    1    3    3    0  502 -0.30639038066E+02  0.63478320938E+02 -0.26903534339E+03  0.27814696884E+03  0.41800000000E+01 0.  1.
        -11    1    1    2    0    0 -0.64742034020E+02 -0.16007058707E+03 -0.46818052042E+03  0.49900613575E+03  0.00000000000E+00 0.  1.
         11    1    1    2    0    0  0.12019153370E+02  0.77883542354E+01 -0.47591596617E+02  0.49699885090E+02  0.00000000000E+00 0. -1.
</event>
<event>
 7    1  0.2530765E-009  0.1537772E+03  0.7561462E-02  0.1195907E+00
          2   -1    0    0  501    0  0.00000000000E+00  0.00000000000E+00  0.10111003783E+03  0.10111003783E+03  0.00000000000E+00 0. -1.
         -2   -1    0    0    0  501 -0.00000000000E+00 -0.00000000000E+00 -0.30116169559E+03  0.30116169559E+03  0.00000000000E+00 0.  1.
         25    2    1    2    0    0  0.87019150959E+01 -0.12953463385E+03 -0.58363461518E+02  0.18949555917E+03  0.12508928255E+03 0.  0.
          5    1    3    3  502    0 -0.17935094741E+02  0.13528723077E+02  0.14125869574E+02  0.26864596827E+02  0.41800000000E+01 0. -1.
         -5    1    3    3    0  502  0.26637009837E+02 -0.14306335693E+03 -0.72489331092E+02  0.16263096234E+03  0.41800000000E+01 0. -1.
        -11    1    1    2    0    0 -0.22873188317E+02  0.11971486066E+03 -0.15029764209E+03  0.19350506925E+03  0.00000000000E+00 0.  1.
         11    1    1    2    0    0  0.14171273221E+02  0.98197731890E+01  0.86094458499E+01  0.19271105003E+02  0.00000000000E+00 0. -1.
</event>
<event>
 7    1  0.2530765E-009  0.1096934E+03  0.7561462E-02  0.1261139E+00
         -3   -1    0    0    0  501 -0.00000000000E+00  0.00000000000E+00  0.64012372403E+02  0.64012372403E+02  0.00000000000E+00 0.  1.
          3   -1    0    0  501    0  0.00000000000E+00 -0.00000000000E+00 -0.56272329878E+03  0.56272329878E+03  0.00000000000E+00 0. -1.
         25    2    1    2    0    0  0.36698806343E+02 -0.60028793159E+02 -0.49034660154E+03  0.51091850149E+03  0.12509063566E+03 0.  0.
          5    1    3    3  502    0 -0.79199721295E+01 -0.81821282346E+02 -0.39335567691E+03  0.40187511637E+03  0.41800000000E+01 0.  1.
         -5    1    3    3    0  502  0.44618778473E+02  0.21792489187E+02 -0.96990924630E+02  0.10904338512E+03  0.41800000000E+01 0.  1.
        -11    1    1    2    0    0 -0.88696177052E+01  0.58718877486E+02  0.31469058825E+02  0.67207725410E+02  0.00000000000E+00 0.  1.
         11    1    1    2    0    0 -0.27829188638E+02  0.13099156733E+01 -0.39833383664E+02  0.48609444283E+02  0.00000000000E+00 0. -1.
</event>
<event>
 7    1  0.2530765E-009  0.9412858E+02  0.7561462E-02  0.1293151E+00
         -1   -1    0    0    0  501 -0.00000000000E+00  0.00000000000E+00  0.13679778918E+02  0.13679778918E+02  0.00000000000E+00 0.  1.
          1   -1    0    0  501    0  0.00000000000E+00 -0.00000000000E+00 -0.12887774684E+04  0.12887774684E+04  0.00000000000E+00 0. -1.
         25    2    1    2    0    0  0.13199991324E+02 -0.13888947781E+02 -0.10711871642E+04  0.10786378103E+04  0.12510172876E+03 0.  0.
          5    1    3    3  502    0  0.32515088856E+02  0.48014988106E+02 -0.38272189770E+03  0.38711263667E+03  0.41800000000E+01 0. -1.
         -5    1    3    3    0  502 -0.19315097533E+02 -0.61903935887E+02 -0.68846526645E+03  0.69152517364E+03  0.41800000000E+01 0. -1.
        -11    1    1    2    0    0 -0.14102149939E+01  0.38142751921E+02 -0.18937666698E+03  0.19318483436E+03  0.00000000000E+00 0. -1.
         11    1    1    2    0    0 -0.11789776330E+02 -0.24253804140E+02 -0.14533858353E+02  0.30634602654E+02  0.00000000000E+00 0.  1.
</event>
<event>
 7    1  0.2530765E-009  0.1110886E+03  0.7561462E-02  0.1258567E+00
         -2   -1    0    0    0  501 -0.00000000000E+00  0.00000000000E+00  0.51321199451E+02  0.51321199451E+02  0.00000000000E+00 0.  1.
          2   -1    0    0  501    0  0.00000000000E+00 -0.00000000000E+00 -0.29136192207E+03  0.29136192207E+03  0.00000000000E+00 0. -1.
         25    2    1    2    0    0  0.15453791073E+02 -0.34906628688E+02 -0.74822743967E+02  0.15067533514E+03  0.12508925301E+03 0.  0.
          5    1    3    3  502    0  0.33610498072E+02  0.36950753340E+02 -0.53779333846E+02  0.73516752526E+02  0.41800000000E+01 0.  1.
         -5    1    3    3    0  502 -0.18156706999E+02 -0.71857382028E+02 -0.21043410120E+02  0.77158582610E+02  0.41800000000E+01 0.  1.
        -11    1    1    2    0    0 -0.68268712586E+01  0.65590740610E+02 -0.11025836422E+03  0.12847434882E+03  0.00000000000E+00 0.  1.
         11    1    1    2    0    0 -0.86269198140E+01 -0.30684111922E+02 -0.54959614437E+02  0.63533437567E+02  0.00000000000E+00 0. -1.
</event>
<event>
 7    1  0.2530765E-009  0.8053785E+02  0.7561462E-02  0.1327532E+00
         -2   -1    0    0    0  501 -0.00000000000E+00  0.00000000000E+00  0.35753382361E+03  0.35753382361E+03  0.00000000000E+00 0.  1.
          2   -1    0    0  501    0  0.00000000000E+00 -0.00000000000E+00 -0.42500270020E+02  0.42500270020E+02  0.00000000000E+00 0. -1.
         25    2    1    2    0    0 -0.32432284508E+01  0.13655200116E+02  0.27324682564E+03  0.30084760148E+03  0.12509383908E+03 0.  0.
          5    1    3    3  502    0 -0.52615022857E+02 -0.22725811036E+02  0.83274917978E+02  0.10117799900E+03  0.41800000000E+01 0.  1.
         -5    1    3    3    0  502  0.49371794406E+02  0.36381011151E+02  0.18997190766E+03  0.19966960248E+03  0.41800000000E+01 0.  1.
        -11    1    1    2    0    0 -0.36865470190E+01 -0.26921408189E+02  0.65631185753E+02  0.71033832722E+02  0.00000000000E+00 0.  1.
         11    1    1    2    0    0  0.69297754698E+01  0.13266208074E+02 -0.23844457803E+02  0.28152659424E+02  0.00000000000E+00 0. -1.
</event>
<event>
 7    1  0.2530765E-009  0.9236107E+02  0.7561462E-02  0.1297233E+00
          2   -1    0    0  501    0  0.00000000000E+00  0.00000000000E+00  0.20719161076E+03  0.20719161076E+03  0.00000000000E+00 0. -1.
         -2   -1    0    0    0  501 -0.00000000000E+00 -0.00000000000E+00 -0.10016889301E+03  0.10016889301E+03  0.00000000000E+00 0.  1.
         25    2    1    2    0    0 -0.18604735320E+02 -0.83020832191E+02  0.15793701524E+02  0.15210324631E+03  0.12508941513E+03 0.  0.
          5    1    3    3  502    0 -0.27928004683E+02 -0.84640558793E+02 -0.38248766648E+02  0.97079545675E+02  0.41800000000E+01 0. -1.
         -5    1    3    3    0  502  0.93232693625E+01  0.16197266012E+01  0.54042468173E+02  0.55023700640E+02  0.41800000000E+01 0. -1.
        -11    1    1    2    0    0  0.14372453894E+02  0.69944279847E+02  0.90966029508E+01  0.71982761127E+02  0.00000000000E+00 0.  1.
         11    1    1    2    0    0  0.42322814266E+01  0.13076552345E+02  0.82132413283E+02  0.83274496330E+02  0.00000000000E+00 0. -1.
</event>
<event>
 7    1  0.2530765E-009  0.2157925E+03  0.7561462E-02  0.1137059E+00
         -2   -1    0    0    0  501 -0.00000000000E+00  0.00000000000E+00  0.84750565289E+02  0.84750565289E+02  0.00000000000E+00 0.  1.
          2   -1    0    0  501    0  0.00000000000E+00 -0.00000000000E+00 -0.68252070386E+03  0.68252070386E+03  0.00000000000E+00 0. -1.
         25    2    1    2    0    0 -0.75255690550E+02 -0.16289206218E+03 -0.45470413314E+03  0.50458014456E+03  0.12509208892E+03 0.  0.
          5    1    3    3  502    0 -0.10739945280E+03 -0.13892307265E+03 -0.39770377672E+03  0.43476433730E+03  0.41800000000E+01 0. -1.
         -5    1    3    3    0  502  0.32143762250E+02 -0.23968989536E+02 -0.57000356421E+02  0.69815807258E+02  0.41800000000E+01 0. -1.
        -11    1    1    2    0    0 -0.11678760390E+02  0.11650409773E+03 -0.10429110832E+03  0.15679997929E+03  0.00000000000E+00 0. -1.
         11    1    1    2    0    0  0.86934450940E+02  0.46387964455E+02 -0.38774897119E+02  0.10589114530E+03  0.00000000000E+00 0.  1.
</event>
<event>
 7    1  0.2530765E-009  0.1073308E+03  0.7561462E-02  0.1265594E+00
         -3   -1    0    0    0  501 -0.00000000000E+00  0.00000000000E+00  0.13984264243E+03  0.13984264243E+03  0.00000000000E+00 0.  1.
          3   -1    0    0  501    0  0.00000000000E+00 -0.00000000000E+00 -0.84316464179E+02  0.84316464179E+02  0.00000000000E+00 0. -1.
         25    2    1    2    0    0  0.77627164952E+01  0.88582827723E+01  0.45492551373E+02  0.13362098566E+03  0.12508503762E+03 0.  0.
          5    1    3    3  502    0  0.25401113477E+02  0.63049129475E+02  0.19456548473E+02  0.70826823816E+02  0.41800000000E+01 0.  1.
         -5    1    3    3    0  502 -0.17638396982E+02 -0.54190846703E+02  0.26036002901E+02  0.62794161842E+02  0.41800000000E+01 0.  1.
        -11    1    1    2    0    0 -0.42296151452E+02  0.17702133535E+02  0.88682871841E-01  0.45851257605E+02  0.00000000000E+00 0.  1.
         11    1    1    2    0    0  0.34533434957E+02 -0.26560416307E+02  0.99449440046E+01  0.44686863344E+02  0.00000000000E+00 0. -1.
</event>
<event>
 7    1  0.2530765E-009  0.1720819E+03  0.7561462E-02  0.1175694E+00
          4   -1    0    0  501    0  0.00000000000E+00  0.00000000000E+00  0.28258748790E+03  0.28258748790E+03  0.00000000000E+00 0. -1.
         -4   -1    0    0    0  501 -0.00000000000E+00 -0.00000000000E+00 -0.12739895975E+03  0.12739895975E+03  0.00000000000E+00 0.  1.
         25    2    1    2    0    0 -0.12146245065E+03  0.90458163143E+02  0.11812184064E+03  0.22920698364E+03  0.12508903197E+03 0.  0.
          5    1    3    3  502    0 -0.97095084769E+02  0.11953094578E+03  0.74108993894E+02  0.17095238478E+03  0.41800000000E+01 0.  1.
         -5    1    3    3    0  502 -0.24367365883E+02 -0.29072782639E+02  0.44012846744E+02  0.58254598865E+02  0.41800000000E+01 0.  1.
        -11    1    1    2    0    0  0.11082881427E+03 -0.77776956838E+02 -0.50882337190E+01  0.13549232897E+03  0.00000000000E+00 0.  1.
         11    1    1    2    0    0  0.10633636379E+02 -0.12681206304E+02  0.42154921226E+02  0.45287135033E+02  0.00000000000E+00 0. -1.
</event>
<event>
 7    1  0.2530765E-009  0.1968084E+03  0.7561462E-02  0.1152460E+00
         -1   -1    0    0    0  501 -0.00000000000E+00  0.00000000000E+00  0.66584628319E+02  0.66584628319E+02  0.00000000000E+00 0.  1.
          1   -1    0    0  501    0  0.00000000000E+00 -0.00000000000E+00 -0.89024158325E+03  0.89024158325E+03  0.00000000000E+00 0. -1.
         25    2    1    2    0    0  0.17652829640E+03  0.53624425284E+02 -0.19674762961E+03  0.29731312839E+03  0.12509055975E+03 0.  0.
          5    1    3    3  502    0  0.15606102225E+03  0.24402516599E+02 -0.83939642801E+02  0.17892417812E+03  0.41800000000E+01 0.  1.
         -5    1    3    3    0  502  0.20467274145E+02  0.29221908685E+02 -0.11280798680E+03  0.11838895027E+03  0.41800000000E+01 0.  1.
        -11    1    1    2    0    0 -0.52725900690E+02 -0.54565207538E+02 -0.31313110123E+03  0.32219321693E+03  0.00000000000E+00 0. -1.
         11    1    1    2    0    0 -0.12380239571E+03  0.94078225315E+00 -0.31377822410E+03  0.33731986626E+03  0.00000000000E+00 0.  1.
</event>
<event>
 7    1  0.2530765E-009  0.2115236E+03  0.7561462E-02  0.1140365E+00
          2   -1    0    0  501    0  0.00000000000E+00  0.00000000000E+00  0.22044480539E+03  0.22044480539E+03  0.00000000000E+00 0.  1.
         -2   -1    0    0    0  501 -0.00000000000E+00 -0.00000000000E+00 -0.22540752499E+03  0.22540752499E+03  0.00000000000E+00 0. -1.
         25    2    1    2    0    0  0.17749322432E+03  0.77076664714E+02  0.20773542450E+02  0.23135288130E+03  0.12509180108E+03 0.  0.
          5    1    3    3  502    0  0.18274207783E+03  0.86282147260E+02  0.42747909692E+02  0.20660138462E+03  0.41800000000E+01 0.  1.
         -5    1    3    3    0  502 -0.52488535130E+01 -0.92054825460E+01 -0.21974367242E+02  0.24751496678E+02  0.41800000000E+01 0.  1.
        -11    1    1    2    0    0 -0.21460491214E+02  0.16954189730E+02  0.94899095485E+01  0.28949190244E+02  0.00000000000E+00 0.  1.
         11    1    1    2    0    0 -0.15603273310E+03 -0.94030854444E+02 -0.35226171602E+02  0.18555025883E+03  0.00000000000E+00 0. -1.
</event>
<event>
 7    1  0.2530765E-009  0.9833073E+02  0.7561462E-02  0.1283846E+00
         -2   -1    0    0    0  501 -0.00000000000E+00  0.00000000000E+00  0.17107650116E+02  0.17107650116E+02  0.00000000000E+00 0. -1.
          2   -1    0    0  501    0  0.00000000000E+00 -0.00000000000E+00 -0.78954709758E+03  0.78954709758E+03  0.00000000000E+00 0.  1.
         25    2    1    2    0    0 -0.19552503538E+02  0.12558989326E+02 -0.55707931553E+03  0.57142338392E+03  0.12508913337E+03 0.  0.
          5    1    3    3  502    0 -0.23837830902E+02 -0.48439201643E+02 -0.14442605940E+03  0.15424317642E+03  0.41800000000E+01 0.  1.
         -5    1    3    3    0  502  0.42853273635E+01  0.60998190969E+02 -0.41265325613E+03  0.41718020750E+03  0.41800000000E+01 0.  1.
        -11    1    1    2    0    0  0.35537719795E+02 -0.37457590019E+02 -0.18789599805E+03  0.19486124977E+03  0.00000000000E+00 0. -1.
         11    1    1    2    0    0 -0.15985216256E+02  0.24898600693E+02 -0.27464133879E+02  0.40370114007E+02  0.00000000000E+00 0.  1.
</event>
<event>
 7    1  0.2530765E-009  0.1558728E+03  0.7561462E-02  0.1193437E+00
         -2   -1    0    0    0  501 -0.00000000000E+00  0.00000000000E+00  0.19332106577E+03  0.19332106577E+03  0.00000000000E+00 0.  1.
          2   -1    0    0  501    0  0.00000000000E+00 -0.00000000000E+00 -0.13597886198E+03  0.13597886198E+03  0.00000000000E+00 0. -1.
         25    2    1    2    0    0  0.57926895752E+02 -0.10463157970E+03  0.46769290643E+02  0.17926848949E+03  0.12508609857E+03 0.  0.
          5    1    3    3  502    0  0.19794377129E+02  0.25516077206E+02 -0.70214764889E+01  0.33311575975E+02  0.41800000000E+01 0.  1.
         -5    1    3    3    0  502  0.38132518623E+02 -0.13014765691E+03  0.53790767132E+02  0.14595691352E+03  0.41800000000E+01 0.  1.
        -11    1    1    2    0    0 -0.26716974836E+02 -0.69736015688E+01 -0.14903218598E+02  0.31377281396E+02  0.00000000000E+00 0. -1.
         11    1    1    2    0    0 -0.31209920916E+02  0.11160518127E+03  0.25476131750E+02  0.11865415686E+03  0.00000000000E+00 0.  1.
</event>
<event>
 7    1  0.2530765E-009  0.1325481E+03  0.7561462E-02  0.1223723E+00
         -1   -1    0    0    0  501 -0.00000000000E+00  0.00000000000E+00  0.26157161850E+03  0.26157161850E+03  0.00000000000E+00 0.  1.
          1   -1    0    0  501    0  0.00000000000E+00 -0.00000000000E+00 -0.75240294493E+02  0.75240294493E+02  0.00000000000E+00 0. -1.
         25    2    1    2    0    0 -0.34475241741E+02  0.75372443899E+02  0.13577517635E+03  0.20236489104E+03  0.12508838084E+03 0.  0.
          5    1    3    3  502    0  0.26548492209E+02  0.76028783284E+02  0.43410977099E+02  0.91581568336E+02  0.41800000000E+01 0.  1.
         -5    1    3    3    0  502 -0.61023733950E+02 -0.65633938469E+00  0.92364199246E+02  0.11078332270E+03  0.41800000000E+01 0.  1.
        -11    1    1    2    0    0 -0.81481656323E+01 -0.79999105756E+02  0.23605475270E+02  0.83806133353E+02  0.00000000000E+00 0. -1.
         11    1    1    2    0    0  0.42623407373E+02  0.46266618565E+01  0.26950672391E+02  0.50640888602E+02  0.00000000000E+00 0.  1.
</event>
<event>
 7    1  0.2530765E-009  0.2204661E+03  0.7561462E-02  0.1133536E+00
         -2   -1    0    0    0  501 -0.00000000000E+00  0.00000000000E+00  0.98425075168E+02  0.98425075168E+02  0.00000000000E+00 0.  1.
          2   -1    0    0  501    0  0.00000000000E+00 -0.00000000000E+00 -0.60624393702E+03  0.60624393702E+03  0.00000000000E+00 0. -1.
         25    2    1    2    0    0 -0.13481208995E+03  0.16390886834E+03 -0.18344749573E+03  0.30715066627E+03  0.12509249132E+03 0.  0.
          5    1    3    3  502    0 -0.66188415041E+02  0.10337073620E+03 -0.17684296279E+03  0.21530750399E+03  0.41800000000E+01 0.  1.
         -5    1    3    3    0  502 -0.68623674906E+02  0.60538132145E+02 -0.66045329358E+01  0.91843162274E+02  0.41800000000E+01 0.  1.
        -11    1    1    2    0    0  0.19889605430E+02 -0.84530618622E+02 -0.92858783981E+02  0.12713683829E+03  0.00000000000E+00 0.  1.
         11    1    1    2    0    0  0.11492248452E+03 -0.79378249718E+02 -0.23151258214E+03  0.27038150762E+03  0.00000000000E+00 0. -1.
</event>
<event>
 7    1  0.2530765E-009  0.1131850E+03  0.7561462E-02  0.1254783E+00
          1   -1    0    0  501    0  0.00000000000E+00  0.00000000000E+00  0.61061108347E+03  0.61061108347E+03  0.00000000000E+00 0. -1.
         -1   -1    0    0    0  501 -0.00000000000E+00 -0.00000000000E+00 -0.39143834777E+02  0.39143834777E+02  0.00000000000E+00 0.  1.
         25    2    1    2    0    0 -0.49524383709E+02 -0.28985896379E+01  0.10011267309E+03  0.16773205166E+03  0.12510166840E+03 0.  0.
          5    1    3    3  502    0 -0.18891774442E+02  0.55985700936E+02  0.17683408146E+02  0.61818065115E+02  0.41800000000E+01 0.  1.
         -5    1    3    3    0  502 -0.30632609267E+02 -0.58884290574E+02  0.82429264946E+02  0.10591398655E+03  0.41800000000E+01 0.  1.
        -11    1    1    2    0    0 -0.14885288806E+02 -0.26057057074E+02  0.15564689765E+03  0.15851340257E+03  0.00000000000E+00 0.  1.
         11    1    1    2    0    0  0.64409672515E+02  0.28955646712E+02  0.31570767795E+03  0.32350946401E+03  0.00000000000E+00 0. -1.
</event>
<event>
 7    1  0.2530765E-009  0.1415748E+03  0.7561462E-02  0.1211225E+00
          3   -1    0    0  501    0  0.00000000000E+00  0.00000000000E+00  0.11078600077E+03  0.11078600077E+03  0.00000000000E+00 0. -1.
         -3   -1    0    0    0  501 -0.00000000000E+00 -0.00000000000E+00 -0.19695936800E+03  0.19695936800E+03  0.00000000000E+00 0.  1.
         25    2    1    2    0    0 -0.89194192303E+02 -0.21154478938E+02 -0.87153982702E+02  0.17789466648E+03  0.12509028636E+03 0.  0.
          5    1    3    3  502    0 -0.90171057360E+02  0.36426497300E+02 -0.55089950211E+02  0.11184848817E+03  0.41800000000E+01 0. -1.
         -5    1    3    3    0  502  0.97686505760E+00 -0.57580976237E+02 -0.32064032490E+02  0.66046178310E+02  0.41800000000E+01 0. -1.
        -11    1    1    2    0    0 -0.10197823744E+02 -0.18446497925E+02 -0.78596559147E+01  0.22495401440E+02  0.00000000000E+00 0.  1.
         11    1    1    2    0    0  0.99392016047E+02  0.39600976863E+02  0.88402713854E+01  0.10735530085E+03  0.00000000000E+00 0. -1.
</event>
<event>
 7    1  0.2530765E-009  0.9180403E+02  0.7561462E-02  0.1298541E+00
          2   -1    0    0  501    0  0.00000000000E+00  0.00000000000E+00  0.99796742007E+03  0.99796742007E+03  0.00000000000E+00 0. -1.
         -2   -1    0    0    0  501 -0.00000000000E+00 -0.00000000000E+00 -0.13203244108E+02  0.13203244108E+02  0.00000000000E+00 0.  1.
         25    2    1    2    0    0 -0.17422486900E+02 -0.39868306733E+01  0.75869734374E+03  0.76914827893E+03  0.12509187711E+03 0.  0.
          5    1    3    3  502    0  0.51447027594E+02 -0.23553913469E+01  0.44250745462E+03  0.44551393279E+03  0.41800000000E+01 0. -1.
         -5    1    3    3    0  502 -0.68869514494E+02 -0.16314393264E+01  0.31618988912E+03  0.32363434614E+03  0.41800000000E+01 0. -1.
        -11    1    1    2    0    0  0.39909243167E+02  0.59483727279E+01  0.21114028035E+03  0.21496127282E+03  0.00000000000E+00 0. -1.
         11    1    1    2    0    0 -0.22486756267E+02 -0.19615420545E+01  0.14926551876E+02  0.27061112423E+02  0.00000000000E+00 0.  1.
</event>
<event>
 7    1  0.2530765E-009  0.8162074E+02  0.7561462E-02  0.1324514E+00
         -3   -1    0    0    0  501 -0.00000000000E+00  0.00000000000E+00  0.32479118920E+02  0.32479118920E+02  0.00000000000E+00 0.  1.
          3   -1    0    0  501    0  0.00000000000E+00 -0.00000000000E+00 -0.40724833415E+03  0.40724833415E+03  0.00000000000E+00 0. -1.
         25    2    1    2    0    0 -0.31654461500E+02 -0.21267980416E+02 -0.23788714882E+03  0.27145911982E+03  0.12508167827E+03 0.  0.
          5    1    3    3  502    0  0.14346286689E+02 -0.16583181572E+02  0.60623780858E+01  0.23130989621E+02  0.41800000000E+01 0.  1.
         -5    1    3    3    0  502 -0.46000748189E+02 -0.46847988441E+01 -0.24394952690E+03  0.24832813020E+03  0.41800000000E+01 0.  1.
        -11    1    1    2    0    0 -0.22533841674E+02 -0.16937218010E+02 -0.22536280187E+02  0.36090543072E+02  0.00000000000E+00 0.  1.
         11    1    1    2    0    0  0.54188303174E+02  0.38205198426E+02 -0.11434578623E+03  0.13217779018E+03  0.00000000000E+00 0. -1.
</event>
<event>
 7    1  0.2530765E-009  0.1023476E+03  0.7561462E-02  0.1275435E+00
         -1   -1    0    0    0  501 -0.00000000000E+00  0.00000000000E+00  0.30081123628E+02  0.30081123628E+02  0.00000000000E+00 0.  1.
          1   -1    0    0  501    0  0.00000000000E+00 -0.00000000000E+00 -0.53581360074E+03  0.53581360074E+03  0.00000000000E+00 0. -1.
         25    2    1    2    0    0 -0.25233982369E+02  0.56801263804E+02 -0.27108332819E+03  0.30495408394E+03  0.12509070729E+03 0.  0.
          5    1    3    3  502    0 -0.45067308380E+02  0.77948440170E+01 -0.23812693243E+03  0.24251542266E+03  0.41800000000E+01 0.  1.
         -5    1    3    3    0  502  0.19833326011E+02  0.49006419787E+02 -0.32956395761E+02  0.62438661282E+02  0.41800000000E+01 0.  1.
        -11    1    1    2    0    0 -0.12646248053E+02  0.17936311434E+02 -0.17125773825E+02  0.27837582273E+02  0.00000000000E+00 0.  1.
         11    1    1    2    0    0  0.37880230422E+02 -0.74737575239E+02 -0.21752337510E+03  0.23310305816E+03  0.00000000000E+00 0. -1.
</event>
<event>
 7    1  0.4748290E-009  0.1416674E+03  0.7561462E-02  0.1211103E+00
         -3   -1    0    0    0  501 -0.00000000000E+00  0.00000000000E+00  0.17281806735E+02  0.17281806735E+02  0.00000000000E+00 0.  1.
          3   -1    0    0  501    0  0.00000000000E+00 -0.00000000000E+00 -0.13952167164E+04  0.13952167164E+04  0.00000000000E+00 0. -1.
         25    2    1    2    0    0  0.63183200673E+02 -0.74770991474E+02 -0.97570216016E+03  0.98854738878E+03  0.12509363092E+03 0.  0.
          5    1    3    3  502    0  0.76781030684E+02 -0.99257792539E+02 -0.87412396077E+03  0.88309546893E+03  0.41800000000E+01 0.  1.
         -5    1    3    3    0  502 -0.13597830011E+02  0.24486801065E+02 -0.10157819939E+03  0.10545191984E+03  0.41800000000E+01 0.  1.
        -11    1    1    2    0    0 -0.28118978152E+02 -0.15857333629E+02 -0.59316343481E+02  0.67531922570E+02  0.00000000000E+00 0.  1.
         11    1    1    2    0    0 -0.35064222521E+02  0.90628325103E+02 -0.34291640601E+03  0.35641921178E+03  0.00000000000E+00 0. -1.
</event>
<event>
 7    1  0.2530765E-009  0.1035873E+03  0.7561462E-02  0.1272928E+00
          1   -1    0    0  501    0  0.00000000000E+00  0.00000000000E+00  0.13558280062E+03  0.13558280062E+03  0.00000000000E+00 0. -1.
         -1   -1    0    0    0  501 -0.00000000000E+00 -0.00000000000E+00 -0.10076084455E+03  0.10076084455E+03  0.00000000000E+00 0.  1.
         25    2    1    2    0    0 -0.25848363225E+01  0.96447134135E+01  0.67111181831E+02  0.14230601438E+03  0.12508952445E+03 0.  0.
          5    1    3    3  502    0 -0.47064528804E+02 -0.33701856470E+02  0.12214147526E+02  0.59308876239E+02  0.41800000000E+01 0.  1.
         -5    1    3    3    0  502  0.44479692481E+02  0.43346569883E+02  0.54897034306E+02  0.82997138140E+02  0.41800000000E+01 0.  1.
        -11    1    1    2    0    0 -0.30669143765E+02  0.24479848202E+02 -0.23025617356E+02  0.45497674686E+02  0.00000000000E+00 0.  1.
         11    1    1    2    0    0  0.33253980087E+02 -0.34124561615E+02 -0.92636084065E+01  0.48539956096E+02  0.00000000000E+00 0. -1.
</event>
<event>
 7    1  0.2530765E-009  0.1461713E+03  0.7561462E-02  0.1205258E+00
         -3   -1    0    0    0  501 -0.00000000000E+00  0.00000000000E+00  0.47478575693E+03  0.47478575693E+03  0.00000000000E+00 0.  1.
          3   -1    0    0  501    0  0.00000000000E+00 -0.00000000000E+00 -0.70437260056E+02  0.70437260056E+02  0.00000000000E+00 0. -1.
         25    2    1    2    0    0  0.18488073802E+02  0.11415265906E+03  0.78300028121E+02  0.18748394322E+03  0.12508675438E+03 0.  0.
          5    1    3    3  502    0 -0.93382667540E+01 -0.12298233286E+02  0.53170830946E+02  0.55525304424E+02  0.41800000000E+01 0. -1.
         -5    1    3    3    0  502  0.27826340556E+02  0.12645089234E+03  0.25129197174E+02  0.13195863880E+03  0.41800000000E+01 0. -1.
        -11    1    1    2    0    0 -0.51615063590E+02 -0.39068168894E+02  0.13071331403E+03  0.14586434477E+03  0.00000000000E+00 0.  1.
         11    1    1    2    0    0  0.33126989787E+02 -0.75084490163E+02  0.19533515472E+03  0.21187472899E+03  0.00000000000E+00 0. -1.
</event>
<event>
 7    1  0.2530765E-009  0.1576312E+03  0.7561462E-02  0.1191397E+00
          1   -1    0    0  501    0  0.00000000000E+00  0.00000000000E+00  0.91833891963E+03  0.91833891963E+03  0.00000000000E+00 0. -1.
         -1   -1    0    0    0  501 -0.00000000000E+00 -0.00000000000E+00 -0.40062124625E+02  0.40062124625E+02  0.00000000000E+00 0.  1.
         25    2    1    2    0    0  0.12900045497E+03 -0.23267605060E+02  0.68096975078E+03  0.70466277458E+03  0.12508927042E+03 0.  0.
          5    1    3    3  502    0  0.14201750523E+03 -0.13084820130E+02  0.66846096466E+03  0.68351863031E+03  0.41800000000E+01 0. -1.
         -5    1    3    3    0  502 -0.13017050269E+02 -0.10182784930E+02  0.12508786123E+02  0.21144144270E+02  0.41800000000E+01 0. -1.
        -11    1    1    2    0    0 -0.11462416541E+03  0.50099336022E+02  0.17845462496E+03  0.21793277848E+03  0.00000000000E+00 0. -1.
         11    1    1    2    0    0 -0.14376289554E+02 -0.26831730961E+02  0.18852419269E+02  0.35805491199E+02  0.00000000000E+00 0.  1.
</event>
<event>
 7    1  0.2530765E-009  0.9822119E+02  0.7561462E-02  0.1284082E+00
          2   -1    0    0  501    0  0.00000000000E+00  0.00000000000E+00  0.11960737222E+04  0.11960737222E+04  0.00000000000E+00 0. -1.
         -2   -1    0    0    0  501 -0.00000000000E+00 -0.00000000000E+00 -0.23486302043E+02  0.23486302043E+02  0.00000000000E+00 0.  1.
         25    2    1    2    0    0 -0.29440897925E+02 -0.71708999262E+02  0.99418607259E+03  0.10050185997E+04  0.12508993442E+03 0.  0.
          5    1    3    3  502    0  0.79177267535E+01 -0.32851500033E+02  0.85534308534E+03  0.85602054735E+03  0.41800000000E+01 0.  1.
         -5    1    3    3    0  502 -0.37358624678E+02 -0.38857499229E+02  0.13884298725E+03  0.14899805231E+03  0.41800000000E+01 0.  1.
        -11    1    1    2    0    0  0.52537381185E+02  0.29604671922E+02  0.53092888567E+02  0.80345926081E+02  0.00000000000E+00 0.  1.
         11    1    1    2    0    0 -0.23096483260E+02  0.42104327340E+02  0.12530845899E+03  0.13419549848E+03  0.00000000000E+00 0. -1.
</event>
<event>
 7    1  0.2530765E-009  0.1185937E+03  0.7561462E-02  0.1245435E+00
          1   -1    0    0  501    0  0.00000000000E+00  0.00000000000E+00  0.40805281714E+03  0.40805281714E+03  0.00000000000E+00 0. -1.
         -1   -1    0    0    0  501 -0.00000000000E+00 -0.00000000000E+00 -0.14176311552E+03  0.14176311552E+03  0.00000000000E+00 0.  1.
         25    2    1    2    0    0  0.73676954157E+02 -0.69322634852E+02 -0.79174242989E+02  0.17930042556E+03  0.12508461367E+03 0.  0.
          5    1    3    3  502    0  0.28043647992E+02 -0.81063264309E+02 -0.96263975648E+02  0.12900358298E+03  0.41800000000E+01 0. -1.
         -5    1    3    3    0  502  0.45633306165E+02  0.11740629456E+02  0.17089732659E+02  0.50296842584E+02  0.41800000000E+01 0. -1.
        -11    1    1    2    0    0 -0.48639824141E+02  0.29263389928E+02  0.65849694223E+02  0.86938833163E+02  0.00000000000E+00 0.  1.
         11    1    1    2    0    0 -0.25037130016E+02  0.40059244924E+02  0.27961425038E+03  0.28357667394E+03  0.00000000000E+00 0. -1.
</event>
<event>
 7    1  0.2530765E-009  0.8495041E+02  0.7561462E-02  0.1315562E+00
         -1   -1    0    0    0  501 -0.00000000000E+00  0.00000000000E+00  0.92314387419E+02  0.92314387419E+02  0.00000000000E+00 0.  1.
          1   -1    0    0  501    0  0.00000000000E+00 -0.00000000000E+00 -0.53966521079E+03  0.53966521079E+03  0.00000000000E+00 0. -1.
         25    2    1    2    0    0 -0.71552396381E+01  0.31728817262E+02 -0.50289101380E+03  0.51923501157E+03  0.12509080774E+03 0.  0.
          5    1    3    3  502    0  0.26736024083E+02  0.27263926582E+02 -0.47014972306E+03  0.47171640969E+03  0.41800000000E+01 0. -1.
         -5    1    3    3    0  502 -0.33891263721E+02  0.44648906805E+01 -0.32741290739E+02  0.47518601880E+02  0.41800000000E+01 0. -1.
        -11    1    1    2    0    0  0.33282725150E+02  0.20188756695E+02  0.30527254952E+02  0.49469576359E+02  0.00000000000E+00 0.  1.
         11    1    1    2    0    0 -0.26127485512E+02 -0.51917573957E+02  0.25012935476E+02  0.63275010280E+02  0.00000000000E+00 0. -1.
</event>
<event>
 7    1  0.2530765E-009  0.7963761E+02  0.7561462E-02  0.1330083E+00
         -1   -1    0    0    0  501 -0.00000000000E+00  0.00000000000E+00  0.23066930738E+02  0.23066930738E+02  0.00000000000E+00 0.  1.
          1   -1    0    0  501    0  0.00000000000E+00 -0.00000000000E+00 -0.53110266629E+03  0.53110266629E+03  0.00000000000E+00 0. -1.
         25    2    1    2    0    0 -0.12638867316E+02  0.14918997701E+02 -0.32810259981E+03  0.35168380350E+03  0.12509142331E+03 0.  0.
          5    1    3    3  502    0  0.33152408723E+02 -0.22055855179E+02 -0.25313382248E+03  0.25628060292E+03  0.41800000000E+01 0.  1.
         -5    1    3    3    0  502 -0.45791276039E+02  0.36974852880E+02 -0.74968777331E+02  0.95403200582E+02  0.41800000000E+01 0.  1.
        -11    1    1    2    0    0 -0.17612631637E+02 -0.22954761175E+02 -0.16551369883E+03  0.16802354107E+03  0.00000000000E+00 0. -1.
         11    1    1    2    0    0  0.30251498953E+02  0.80357634745E+01 -0.14419436920E+02  0.34462252460E+02  0.00000000000E+00 0.  1.
</event>
<event>
 7    1  0.2530765E-009  0.9955709E+02  0.7561462E-02  0.1281230E+00
         -2   -1    0    0    0  501 -0.00000000000E+00  0.00000000000E+00  0.14307059684E+03  0.14307059684E+03  0.00000000000E+00 0.  1.
          2   -1    0    0  501    0  0.00000000000E+00 -0.00000000000E+00 -0.10470796772E+03  0.10470796772E+03  0.00000000000E+00 0. -1.
         25    2    1    2    0    0  0.25920272993E+02 -0.52175577044E+02  0.26671630064E+02  0.14054782293E+03  0.12509261884E+03 0.  0.
          5    1    3    3  502    0 -0.43949625092E+02 -0.50567233345E+02  0.52578679443E+01  0.67332994953E+02  0.41800000000E+01 0. -1.
         -5    1    3    3    0  502  0.69869898085E+02 -0.16083436986E+01  0.21413762120E+02  0.73214827979E+02  0.41800000000E+01 0. -1.
        -11    1    1    2    0    0 -0.23912478949E+02  0.24536014033E+02  0.49593899314E+02  0.60277503956E+02  0.00000000000E+00 0.  1.
         11    1    1    2    0    0 -0.20077940438E+01  0.27639563011E+02 -0.37902900251E+02  0.46953237671E+02  0.00000000000E+00 0. -1.
</event>
